<event>
 6    0  0.1221518E+003  0.9744272E+02  0.7546771E-02  0.1285767E+00
         21   -1    0    0  505  501  0.00000000000E+00  0.00000000000E+00  0.64481981112E+03  0.64481981112E+03  0.00000000000E+00 0.  1.
         21   -1    0    0  506  502 -0.00000000000E+00 -0.00000000000E+00 -0.43333347805E+02  0.43333347805E+02  0.00000000000E+00 0.  1.
         21    1    1    2  503  502 -0.95449895713E+02  0.82835966963E+01  0.32882725549E+03  0.34250060514E+03  0.00000000000E+00 0.  1.
         21    1    1    2  504  501  0.82750268610E+02  0.70098449088E+02  0.15007281307E+03  0.18515736211E+03  0.00000000000E+00 0.  1.
         21    1    1    2  505  503 -0.40967592907E+01 -0.41874172406E+02  0.11094738907E+03  0.11865729178E+03  0.00000000000E+00 0.  1.
         21    1    1    2  506  504  0.16796386394E+02 -0.36507873378E+02  0.11639005679E+02  0.41837899896E+02  0.00000000000E+00 0.  1.
<scales pt_clust_3="97.44272" pt_clust_4="14000.00000" pt_clust_5="46.89351" pt_clust_6="40.18636"></scales>
<clustering>
<clus scale="   40.186">  2  6  1 -1</clus>
<clus scale="   46.894">  1  5  2 -1</clus>
<clus scale="   97.443">  1  3  2 -1</clus>
<clus scale="   46.894">  1  3  2 -1</clus>
</clustering>
</event>
<event>
 6    0  0.1221518E+003  0.7235773E+02  0.7546771E-02  0.1352254E+00
         21   -1    0    0  505  501  0.00000000000E+00  0.00000000000E+00  0.12763215217E+04  0.12763215217E+04  0.00000000000E+00 0. -1.
         21   -1    0    0  503  502 -0.00000000000E+00 -0.00000000000E+00 -0.23129756853E+02  0.23129756853E+02  0.00000000000E+00 0.  1.
         21    1    1    2  503  501 -0.23072123747E+02 -0.31747041344E+02  0.28845315660E+03  0.29111066809E+03  0.00000000000E+00 0. -1.
         21    1    1    2  504  506  0.10304211626E+03  0.31077916673E+02  0.73559471978E+03  0.74342659785E+03  0.00000000000E+00 0. -1.
         21    1    1    2  505  504 -0.20593074784E+02  0.35720535220E+02  0.16725328407E+03  0.17226053639E+03  0.00000000000E+00 0. -1.
         21    1    1    2  506  502 -0.59376917725E+02 -0.35051410549E+02  0.61890604376E+02  0.92653476190E+02  0.00000000000E+00 0.  1.
<scales pt_clust_3="39.24535" pt_clust_4="14000.00000" pt_clust_5="38.97280" pt_clust_6="72.35773"></scales>
<clustering>
<clus scale="   39.245">  1  3  2 -1</clus>
<clus scale="   38.973">  1  5  2 -1</clus>
<clus scale="   72.358">  2  6  1 -1</clus>
<clus scale="   39.245">  1  3  2 -1</clus>
</clustering>
</event>
<event>
 6    0  0.1221518E+003  0.9113022E+02  0.7546771E-02  0.1300138E+00
         21   -1    0    0  506  501  0.00000000000E+00  0.00000000000E+00  0.27373183657E+02  0.27373183657E+02  0.00000000000E+00 0.  1.
         21   -1    0    0  504  502 -0.00000000000E+00 -0.00000000000E+00 -0.12385751115E+04  0.12385751115E+04  0.00000000000E+00 0. -1.
         21    1    1    2  503  501  0.72043584808E+02 -0.88806465472E+02 -0.47685669182E+03  0.49037656036E+03  0.00000000000E+00 0. -1.
         21    1    1    2  504  503  0.16333250169E+01 -0.32347538010E+02 -0.36376648163E+03  0.36520553681E+03  0.00000000000E+00 0. -1.
         21    1    1    2  505  502 -0.39348537085E+02  0.72855807243E+02 -0.32562735312E+03  0.33599025153E+03  0.00000000000E+00 0.  1.
         21    1    1    2  506  505 -0.34328372740E+02  0.48298196239E+02 -0.44951401291E+02  0.74375946467E+02  0.00000000000E+00 0.  1.
<scales pt_clust_3="14000.00000" pt_clust_4="32.38875" pt_clust_5="91.13022" pt_clust_6="57.40299"></scales>
<clustering>
<clus scale="   32.389">  2  4  1 -1</clus>
<clus scale="   57.403">  1  6  2 -1</clus>
<clus scale="   91.130">  2  5  1 -1</clus>
<clus scale="   57.403">  1  3  2 -1</clus>
</clustering>
</event>
<event>
 6    0  0.1221518E+003  0.7074235E+02  0.7546771E-02  0.1357587E+00
         21   -1    0    0  505  501  0.00000000000E+00  0.00000000000E+00  0.22340382318E+03  0.22340382318E+03  0.00000000000E+00 0. -1.
         21   -1    0    0  506  502 -0.00000000000E+00 -0.00000000000E+00 -0.35597963933E+03  0.35597963933E+03  0.00000000000E+00 0.  1.
         21    1    1    2  503  502  0.38961042381E+01  0.10326969897E+03 -0.29857980826E+03  0.31595840273E+03  0.00000000000E+00 0.  1.
         21    1    1    2  504  501 -0.61557045579E+02 -0.16900704761E+02  0.65178028442E+02  0.91230910735E+02  0.00000000000E+00 0. -1.
         21    1    1    2  505  503  0.45246568429E+02 -0.53089219266E+02  0.11454833329E+03  0.13411576274E+03  0.00000000000E+00 0. -1.
         21    1    1    2  506  504  0.12414372912E+02 -0.33279774944E+02 -0.13722369617E+02  0.38078386298E+02  0.00000000000E+00 0.  1.
<scales pt_clust_3="14000.00000" pt_clust_4="63.72555" pt_clust_5="70.74235" pt_clust_6="35.51985"></scales>
<clustering>
<clus scale="   35.520">  2  6  1 -1</clus>
<clus scale="   63.726">  1  4  2 -1</clus>
<clus scale="   70.742">  1  5  2 -1</clus>
<clus scale="   63.726">  1  3  2 -1</clus>
</clustering>
</event>
<event>
 6    0  0.1221518E+003  0.9162682E+02  0.7546771E-02  0.1298959E+00
         21   -1    0    0  506  501  0.00000000000E+00  0.00000000000E+00  0.10209297568E+03  0.10209297568E+03  0.00000000000E+00 0. -1.
         21   -1    0    0  505  502 -0.00000000000E+00 -0.00000000000E+00 -0.78827693787E+03  0.78827693787E+03  0.00000000000E+00 0.  1.
         21    1    1    2  503  501  0.57023532798E+02  0.25861540223E+02  0.34147055839E+02  0.71319870850E+02  0.00000000000E+00 0. -1.
         21    1    1    2  504  502  0.94362677976E+02  0.20900719269E+02 -0.17383693379E+03  0.19889805080E+03  0.00000000000E+00 0. -1.
         21    1    1    2  505  503 -0.87805269387E+02  0.33811721857E+02 -0.49768100377E+03  0.50649716621E+03  0.00000000000E+00 0.  1.
         21    1    1    2  506  504 -0.63580941388E+02 -0.80573981350E+02 -0.48813080478E+02  0.11365482570E+03  0.00000000000E+00 0. -1.
<scales pt_clust_3="62.61392" pt_clust_4="14000.00000" pt_clust_5="91.62682" pt_clust_6="68.74532"></scales>
<clustering>
<clus scale="   62.614">  1  3  2 -1</clus>
<clus scale="   68.745">  1  6  2 -1</clus>
<clus scale="   91.627">  2  5  1 -1</clus>
<clus scale="   62.614">  1  3  2 -1</clus>
</clustering>
</event>
<event>
 6    0  0.1221518E+003  0.9111322E+02  0.7546771E-02  0.1300178E+00
         21   -1    0    0  504  501  0.00000000000E+00  0.00000000000E+00  0.81800028925E+02  0.81800028925E+02  0.00000000000E+00 0.  1.
         21   -1    0    0  506  502 -0.00000000000E+00 -0.00000000000E+00 -0.12889436661E+04  0.12889436661E+04  0.00000000000E+00 0. -1.
         21    1    1    2  503  501 -0.55671870470E+02 -0.17583098685E+02  0.59253862915E+02  0.83183789233E+02  0.00000000000E+00 0.  1.
         21    1    1    2  504  505  0.47956179745E+01  0.94456825408E+02 -0.47046432258E+03  0.47987682653E+03  0.00000000000E+00 0. -1.
         21    1    1    2  505  502  0.23696774740E+02 -0.90120063116E+02 -0.71913885784E+03  0.72515092206E+03  0.00000000000E+00 0. -1.
         21    1    1    2  506  503  0.27179477755E+02  0.13246336393E+02 -0.76794319650E+02  0.82532157184E+02  0.00000000000E+00 0. -1.
<scales pt_clust_3="58.08666" pt_clust_4="91.11322" pt_clust_5="14000.00000" pt_clust_6="30.23557"></scales>
<clustering>
<clus scale="   30.236">  2  6  1 -1</clus>
<clus scale="   58.087">  1  3  2 -1</clus>
<clus scale="   91.113">  1  4  2 -1</clus>
<clus scale="   58.087">  1  3  2 -1</clus>
</clustering>
</event>
<event>
 6    0  0.1221518E+003  0.8372275E+02  0.7546771E-02  0.1318807E+00
         21   -1    0    0  506  501  0.00000000000E+00  0.00000000000E+00  0.49795951997E+03  0.49795951997E+03  0.00000000000E+00 0. -1.
         21   -1    0    0  505  502 -0.00000000000E+00 -0.00000000000E+00 -0.32932730842E+03  0.32932730842E+03  0.00000000000E+00 0.  1.
         21    1    1    2  503  502 -0.11160945602E+02  0.29964883333E+02 -0.11918975312E+02  0.34125106775E+02  0.00000000000E+00 0. -1.
         21    1    1    2  504  501 -0.56566476063E+02  0.33044580881E+01  0.33788006271E+01  0.56763561825E+02  0.00000000000E+00 0.  1.
         21    1    1    2  505  504 -0.79359065516E+01 -0.81886855254E+02 -0.26897523535E+03  0.28127586620E+03  0.00000000000E+00 0.  1.
         21    1    1    2  506  503  0.75663328216E+02  0.48617513833E+02  0.44614762157E+03  0.45512229359E+03  0.00000000000E+00 0. -1.
<scales pt_clust_3="31.97594" pt_clust_4="83.72275" pt_clust_5="57.83191" pt_clust_6="14000.00000"></scales>
<clustering>
<clus scale="   31.976">  2  3  1 -1</clus>
<clus scale="   57.832">  2  5  1 -1</clus>
<clus scale="   83.723">  2  4  1 -1</clus>
<clus scale="   83.723">  1  3  2 -1</clus>
</clustering>
</event>
<event>
 6    0  0.1221518E+003  0.1038189E+03  0.7546771E-02  0.1272464E+00
         21   -1    0    0  504  501  0.00000000000E+00  0.00000000000E+00  0.14082104800E+03  0.14082104800E+03  0.00000000000E+00 0.  1.
         21   -1    0    0  503  502 -0.00000000000E+00 -0.00000000000E+00 -0.30915523653E+03  0.30915523653E+03  0.00000000000E+00 0.  1.
         21    1    1    2  503  501  0.13080693670E+02 -0.55298310622E+02  0.50847694546E+02  0.76252840899E+02  0.00000000000E+00 0.  1.
         21    1    1    2  504  505  0.77816281936E+02 -0.13160717492E+02 -0.32318100943E+02  0.85282107548E+02  0.00000000000E+00 0.  1.
         21    1    1    2  505  506 -0.95140711471E+02  0.12795880126E+03 -0.12607172852E+03  0.20327147004E+03  0.00000000000E+00 0.  1.
         21    1    1    2  506  502  0.42437358652E+01 -0.59499773150E+02 -0.60792053615E+02  0.85169866043E+02  0.00000000000E+00 0. -1.
<scales pt_clust_3="56.82436" pt_clust_4="14000.00000" pt_clust_5="103.81892" pt_clust_6="68.51360"></scales>
<clustering>
<clus scale="   56.824">  1  3  2 -1</clus>
<clus scale="   68.514">  2  6  1 -1</clus>
<clus scale="  103.819">  2  5  1 -1</clus>
<clus scale="   56.824">  1  3  2 -1</clus>
</clustering>
</event>
<event>
 6    0  0.1221518E+003  0.9080937E+02  0.7546771E-02  0.1300903E+00
         21   -1    0    0  503  501  0.00000000000E+00  0.00000000000E+00  0.90416262035E+03  0.90416262035E+03  0.00000000000E+00 0.  1.
         21   -1    0    0  506  502 -0.00000000000E+00 -0.00000000000E+00 -0.79102083531E+03  0.79102083531E+03  0.00000000000E+00 0.  1.
         21    1    1    2  503  505  0.77581246392E+01 -0.46601962151E+02  0.63820815256E+03  0.63995435570E+03  0.00000000000E+00 0.  1.
         21    1    1    2  504  501 -0.10700651878E+03  0.40689101350E+02 -0.64058889267E+03  0.65073814045E+03  0.00000000000E+00 0.  1.
         21    1    1    2  505  502  0.34371713770E+02 -0.36962338069E+02  0.24680067544E+03  0.25190911564E+03  0.00000000000E+00 0.  1.
         21    1    1    2  506  504  0.64876680373E+02  0.42875198871E+02 -0.13127815030E+03  0.15258184388E+03  0.00000000000E+00 0.  1.
<scales pt_clust_3="47.24332" pt_clust_4="90.80937" pt_clust_5="14000.00000" pt_clust_6="77.01131"></scales>
<clustering>
<clus scale="   47.243">  1  3  2 -1</clus>
<clus scale="   77.011">  2  6  1 -1</clus>
<clus scale="   90.809">  2  4  1 -1</clus>
<clus scale="   47.243">  1  3  2 -1</clus>
</clustering>
</event>
<event>
 6    0  0.1221518E+003  0.1295602E+03  0.7546771E-02  0.1228110E+00
         21   -1    0    0  503  501  0.00000000000E+00  0.00000000000E+00  0.34458833932E+03  0.34458833932E+03  0.00000000000E+00 0.  1.
         21   -1    0    0  504  502 -0.00000000000E+00 -0.00000000000E+00 -0.27325307878E+03  0.27325307878E+03  0.00000000000E+00 0. -1.
         21    1    1    2  503  502  0.13378798782E+02  0.42503628938E+02 -0.33354020938E+02  0.55660052483E+02  0.00000000000E+00 0.  1.
         21    1    1    2  504  505 -0.12344303300E+03 -0.10658121213E+03 -0.17102432374E+03  0.23631981822E+03  0.00000000000E+00 0. -1.
         21    1    1    2  505  506  0.76013898345E+02  0.95995978275E+02  0.22982738012E+03  0.26041114654E+03  0.00000000000E+00 0.  1.
         21    1    1    2  506  501  0.34050335877E+02 -0.31918395084E+02  0.45886225090E+02  0.65450400847E+02  0.00000000000E+00 0.  1.
<scales pt_clust_3="44.55952" pt_clust_4="14000.00000" pt_clust_5="129.56018" pt_clust_6="45.87779"></scales>
<clustering>
<clus scale="   44.560">  2  3  1 -1</clus>
<clus scale="   45.878">  1  6  2 -1</clus>
<clus scale="  129.560">  1  5  2 -1</clus>
<clus scale="   45.878">  1  3  2 -1</clus>
</clustering>
</event>
<event>
 6    0  0.1221518E+003  0.2288182E+03  0.7546771E-02  0.1127474E+00
         21   -1    0    0  506  501  0.00000000000E+00  0.00000000000E+00  0.54684379281E+03  0.54684379281E+03  0.00000000000E+00 0. -1.
         21   -1    0    0  505  502 -0.00000000000E+00 -0.00000000000E+00 -0.44961713947E+03  0.44961713947E+03  0.00000000000E+00 0. -1.
         21    1    1    2  503  502 -0.21186415119E+03 -0.10470968846E+03 -0.55354632199E+02  0.24272344906E+03  0.00000000000E+00 0. -1.
         21    1    1    2  504  501 -0.31059053271E+02  0.32353834033E+02 -0.23397659048E+02  0.50585430863E+02  0.00000000000E+00 0.  1.
         21    1    1    2  505  504  0.22237092510E+03  0.47383603368E+02 -0.21376236429E+03  0.31207111783E+03  0.00000000000E+00 0. -1.
         21    1    1    2  506  503  0.20552279352E+02  0.24972251059E+02  0.38974130887E+03  0.39108093453E+03  0.00000000000E+00 0. -1.
<scales pt_clust_3="228.81816" pt_clust_4="45.26381" pt_clust_5="14000.00000" pt_clust_6="32.34207"></scales>
<clustering>
<clus scale="   32.342">  1  6  2 -1</clus>
<clus scale="   45.264">  1  4  2 -1</clus>
<clus scale="  228.818">  1  3  2 -1</clus>
<clus scale="   32.342">  1  3  2 -1</clus>
</clustering>
</event>
<event>
 6    0  0.1221518E+003  0.8609268E+02  0.7546771E-02  0.1312600E+00
         21   -1    0    0  504  501  0.00000000000E+00  0.00000000000E+00  0.58281067027E+03  0.58281067027E+03  0.00000000000E+00 0.  1.
         21   -1    0    0  503  502 -0.00000000000E+00 -0.00000000000E+00 -0.22793500512E+03  0.22793500512E+03  0.00000000000E+00 0. -1.
         21    1    1    2  503  501  0.61953439295E+02  0.46014370065E+01 -0.17283442567E+03  0.18366039464E+03  0.00000000000E+00 0. -1.
         21    1    1    2  504  506 -0.47272737076E+02  0.78625348040E+02  0.50482285322E+03  0.51309138578E+03  0.00000000000E+00 0.  1.
         21    1    1    2  505  502 -0.27392370209E+02 -0.19767000823E+02 -0.17156727304E+02  0.37887063215E+02  0.00000000000E+00 0. -1.
         21    1    1    2  506  505  0.12711667991E+02 -0.63459784223E+02  0.40043964893E+02  0.76106831763E+02  0.00000000000E+00 0. -1.
<scales pt_clust_3="39.76835" pt_clust_4="86.09268" pt_clust_5="33.77982" pt_clust_6="14000.00000"></scales>
<clustering>
<clus scale="   33.780">  2  5  1 -1</clus>
<clus scale="   39.768">  2  3  1 -1</clus>
<clus scale="   86.093">  1  4  2 -1</clus>
<clus scale="   86.093">  1  3  2 -1</clus>
</clustering>
</event>
<event>
 6    0  0.1221518E+003  0.1913138E+03  0.7546771E-02  0.1157282E+00
         21   -1    0    0  503  501  0.00000000000E+00  0.00000000000E+00  0.20599826714E+03  0.20599826714E+03  0.00000000000E+00 0.  1.
         21   -1    0    0  505  502 -0.00000000000E+00 -0.00000000000E+00 -0.32174442166E+03  0.32174442166E+03  0.00000000000E+00 0.  1.
         21    1    1    2  503  504  0.20394139925E+02 -0.30710603615E+02  0.22848424696E+02  0.43371795314E+02  0.00000000000E+00 0.  1.
         21    1    1    2  504  502  0.11315439039E+03 -0.14189822390E+03 -0.65579074492E+02  0.19297574205E+03  0.00000000000E+00 0.  1.
         21    1    1    2  505  506 -0.14461649840E+03  0.67586683447E+02 -0.91784305909E+02  0.18413649882E+03  0.00000000000E+00 0.  1.
         21    1    1    2  506  501  0.11067968080E+02  0.10502214407E+03  0.18768801191E+02  0.10725865261E+03  0.00000000000E+00 0.  1.
<scales pt_clust_3="36.07029" pt_clust_4="36.07029" pt_clust_5="173.76926" pt_clust_6="105.60374"></scales>
<clustering>
<clus scale="   36.070">  3  4 -1 -1</clus>
<clus scale="  105.604">  1  6  2 -1</clus>
<clus scale="  173.769">  2  5  1 -1</clus>
<clus scale="  105.604">  1  3  2 -1</clus>
</clustering>
</event>
<event>
 6    0  0.1221518E+003  0.1136508E+03  0.7546771E-02  0.1253955E+00
         21   -1    0    0  505  501  0.00000000000E+00  0.00000000000E+00  0.38819823290E+03  0.38819823290E+03  0.00000000000E+00 0. -1.
         21   -1    0    0  503  502 -0.00000000000E+00 -0.00000000000E+00 -0.12322911246E+04  0.12322911246E+04  0.00000000000E+00 0. -1.
         21    1    1    2  503  504 -0.11220525877E+03 -0.20553133476E+02 -0.11677141759E+04  0.11732727083E+04  0.00000000000E+00 0. -1.
         21    1    1    2  504  506  0.82532658030E+02  0.64242026203E+02  0.11642752309E+03  0.15650573697E+03  0.00000000000E+00 0.  1.
         21    1    1    2  505  502  0.47397439852E+02 -0.70849032336E+01 -0.25640040108E+02  0.54351861193E+02  0.00000000000E+00 0.  1.
         21    1    1    2  506  501 -0.17724839111E+02 -0.36603989493E+02  0.23283380128E+03  0.23635905099E+03  0.00000000000E+00 0. -1.
<scales pt_clust_3="113.65078" pt_clust_4="14000.00000" pt_clust_5="46.93187" pt_clust_6="40.66967"></scales>
<clustering>
<clus scale="   40.670">  1  6  2 -1</clus>
<clus scale="   46.932">  1  5  2 -1</clus>
<clus scale="  113.651">  2  3  1 -1</clus>
<clus scale="   40.670">  1  3  2 -1</clus>
</clustering>
</event>
<event>
 6    0  0.1221518E+003  0.2176399E+03  0.7546771E-02  0.1135655E+00
         21   -1    0    0  505  501  0.00000000000E+00  0.00000000000E+00  0.44538781210E+03  0.44538781210E+03  0.00000000000E+00 0.  1.
         21   -1    0    0  506  502 -0.00000000000E+00 -0.00000000000E+00 -0.58642873327E+03  0.58642873327E+03  0.00000000000E+00 0. -1.
         21    1    1    2  503  501 -0.46236520182E+02  0.48377846066E+02  0.72242010190E+02  0.98474056608E+02  0.00000000000E+00 0.  1.
         21    1    1    2  504  502 -0.71782748935E+01 -0.29765511267E+02 -0.30114338232E+03  0.30269596959E+03  0.00000000000E+00 0. -1.
         21    1    1    2  505  504  0.98907616839E+02 -0.15709030780E+03 -0.22129963423E+03  0.28884876594E+03  0.00000000000E+00 0. -1.
         21    1    1    2  506  503 -0.45492821764E+02  0.13847797300E+03  0.30916008519E+03  0.34179775323E+03  0.00000000000E+00 0.  1.
<scales pt_clust_3="48.08951" pt_clust_4="30.61884" pt_clust_5="205.72994" pt_clust_6="48.08951"></scales>
<clustering>
<clus scale="   30.619">  2  4  1 -1</clus>
<clus scale="   48.090">  3  6 -1 -1</clus>
<clus scale="  205.730">  2  5  1 -1</clus>
<clus scale="  217.640">  1  3  2 -1</clus>
</clustering>
</event>
<event>
 6    0  0.1221518E+003  0.9162920E+02  0.7546771E-02  0.1298954E+00
         21   -1    0    0  504  501  0.00000000000E+00  0.00000000000E+00  0.50170057670E+03  0.50170057670E+03  0.00000000000E+00 0.  1.
         21   -1    0    0  505  502 -0.00000000000E+00 -0.00000000000E+00 -0.13426252605E+03  0.13426252605E+03  0.00000000000E+00 0.  1.
         21    1    1    2  503  502 -0.34315756355E+02  0.85145602112E+01 -0.21676711688E+02  0.41472264218E+02  0.00000000000E+00 0.  1.
         21    1    1    2  504  503 -0.11914014484E+02  0.30383153179E+02  0.67497372757E+02  0.74973162314E+02  0.00000000000E+00 0. -1.
         21    1    1    2  505  506  0.27819606840E+02  0.81702926194E+02 -0.68868298534E+02  0.11041802940E+03  0.00000000000E+00 0.  1.
         21    1    1    2  506  501  0.18410163999E+02 -0.12060063958E+03  0.39048568812E+03  0.40909964682E+03  0.00000000000E+00 0.  1.
<scales pt_clust_3="35.79566" pt_clust_4="32.63556" pt_clust_5="14000.00000" pt_clust_6="91.62920"></scales>
<clustering>
<clus scale="   32.636">  1  4  2 -1</clus>
<clus scale="   35.796">  2  3  1 -1</clus>
<clus scale="   91.629">  1  6  2 -1</clus>
<clus scale="   32.636">  1  3  2 -1</clus>
</clustering>
</event>
<event>
 6    0  0.1221518E+003  0.7998050E+02  0.7546771E-02  0.1329107E+00
         21   -1    0    0  505  501  0.00000000000E+00  0.00000000000E+00  0.14804323750E+03  0.14804323750E+03  0.00000000000E+00 0.  1.
         21   -1    0    0  504  502 -0.00000000000E+00 -0.00000000000E+00 -0.23656141383E+04  0.23656141383E+04  0.00000000000E+00 0.  1.
         21    1    1    2  503  502  0.64702271797E+02  0.80350941827E+02 -0.16019487829E+04  0.16052671306E+04  0.00000000000E+00 0.  1.
         21    1    1    2  504  506 -0.33426873574E+02 -0.10699651127E+02 -0.56801317810E+03  0.56909648471E+03  0.00000000000E+00 0. -1.
         21    1    1    2  505  503  0.23888198025E+02 -0.76494579545E+02  0.13026240541E+03  0.15293907600E+03  0.00000000000E+00 0.  1.
         21    1    1    2  506  501 -0.55163596247E+02  0.68432888458E+01 -0.17787134520E+03  0.18635468440E+03  0.00000000000E+00 0.  1.
<scales pt_clust_3="79.98050" pt_clust_4="35.09756" pt_clust_5="14000.00000" pt_clust_6="58.83360"></scales>
<clustering>
<clus scale="   35.098">  2  4  1 -1</clus>
<clus scale="   58.834">  2  6  1 -1</clus>
<clus scale="   79.981">  2  3  1 -1</clus>
<clus scale="   79.981">  1  3  2 -1</clus>
</clustering>
</event>
<event>
 6    0  0.1221518E+003  0.8252587E+02  0.7546771E-02  0.1322032E+00
         21   -1    0    0  506  501  0.00000000000E+00  0.00000000000E+00  0.52093316864E+03  0.52093316864E+03  0.00000000000E+00 0. -1.
         21   -1    0    0  504  502 -0.00000000000E+00 -0.00000000000E+00 -0.10419793252E+03  0.10419793252E+03  0.00000000000E+00 0.  1.
         21    1    1    2  503  501  0.82769421715E+02  0.52227395935E+02  0.19617779582E+03  0.21923550266E+03  0.00000000000E+00 0.  1.
         21    1    1    2  504  503  0.31122452906E+02 -0.89859232565E+02  0.27380642312E+02  0.98959528725E+02  0.00000000000E+00 0.  1.
         21    1    1    2  505  502 -0.34690138762E+02  0.36289386564E+02 -0.37742719157E+02  0.62807946582E+02  0.00000000000E+00 0.  1.
         21    1    1    2  506  505 -0.79201735859E+02  0.13424500653E+01  0.23091951715E+03  0.24412812319E+03  0.00000000000E+00 0. -1.
<scales pt_clust_3="82.52587" pt_clust_4="66.26992" pt_clust_5="50.20284" pt_clust_6="14000.00000"></scales>
<clustering>
<clus scale="   50.203">  2  5  1 -1</clus>
<clus scale="   66.270">  2  4  1 -1</clus>
<clus scale="   82.526">  2  3  1 -1</clus>
<clus scale="   82.526">  1  3  2 -1</clus>
</clustering>
</event>
<event>
 6    0  0.1221518E+003  0.1839976E+03  0.7546771E-02  0.1163989E+00
         21   -1    0    0  506  501  0.00000000000E+00  0.00000000000E+00  0.23077596779E+04  0.23077596779E+04  0.00000000000E+00 0. -1.
         21   -1    0    0  503  502 -0.00000000000E+00 -0.00000000000E+00 -0.10777217522E+03  0.10777217522E+03  0.00000000000E+00 0. -1.
         21    1    1    2  503  504  0.25342055519E+02  0.10253238309E+03 -0.47173320420E+02  0.11567381518E+03  0.00000000000E+00 0. -1.
         21    1    1    2  504  501  0.43801336721E+02 -0.22246795978E+03  0.12032107849E+04  0.12243883138E+04  0.00000000000E+00 0. -1.
         21    1    1    2  505  502  0.65812305879E+02  0.12628267796E+02  0.13985874360E+03  0.15508449605E+03  0.00000000000E+00 0.  1.
         21    1    1    2  506  505 -0.13495569812E+03  0.10730730890E+03  0.90409129459E+03  0.92038522801E+03  0.00000000000E+00 0. -1.
<scales pt_clust_3="137.62191" pt_clust_4="14000.00000" pt_clust_5="67.01293" pt_clust_6="183.99760"></scales>
<clustering>
<clus scale="   67.013">  2  5  1 -1</clus>
<clus scale="  137.622">  2  3  1 -1</clus>
<clus scale="  183.998">  1  6  2 -1</clus>
<clus scale="  183.998">  1  3  2 -1</clus>
</clustering>
</event>
<event>
 6    0  0.1221518E+003  0.6482272E+02  0.7546771E-02  0.1378640E+00
         21   -1    0    0  504  501  0.00000000000E+00  0.00000000000E+00  0.68924528266E+03  0.68924528266E+03  0.00000000000E+00 0.  1.
         21   -1    0    0  503  502 -0.00000000000E+00 -0.00000000000E+00 -0.19224471507E+03  0.19224471507E+03  0.00000000000E+00 0.  1.
         21    1    1    2  503  505  0.10348353727E+03  0.24276894758E+02 -0.12216254590E+03  0.16193176874E+03  0.00000000000E+00 0.  1.
         21    1    1    2  504  502 -0.59307875622E+02  0.15830857942E+02 -0.14303723667E+02  0.63028855969E+02  0.00000000000E+00 0.  1.
         21    1    1    2  505  506 -0.58460708095E+02 -0.90001813383E+02  0.53022026014E+03  0.54097273967E+03  0.00000000000E+00 0.  1.
         21    1    1    2  506  501  0.14285046449E+02  0.49894060683E+02  0.10324657702E+03  0.11555663335E+03  0.00000000000E+00 0.  1.
<scales pt_clust_3="64.82272" pt_clust_4="61.38384" pt_clust_5="14000.00000" pt_clust_6="51.89875"></scales>
<clustering>
<clus scale="   51.899">  1  6  2 -1</clus>
<clus scale="   61.384">  2  4  1 -1</clus>
<clus scale="   64.823">  2  3  1 -1</clus>
<clus scale="   51.899">  1  3  2 -1</clus>
</clustering>
</event>
<event>
 6    0  0.1221518E+003  0.7543250E+02  0.7546771E-02  0.1342537E+00
         21   -1    0    0  506  501  0.00000000000E+00  0.00000000000E+00  0.11509034412E+04  0.11509034412E+04  0.00000000000E+00 0. -1.
         21   -1    0    0  505  502 -0.00000000000E+00 -0.00000000000E+00 -0.48635851869E+03  0.48635851869E+03  0.00000000000E+00 0. -1.
         21    1    1    2  503  501  0.74875999321E+02  0.25004749305E+01  0.11035272145E+04  0.11060673492E+04  0.00000000000E+00 0. -1.
         21    1    1    2  504  503 -0.12252751664E+03 -0.61165532358E+02 -0.83064627945E+02  0.16016849596E+03  0.00000000000E+00 0.  1.
         21    1    1    2  505  504  0.24476882313E+02  0.35779546801E+02 -0.31842402465E+03  0.32136140592E+03  0.00000000000E+00 0. -1.
         21    1    1    2  506  502  0.23174635010E+02  0.22885510627E+02 -0.37493639451E+02  0.49664708836E+02  0.00000000000E+00 0.  1.
<scales pt_clust_3="14000.00000" pt_clust_4="75.43250" pt_clust_5="66.60161" pt_clust_6="32.57008"></scales>
<clustering>
<clus scale="   32.570">  2  6  1 -1</clus>
<clus scale="   66.602">  2  5  1 -1</clus>
<clus scale="   75.432">  2  4  1 -1</clus>
<clus scale="   75.432">  1  3  2 -1</clus>
</clustering>
</event>
<event>
 6    0  0.1221518E+003  0.1209933E+03  0.7546771E-02  0.1241467E+00
         21   -1    0    0  505  501  0.00000000000E+00  0.00000000000E+00  0.10588718052E+04  0.10588718052E+04  0.00000000000E+00 0. -1.
         21   -1    0    0  506  502 -0.00000000000E+00 -0.00000000000E+00 -0.12629133391E+03  0.12629133391E+03  0.00000000000E+00 0.  1.
         21    1    1    2  503  502  0.25663979908E+02  0.26506492700E+02 -0.23176648734E+02  0.43570529794E+02  0.00000000000E+00 0.  1.
         21    1    1    2  504  501  0.12283933691E+03 -0.23032472467E+02  0.32693423060E+03  0.35000855506E+03  0.00000000000E+00 0. -1.
         21    1    1    2  505  503 -0.18673299014E+02  0.79504490629E+02  0.63221174293E+03  0.63746477866E+03  0.00000000000E+00 0. -1.
         21    1    1    2  506  504 -0.12983001780E+03 -0.82978510862E+02 -0.33888534964E+01  0.15411927561E+03  0.00000000000E+00 0.  1.
<scales pt_clust_3="36.89491" pt_clust_4="14000.00000" pt_clust_5="82.23619" pt_clust_6="120.99331"></scales>
<clustering>
<clus scale="   36.895">  2  3  1 -1</clus>
<clus scale="   82.236">  1  5  2 -1</clus>
<clus scale="  120.993">  2  6  1 -1</clus>
<clus scale="   82.236">  1  3  2 -1</clus>
</clustering>
</event>
<event>
 6    0  0.1221518E+003  0.7367325E+02  0.7546771E-02  0.1348029E+00
         21   -1    0    0  506  501  0.00000000000E+00  0.00000000000E+00  0.19564560838E+04  0.19564560838E+04  0.00000000000E+00 0.  1.
         21   -1    0    0  504  502 -0.00000000000E+00 -0.00000000000E+00 -0.37222490205E+02  0.37222490205E+02  0.00000000000E+00 0.  1.
         21    1    1    2  503  502  0.19246310783E+02  0.50518942667E+02  0.17537043090E+02  0.56834249597E+02  0.00000000000E+00 0.  1.
         21    1    1    2  504  501  0.17900582468E+02 -0.40119016538E+02  0.27856764103E+02  0.52018897018E+02  0.00000000000E+00 0. -1.
         21    1    1    2  505  503 -0.93571360416E+02  0.30339462007E+02  0.52150079855E+03  0.53069686765E+03  0.00000000000E+00 0.  1.
         21    1    1    2  506  505  0.56424467164E+02 -0.40739388136E+02  0.13523389878E+04  0.13541285597E+04  0.00000000000E+00 0.  1.
<scales pt_clust_3="38.36575" pt_clust_4="43.93138" pt_clust_5="14000.00000" pt_clust_6="73.67325"></scales>
<clustering>
<clus scale="   43.931">  2  4  1 -1</clus>
<clus scale="   38.366">  2  3  1 -1</clus>
<clus scale="   73.673">  1  6  2 -1</clus>
<clus scale="   73.673">  1  3  2 -1</clus>
</clustering>
</event>
<event>
 6    0  0.1221518E+003  0.1437710E+03  0.7546771E-02  0.1208343E+00
         21   -1    0    0  504  501  0.00000000000E+00  0.00000000000E+00  0.16597940145E+03  0.16597940145E+03  0.00000000000E+00 0.  1.
         21   -1    0    0  501  502 -0.00000000000E+00 -0.00000000000E+00 -0.16235846098E+03  0.16235846098E+03  0.00000000000E+00 0.  1.
         21    1    1    2  503  505 -0.43085952324E+02 -0.12192969377E+03 -0.37662310440E+02  0.13469112494E+03  0.00000000000E+00 0.  1.
         21    1    1    2  504  506 -0.27479150246E+02  0.76478547676E+02  0.36757205931E+02  0.89191726863E+02  0.00000000000E+00 0.  1.
         21    1    1    2  505  502  0.33342879709E+02 -0.48519391567E+01 -0.17684735719E+02  0.38053105239E+02  0.00000000000E+00 0.  1.
         21    1    1    2  506  503  0.37222222861E+02  0.50303085249E+02  0.22210780691E+02  0.66401905388E+02  0.00000000000E+00 0.  1.
<scales pt_clust_3="126.91125" pt_clust_4="61.69246" pt_clust_5="33.69405" pt_clust_6="61.69246"></scales>
<clustering>
<clus scale="   33.694">  2  5  1 -1</clus>
<clus scale="   61.692">  4  6 -1 -1</clus>
<clus scale="  126.911">  2  3  1 -1</clus>
<clus scale="  143.771">  1  3  2 -1</clus>
</clustering>
</event>
<event>
 6    0  0.1221518E+003  0.1196071E+03  0.7546771E-02  0.1243747E+00
         21   -1    0    0  502  501  0.00000000000E+00  0.00000000000E+00  0.27534534481E+03  0.27534534481E+03  0.00000000000E+00 0.  1.
         21   -1    0    0  504  502 -0.00000000000E+00 -0.00000000000E+00 -0.53028609409E+03  0.53028609409E+03  0.00000000000E+00 0. -1.
         21    1    1    2  503  505 -0.10825824758E+03  0.22640177767E+02  0.59056265632E+02  0.12537969664E+03  0.00000000000E+00 0.  1.
         21    1    1    2  504  506  0.27124761438E+02 -0.13092856592E+02 -0.41469793147E+03  0.41579027158E+03  0.00000000000E+00 0. -1.
         21    1    1    2  505  501 -0.34515239153E+02 -0.33086618014E+02  0.13363633593E+03  0.14193201297E+03  0.00000000000E+00 0.  1.
         21    1    1    2  506  503  0.11564872529E+03  0.23539296839E+02 -0.32935419362E+02  0.12252945771E+03  0.00000000000E+00 0. -1.
<scales pt_clust_3="119.60708" pt_clust_4="30.11936" pt_clust_5="47.44399" pt_clust_6="14000.00000"></scales>
<clustering>
<clus scale="   30.119">  2  4  1 -1</clus>
<clus scale="   47.444">  1  5  2 -1</clus>
<clus scale="  119.607">  1  3  2 -1</clus>
<clus scale="   47.444">  1  3  2 -1</clus>
</clustering>
</event>
<event>
 6    0  0.1221518E+003  0.1106218E+03  0.7546771E-02  0.1259423E+00
         21   -1    0    0  505  501  0.00000000000E+00  0.00000000000E+00  0.47295961636E+03  0.47295961636E+03  0.00000000000E+00 0. -1.
         21   -1    0    0  506  502 -0.00000000000E+00 -0.00000000000E+00 -0.48529547694E+03  0.48529547694E+03  0.00000000000E+00 0.  1.
         21    1    1    2  503  504 -0.80293039790E+02 -0.30096142878E+02  0.80089105835E+02  0.11733292346E+03  0.00000000000E+00 0. -1.
         21    1    1    2  504  501 -0.16652068687E+02 -0.34470263077E+02  0.35950793691E+03  0.36154038105E+03  0.00000000000E+00 0. -1.
         21    1    1    2  505  502  0.27140942711E+02 -0.17087845067E+02 -0.23635510116E+03  0.23852119206E+03  0.00000000000E+00 0.  1.
         21    1    1    2  506  503  0.69804165766E+02  0.81654251023E+02 -0.21557780217E+03  0.24086059673E+03  0.00000000000E+00 0.  1.
<scales pt_clust_3="14000.00000" pt_clust_4="38.29663" pt_clust_5="32.07219" pt_clust_6="110.62183"></scales>
<clustering>
<clus scale="   32.072">  2  5  1 -1</clus>
<clus scale="   38.297">  1  4  2 -1</clus>
<clus scale="  110.622">  2  6  1 -1</clus>
<clus scale="   38.297">  1  3  2 -1</clus>
</clustering>
</event>
<event>
 6    0  0.1221518E+003  0.1549919E+03  0.7546771E-02  0.1194470E+00
         21   -1    0    0  503  501  0.00000000000E+00  0.00000000000E+00  0.87017991019E+03  0.87017991019E+03  0.00000000000E+00 0.  1.
         21   -1    0    0  505  502 -0.00000000000E+00 -0.00000000000E+00 -0.29683684864E+03  0.29683684864E+03  0.00000000000E+00 0.  1.
         21    1    1    2  503  506 -0.12209483570E+02  0.18998971162E+03  0.64721487469E+03  0.67463490573E+03  0.00000000000E+00 0.  1.
         21    1    1    2  504  502 -0.23846920605E+02 -0.98598875326E+02 -0.21250558692E+03  0.23547619478E+03  0.00000000000E+00 0.  1.
         21    1    1    2  505  501  0.69449931246E+02  0.15301401750E+02 -0.90392187346E+01  0.71687748751E+02  0.00000000000E+00 0.  1.
         21    1    1    2  506  504 -0.33393527071E+02 -0.10669223804E+03  0.14767299251E+03  0.18521790957E+03  0.00000000000E+00 0.  1.
<scales pt_clust_3="154.99189" pt_clust_4="92.84309" pt_clust_5="71.11558" pt_clust_6="14000.00000"></scales>
<clustering>
<clus scale="   71.116">  2  5  1 -1</clus>
<clus scale="   92.843">  2  4  1 -1</clus>
<clus scale="  154.992">  1  3  2 -1</clus>
<clus scale="  154.992">  1  3  2 -1</clus>
</clustering>
</event>
<event>
 6    0  0.1221518E+003  0.8843579E+02  0.7546771E-02  0.1306684E+00
         21   -1    0    0  503  501  0.00000000000E+00  0.00000000000E+00  0.14516638669E+03  0.14516638669E+03  0.00000000000E+00 0. -1.
         21   -1    0    0  504  502 -0.00000000000E+00 -0.00000000000E+00 -0.11312524616E+04  0.11312524616E+04  0.00000000000E+00 0.  1.
         21    1    1    2  503  502  0.50628077790E+01 -0.71764205065E+02 -0.28196239897E+03  0.29099575183E+03  0.00000000000E+00 0.  1.
         21    1    1    2  504  506  0.33955830704E+02  0.20752973658E+02 -0.78108783301E+03  0.78210094440E+03  0.00000000000E+00 0.  1.
         21    1    1    2  505  501 -0.10687672352E+03  0.13587359335E+02  0.62300913393E+02  0.12445342171E+03  0.00000000000E+00 0. -1.
         21    1    1    2  506  505  0.67858085039E+02  0.37423872071E+02  0.14663243710E+02  0.78868730319E+02  0.00000000000E+00 0. -1.
<scales pt_clust_3="63.87549" pt_clust_4="39.79553" pt_clust_5="14000.00000" pt_clust_6="88.43579"></scales>
<clustering>
<clus scale="   39.796">  2  4  1 -1</clus>
<clus scale="   63.875">  2  3  1 -1</clus>
<clus scale="   88.436">  2  6  1 -1</clus>
<clus scale="   88.436">  1  3  2 -1</clus>
</clustering>
</event>
<event>
 6    0  0.1221518E+003  0.9217114E+02  0.7546771E-02  0.1297678E+00
         21   -1    0    0  503  501  0.00000000000E+00  0.00000000000E+00  0.97657835850E+03  0.97657835850E+03  0.00000000000E+00 0.  1.
         21   -1    0    0  505  502 -0.00000000000E+00 -0.00000000000E+00 -0.16108984476E+03  0.16108984476E+03  0.00000000000E+00 0.  1.
         21    1    1    2  503  504 -0.97020005133E+02 -0.60048810504E+02  0.37071371401E+03  0.38787549394E+03  0.00000000000E+00 0.  1.
         21    1    1    2  504  502  0.23942249864E+02 -0.40719299217E+02 -0.10099296926E+03  0.11149382269E+03  0.00000000000E+00 0.  1.
         21    1    1    2  505  506  0.65038910229E+02  0.61977105481E+02 -0.12498492471E+01  0.89848670389E+02  0.00000000000E+00 0.  1.
         21    1    1    2  506  501  0.80388450397E+01  0.38791004240E+02  0.54701761823E+03  0.54845021624E+03  0.00000000000E+00 0.  1.
<scales pt_clust_3="92.17114" pt_clust_4="46.87818" pt_clust_5="14000.00000" pt_clust_6="39.61521"></scales>
<clustering>
<clus scale="   39.615">  1  6  2 -1</clus>
<clus scale="   46.878">  2  4  1 -1</clus>
<clus scale="   92.171">  1  3  2 -1</clus>
<clus scale="   39.615">  1  3  2 -1</clus>
</clustering>
</event>
<event>
 6    0  0.1221518E+003  0.9341759E+02  0.7546771E-02  0.1294780E+00
         21   -1    0    0  505  501  0.00000000000E+00  0.00000000000E+00  0.14545266421E+03  0.14545266421E+03  0.00000000000E+00 0.  1.
         21   -1    0    0  504  502 -0.00000000000E+00 -0.00000000000E+00 -0.30201672955E+03  0.30201672955E+03  0.00000000000E+00 0.  1.
         21    1    1    2  503  502  0.32359244545E+01 -0.50215312164E+02  0.50853666627E+01  0.50575782119E+02  0.00000000000E+00 0.  1.
         21    1    1    2  504  506  0.97235760605E+02  0.43138844005E+01 -0.16377102771E+03  0.19051076678E+03  0.00000000000E+00 0.  1.
         21    1    1    2  505  503 -0.20955434413E+02 -0.21471493802E+02  0.73952151401E+02  0.79806490804E+02  0.00000000000E+00 0.  1.
         21    1    1    2  506  501 -0.79516250647E+02  0.67372921566E+02 -0.71830555692E+02  0.12657635406E+03  0.00000000000E+00 0.  1.
<scales pt_clust_3="59.16462" pt_clust_4="93.41759" pt_clust_5="30.00259" pt_clust_6="14000.00000"></scales>
<clustering>
<clus scale="   30.003">  1  5  2 -1</clus>
<clus scale="   59.165">  1  3  2 -1</clus>
<clus scale="   93.418">  2  4  1 -1</clus>
<clus scale="   30.003">  1  3  2 -1</clus>
</clustering>
</event>
<event>
 6    0  0.1221518E+003  0.1149191E+03  0.7546771E-02  0.1251722E+00
         21   -1    0    0  506  501  0.00000000000E+00  0.00000000000E+00  0.42029139215E+03  0.42029139215E+03  0.00000000000E+00 0. -1.
         21   -1    0    0  503  502 -0.00000000000E+00 -0.00000000000E+00 -0.22051824981E+03  0.22051824981E+03  0.00000000000E+00 0.  1.
         21    1    1    2  503  505 -0.80874323913E+02  0.54119870355E+02 -0.20318108716E+02  0.99410473178E+02  0.00000000000E+00 0. -1.
         21    1    1    2  504  502  0.81870086920E+02 -0.47152694376E+02 -0.13472098172E+03  0.16454735073E+03  0.00000000000E+00 0.  1.
         21    1    1    2  505  501 -0.12008894230E+02  0.31933455605E+02  0.19876075495E+02  0.39484395710E+02  0.00000000000E+00 0.  1.
         21    1    1    2  506  504  0.11013131223E+02 -0.38900631584E+02  0.33493615728E+03  0.33736742234E+03  0.00000000000E+00 0. -1.
<scales pt_clust_3="33.80272" pt_clust_4="99.73607" pt_clust_5="33.80272" pt_clust_6="40.42955"></scales>
<clustering>
<clus scale="   33.803">  3  5 -1 -1</clus>
<clus scale="   40.430">  1  6  2 -1</clus>
<clus scale="   99.736">  2  4  1 -1</clus>
<clus scale="   40.430">  1  3  2 -1</clus>
</clustering>
</event>
<event>
 6    0  0.1221518E+003  0.1015315E+03  0.7546771E-02  0.1277108E+00
         21   -1    0    0  504  501  0.00000000000E+00  0.00000000000E+00  0.22868672418E+03  0.22868672418E+03  0.00000000000E+00 0.  1.
         21   -1    0    0  503  502 -0.00000000000E+00 -0.00000000000E+00 -0.37259911200E+03  0.37259911200E+03  0.00000000000E+00 0.  1.
         21    1    1    2  503  505  0.55920309660E+02  0.31668068743E+02 -0.23987888168E+03  0.24833812733E+03  0.00000000000E+00 0.  1.
         21    1    1    2  504  506  0.19837612843E+02  0.44189076660E+02 -0.91535468278E+01  0.49294957134E+02  0.00000000000E+00 0. -1.
         21    1    1    2  505  501  0.64191617699E+02 -0.30787981254E+02 -0.52233117084E+02  0.88299275721E+02  0.00000000000E+00 0. -1.
         21    1    1    2  506  502 -0.13994954020E+03 -0.45069164149E+02  0.15735315777E+03  0.21535347599E+03  0.00000000000E+00 0.  1.
<scales pt_clust_3="65.05873" pt_clust_4="48.43764" pt_clust_5="14000.00000" pt_clust_6="101.53149"></scales>
<clustering>
<clus scale="   48.438">  1  4  2 -1</clus>
<clus scale="   65.059">  2  3  1 -1</clus>
<clus scale="  101.531">  1  6  2 -1</clus>
<clus scale="   48.438">  1  3  2 -1</clus>
</clustering>
</event>
<event>
 6    0  0.1221518E+003  0.1017258E+03  0.7546771E-02  0.1276708E+00
         21   -1    0    0  503  501  0.00000000000E+00  0.00000000000E+00  0.40257737558E+02  0.40257737558E+02  0.00000000000E+00 0.  1.
         21   -1    0    0  505  502 -0.00000000000E+00 -0.00000000000E+00 -0.11650111032E+04  0.11650111032E+04  0.00000000000E+00 0.  1.
         21    1    1    2  503  506  0.44409043037E+02 -0.49044136912E+02 -0.25758690222E+03  0.26594830826E+03  0.00000000000E+00 0.  1.
         21    1    1    2  504  501  0.33517467440E+02  0.38473367066E+01 -0.23667871920E+02  0.41211537032E+02  0.00000000000E+00 0.  1.
         21    1    1    2  505  504 -0.12690362941E+03  0.65492779617E+02 -0.16783577133E+03  0.22036942047E+03  0.00000000000E+00 0.  1.
         21    1    1    2  506  502  0.48977118937E+02 -0.20295979412E+02 -0.67566282012E+03  0.67773957495E+03  0.00000000000E+00 0.  1.
<scales pt_clust_3="101.72576" pt_clust_4="33.73756" pt_clust_5="14000.00000" pt_clust_6="53.99119"></scales>
<clustering>
<clus scale="   33.738">  1  4  2 -1</clus>
<clus scale="   53.991">  2  6  1 -1</clus>
<clus scale="  101.726">  2  3  1 -1</clus>
<clus scale="   33.738">  1  3  2 -1</clus>
</clustering>
</event>
<event>
 6    0  0.1221518E+003  0.1050967E+03  0.7546771E-02  0.1269929E+00
         21   -1    0    0  504  501  0.00000000000E+00  0.00000000000E+00  0.97229297756E+03  0.97229297756E+03  0.00000000000E+00 0.  1.
         21   -1    0    0  505  502 -0.00000000000E+00 -0.00000000000E+00 -0.96077833509E+02  0.96077833509E+02  0.00000000000E+00 0.  1.
         21    1    1    2  503  501 -0.37496757514E+02  0.64631347847E+02  0.22579901308E+03  0.23784114920E+03  0.00000000000E+00 0.  1.
         21    1    1    2  504  506  0.11724050082E+03  0.25676479935E+02  0.63249454128E+03  0.64378098869E+03  0.00000000000E+00 0.  1.
         21    1    1    2  505  503 -0.14895877063E+02 -0.66998582488E+02 -0.53859714725E+02  0.87244289665E+02  0.00000000000E+00 0.  1.
         21    1    1    2  506  502 -0.64847866243E+02 -0.23309245295E+02  0.71781304417E+02  0.99504383503E+02  0.00000000000E+00 0.  1.
<scales pt_clust_3="63.76513" pt_clust_4="14000.00000" pt_clust_5="68.63452" pt_clust_6="105.09667"></scales>
<clustering>
<clus scale="   68.635">  2  5  1 -1</clus>
<clus scale="   63.765">  2  3  1 -1</clus>
<clus scale="  105.097">  2  6  1 -1</clus>
<clus scale="  105.097">  1  3  2 -1</clus>
</clustering>
</event>
<event>
 6    0  0.1221518E+003  0.1388112E+03  0.7546771E-02  0.1214938E+00
         21   -1    0    0  503  501  0.00000000000E+00  0.00000000000E+00  0.51320663544E+02  0.51320663544E+02  0.00000000000E+00 0. -1.
         21   -1    0    0  504  502 -0.00000000000E+00 -0.00000000000E+00 -0.14570411003E+04  0.14570411003E+04  0.00000000000E+00 0. -1.
         21    1    1    2  503  505 -0.60174172223E+02  0.13752770580E+03 -0.75166569490E+03  0.76650904610E+03  0.00000000000E+00 0. -1.
         21    1    1    2  504  506 -0.23135747857E+02 -0.40987411377E+02 -0.30406774603E+03  0.30768884429E+03  0.00000000000E+00 0. -1.
         21    1    1    2  505  502  0.29588718119E+02  0.29579654238E+02 -0.27449872412E+03  0.27766886344E+03  0.00000000000E+00 0. -1.
         21    1    1    2  506  501  0.53721201961E+02 -0.12611994866E+03 -0.75488271676E+02  0.15649500998E+03  0.00000000000E+00 0. -1.
<scales pt_clust_3="138.81116" pt_clust_4="36.74244" pt_clust_5="41.83836" pt_clust_6="14000.00000"></scales>
<clustering>
<clus scale="   41.838">  2  5  1 -1</clus>
<clus scale="   36.742">  2  4  1 -1</clus>
<clus scale="  138.811">  2  3  1 -1</clus>
<clus scale="  138.811">  1  3  2 -1</clus>
</clustering>
</event>
<event>
 6    0  0.1221518E+003  0.1552288E+03  0.7546771E-02  0.1194191E+00
         21   -1    0    0  504  501  0.00000000000E+00  0.00000000000E+00  0.76131348529E+03  0.76131348529E+03  0.00000000000E+00 0. -1.
         21   -1    0    0  506  502 -0.00000000000E+00 -0.00000000000E+00 -0.59572514490E+03  0.59572514490E+03  0.00000000000E+00 0. -1.
         21    1    1    2  503  502  0.16226106383E+03  0.10638927497E+03 -0.29912966999E+02  0.19632146153E+03  0.00000000000E+00 0. -1.
         21    1    1    2  504  503 -0.32707498292E+02 -0.16772819920E+02  0.64517224941E+03  0.64621849195E+03  0.00000000000E+00 0. -1.
         21    1    1    2  505  501 -0.12400085435E+03 -0.32157865117E+02 -0.10674443867E+03  0.16674745981E+03  0.00000000000E+00 0. -1.
         21    1    1    2  506  505 -0.55527111943E+01 -0.57458589930E+02 -0.34292650335E+03  0.34775121690E+03  0.00000000000E+00 0. -1.
<scales pt_clust_3="14000.00000" pt_clust_4="36.75742" pt_clust_5="155.22884" pt_clust_6="58.14384"></scales>
<clustering>
<clus scale="   36.757">  1  4  2 -1</clus>
<clus scale="   58.144">  2  6  1 -1</clus>
<clus scale="  155.229">  2  5  1 -1</clus>
<clus scale="   36.757">  1  3  2 -1</clus>
</clustering>
</event>
<event>
 6    0  0.1221518E+003  0.1030708E+03  0.7546771E-02  0.1273968E+00
         21   -1    0    0  504  501  0.00000000000E+00  0.00000000000E+00  0.38823608331E+03  0.38823608331E+03  0.00000000000E+00 0. -1.
         21   -1    0    0  503  502 -0.00000000000E+00 -0.00000000000E+00 -0.24077042270E+03  0.24077042270E+03  0.00000000000E+00 0. -1.
         21    1    1    2  503  506 -0.45034785188E+01  0.56161985968E+02 -0.56259140443E+02  0.79621233789E+02  0.00000000000E+00 0. -1.
         21    1    1    2  504  505  0.61022337456E+02 -0.19483052012E+02 -0.12340119567E+03  0.13903657820E+03  0.00000000000E+00 0. -1.
         21    1    1    2  505  502  0.33632853802E+02  0.20587956528E+02 -0.22066538776E+02  0.45188106205E+02  0.00000000000E+00 0. -1.
         21    1    1    2  506  501 -0.90151712740E+02 -0.57266890483E+02  0.34919253549E+03  0.36516058782E+03  0.00000000000E+00 0. -1.
<scales pt_clust_3="63.25229" pt_clust_4="103.07075" pt_clust_5="39.43390" pt_clust_6="14000.00000"></scales>
<clustering>
<clus scale="   39.434">  2  5  1 -1</clus>
<clus scale="   63.252">  2  3  1 -1</clus>
<clus scale="  103.071">  2  4  1 -1</clus>
<clus scale="  103.071">  1  3  2 -1</clus>
</clustering>
</event>
<event>
 6    0  0.1221518E+003  0.1540130E+03  0.7546771E-02  0.1195627E+00
         21   -1    0    0  506  501  0.00000000000E+00  0.00000000000E+00  0.26910836307E+04  0.26910836307E+04  0.00000000000E+00 0.  1.
         21   -1    0    0  503  502 -0.00000000000E+00 -0.00000000000E+00 -0.26794067805E+03  0.26794067805E+03  0.00000000000E+00 0.  1.
         21    1    1    2  503  501 -0.62319697122E+02  0.15796676375E+03  0.22630032281E+03  0.28292945977E+03  0.00000000000E+00 0.  1.
         21    1    1    2  504  502  0.43378316990E+02 -0.15206569843E+02 -0.23501256389E+03  0.23946570389E+03  0.00000000000E+00 0.  1.
         21    1    1    2  505  504  0.33946276770E+02 -0.66413814804E+02  0.12242965123E+04  0.12265663841E+04  0.00000000000E+00 0.  1.
         21    1    1    2  506  505 -0.15004896638E+02 -0.76346379106E+02  0.12075586814E+04  0.12100627610E+04  0.00000000000E+00 0. -1.
<scales pt_clust_3="145.66176" pt_clust_4="45.96649" pt_clust_5="49.29403" pt_clust_6="49.29403"></scales>
<clustering>
<clus scale="   45.966">  2  4  1 -1</clus>
<clus scale="   49.294">  5  6 -1 -1</clus>
<clus scale="  145.662">  2  3  1 -1</clus>
<clus scale="  154.013">  1  3  2 -1</clus>
</clustering>
</event>
<event>
 6    0  0.1221518E+003  0.1208163E+03  0.7546771E-02  0.1241757E+00
         21   -1    0    0  504  501  0.00000000000E+00  0.00000000000E+00  0.13087244322E+03  0.13087244322E+03  0.00000000000E+00 0.  1.
         21   -1    0    0  505  502 -0.00000000000E+00 -0.00000000000E+00 -0.63795739332E+03  0.63795739332E+03  0.00000000000E+00 0.  1.
         21    1    1    2  503  506 -0.46357178884E+02  0.67632282881E+01 -0.56584523914E+01  0.47188424157E+02  0.00000000000E+00 0.  1.
         21    1    1    2  504  503  0.11257295692E+03 -0.31069222194E+01  0.36385602290E+02  0.11834794316E+03  0.00000000000E+00 0.  1.
         21    1    1    2  505  501 -0.44386881995E+01 -0.63276526388E+02 -0.50869703147E+03  0.51263660674E+03  0.00000000000E+00 0.  1.
         21    1    1    2  506  502 -0.61777089842E+02  0.59620220319E+02 -0.29115068521E+02  0.90656862483E+02  0.00000000000E+00 0.  1.
<scales pt_clust_3="30.38842" pt_clust_4="113.59676" pt_clust_5="63.43202" pt_clust_6="30.38842"></scales>
<clustering>
<clus scale="   30.388">  3  6 -1 -1</clus>
<clus scale="   63.432">  2  5  1 -1</clus>
<clus scale="  113.597">  1  4  2 -1</clus>
<clus scale="  113.597">  1  3  2 -1</clus>
</clustering>
</event>
<event>
 6    0  0.1221518E+003  0.9817457E+02  0.7546771E-02  0.1284182E+00
         21   -1    0    0  504  501  0.00000000000E+00  0.00000000000E+00  0.17809814590E+03  0.17809814590E+03  0.00000000000E+00 0.  1.
         21   -1    0    0  506  502 -0.00000000000E+00 -0.00000000000E+00 -0.11566894114E+03  0.11566894114E+03  0.00000000000E+00 0.  1.
         21    1    1    2  503  505  0.17891467384E+01 -0.92873548628E+02 -0.28484012193E+02  0.97159847836E+02  0.00000000000E+00 0.  1.
         21    1    1    2  504  503 -0.38843276854E+02 -0.33641841465E+01  0.18521214251E+02  0.43164259163E+02  0.00000000000E+00 0. -1.
         21    1    1    2  505  502  0.30576643072E+02 -0.58199684848E+01  0.65214617223E+01  0.31801455905E+02  0.00000000000E+00 0.  1.
         21    1    1    2  506  501  0.64774870442E+01  0.10205770126E+03  0.65870540979E+02  0.12164152413E+03  0.00000000000E+00 0.  1.
<scales pt_clust_3="98.17457" pt_clust_4="35.42001" pt_clust_5="31.12560" pt_clust_6="14000.00000"></scales>
<clustering>
<clus scale="   31.126">  2  5  1 -1</clus>
<clus scale="   35.420">  1  4  2 -1</clus>
<clus scale="   98.175">  2  3  1 -1</clus>
<clus scale="   35.420">  1  3  2 -1</clus>
</clustering>
</event>
<event>
 6    0  0.1221518E+003  0.1403283E+03  0.7546771E-02  0.1212888E+00
         21   -1    0    0  506  501  0.00000000000E+00  0.00000000000E+00  0.63275045832E+02  0.63275045832E+02  0.00000000000E+00 0. -1.
         21   -1    0    0  504  502 -0.00000000000E+00 -0.00000000000E+00 -0.19177243593E+04  0.19177243593E+04  0.00000000000E+00 0. -1.
         21    1    1    2  503  501 -0.12967476508E+03  0.48140733983E+02 -0.26146064712E+03  0.29579510638E+03  0.00000000000E+00 0. -1.
         21    1    1    2  504  505  0.27737118839E+02  0.26266474294E+02 -0.59006342768E+03  0.59129867590E+03  0.00000000000E+00 0. -1.
         21    1    1    2  505  503  0.98665352336E+02 -0.15106102110E+02 -0.10255166075E+04  0.10303627314E+04  0.00000000000E+00 0. -1.
         21    1    1    2  506  502  0.32722939017E+01 -0.59301106167E+02  0.22591368856E+02  0.63542891394E+02  0.00000000000E+00 0. -1.
<scales pt_clust_3="126.91458" pt_clust_4="37.03946" pt_clust_5="37.03946" pt_clust_6="59.39132"></scales>
<clustering>
<clus scale="   37.039">  4  5 -1 -1</clus>
<clus scale="   59.391">  1  6  2 -1</clus>
<clus scale="  126.915">  1  3  2 -1</clus>
<clus scale="   59.391">  1  3  2 -1</clus>
</clustering>
</event>
<event>
 6    0  0.1221518E+003  0.9727354E+02  0.7546771E-02  0.1286136E+00
         21   -1    0    0  503  501  0.00000000000E+00  0.00000000000E+00  0.81100873935E+03  0.81100873935E+03  0.00000000000E+00 0.  1.
         21   -1    0    0  505  502 -0.00000000000E+00 -0.00000000000E+00 -0.98936940382E+03  0.98936940382E+03  0.00000000000E+00 0.  1.
         21    1    1    2  503  504 -0.17241355785E+01 -0.39115623313E+02  0.25294722044E+03  0.25595956899E+03  0.00000000000E+00 0.  1.
         21    1    1    2  504  506 -0.13247332274E+02 -0.40961113696E+02  0.51287654796E+02  0.66960646518E+02  0.00000000000E+00 0.  1.
         21    1    1    2  505  501  0.86566212585E+02  0.13913814421E+02  0.49111479888E+03  0.49887979421E+03  0.00000000000E+00 0.  1.
         21    1    1    2  506  502 -0.71594744733E+02  0.66162922588E+02 -0.97371033859E+03  0.97857813345E+03  0.00000000000E+00 0.  1.
<scales pt_clust_3="39.15360" pt_clust_4="47.07306" pt_clust_5="97.27354" pt_clust_6="14000.00000"></scales>
<clustering>
<clus scale="   39.154">  1  3  2 -1</clus>
<clus scale="   47.073">  1  4  2 -1</clus>
<clus scale="   97.274">  1  5  2 -1</clus>
<clus scale="   39.154">  1  3  2 -1</clus>
</clustering>
</event>
<event>
 6    0  0.1221518E+003  0.1102974E+03  0.7546771E-02  0.1260020E+00
         21   -1    0    0  505  501  0.00000000000E+00  0.00000000000E+00  0.20661126235E+03  0.20661126235E+03  0.00000000000E+00 0. -1.
         21   -1    0    0  503  502 -0.00000000000E+00 -0.00000000000E+00 -0.53403644401E+03  0.53403644401E+03  0.00000000000E+00 0. -1.
         21    1    1    2  503  504  0.50277162617E+01  0.62470582647E+02 -0.37407767642E+03  0.37929139145E+03  0.00000000000E+00 0. -1.
         21    1    1    2  504  501  0.85474517298E+01  0.55982036540E+02 -0.18227400715E+02  0.59491894263E+02  0.00000000000E+00 0. -1.
         21    1    1    2  505  506 -0.55341350540E+02  0.41308182989E+02  0.11071880434E+03  0.13049017088E+03  0.00000000000E+00 0. -1.
         21    1    1    2  506  502  0.41766182548E+02 -0.15976080218E+03 -0.45838908862E+02  0.17137424976E+03  0.00000000000E+00 0. -1.
<scales pt_clust_3="63.46438" pt_clust_4="56.63080" pt_clust_5="14000.00000" pt_clust_6="110.29735"></scales>
<clustering>
<clus scale="   56.631">  1  4  2 -1</clus>
<clus scale="   63.464">  2  3  1 -1</clus>
<clus scale="  110.297">  2  6  1 -1</clus>
<clus scale="   56.631">  1  3  2 -1</clus>
</clustering>
</event>
<event>
 6    0  0.1221518E+003  0.1221896E+03  0.7546771E-02  0.1239528E+00
         21   -1    0    0  504  501  0.00000000000E+00  0.00000000000E+00  0.25313952298E+03  0.25313952298E+03  0.00000000000E+00 0. -1.
         21   -1    0    0  503  502 -0.00000000000E+00 -0.00000000000E+00 -0.18795930016E+03  0.18795930016E+03  0.00000000000E+00 0. -1.
         21    1    1    2  503  505  0.98801461240E+00 -0.44823306143E+02 -0.53360514990E+02  0.69695405203E+02  0.00000000000E+00 0. -1.
         21    1    1    2  504  506 -0.71611349657E+02  0.94828501543E+02  0.12395152915E+03  0.17171083741E+03  0.00000000000E+00 0. -1.
         21    1    1    2  505  501  0.92853932679E+02 -0.90905658775E+02  0.38675400224E+02  0.13557831019E+03  0.00000000000E+00 0. -1.
         21    1    1    2  506  502 -0.22230597635E+02  0.40900463375E+02 -0.44086191565E+02  0.64114270347E+02  0.00000000000E+00 0. -1.
<scales pt_clust_3="44.83419" pt_clust_4="14000.00000" pt_clust_5="122.18961" pt_clust_6="30.77922"></scales>
<clustering>
<clus scale="   44.834">  2  3  1 -1</clus>
<clus scale="   30.779">  2  6  1 -1</clus>
<clus scale="  122.190">  2  5  1 -1</clus>
<clus scale="  122.190">  1  3  2 -1</clus>
</clustering>
</event>
<event>
 6    0  0.1221518E+003  0.1375581E+03  0.7546771E-02  0.1216653E+00
         21   -1    0    0  505  501  0.00000000000E+00  0.00000000000E+00  0.21690246216E+04  0.21690246216E+04  0.00000000000E+00 0.  1.
         21   -1    0    0  501  502 -0.00000000000E+00 -0.00000000000E+00 -0.34334633287E+03  0.34334633287E+03  0.00000000000E+00 0.  1.
         21    1    1    2  503  502 -0.55069793665E+02  0.56084219564E+02 -0.25648135686E+03  0.26825511789E+03  0.00000000000E+00 0.  1.
         21    1    1    2  504  506 -0.69206164171E+02  0.16499936817E+03  0.14079945714E+04  0.14193177931E+04  0.00000000000E+00 0.  1.
         21    1    1    2  505  504  0.27554282607E+01 -0.10869560588E+03  0.64819218670E+03  0.65724838381E+03  0.00000000000E+00 0.  1.
         21    1    1    2  506  503  0.12152052958E+03 -0.11238798185E+03  0.25972887482E+02  0.16754965967E+03  0.00000000000E+00 0.  1.
<scales pt_clust_3="78.60103" pt_clust_4="137.55811" pt_clust_5="14000.00000" pt_clust_6="96.94993"></scales>
<clustering>
<clus scale="   78.601">  2  3  1 -1</clus>
<clus scale="   96.950">  2  6  1 -1</clus>
<clus scale="  137.558">  2  4  1 -1</clus>
<clus scale="  137.558">  1  3  2 -1</clus>
</clustering>
</event>
<event>
 6    0  0.1221518E+003  0.1918025E+03  0.7546771E-02  0.1156846E+00
         21   -1    0    0  504  501  0.00000000000E+00  0.00000000000E+00  0.14860425105E+03  0.14860425105E+03  0.00000000000E+00 0.  1.
         21   -1    0    0  506  502 -0.00000000000E+00 -0.00000000000E+00 -0.42600104895E+03  0.42600104895E+03  0.00000000000E+00 0.  1.
         21    1    1    2  503  502 -0.59750439106E+02  0.28264770859E+02 -0.17048535465E+03  0.18285039895E+03  0.00000000000E+00 0.  1.
         21    1    1    2  504  503 -0.97217258825E+02 -0.13209851030E+03 -0.15884595768E+02  0.16478328865E+03  0.00000000000E+00 0.  1.
         21    1    1    2  505  501  0.13826996883E+02  0.49120490070E+02 -0.50998702008E+01  0.51283691985E+02  0.00000000000E+00 0.  1.
         21    1    1    2  506  505  0.14314070105E+03  0.54713249369E+02 -0.85926977287E+02  0.17568792041E+03  0.00000000000E+00 0.  1.
<scales pt_clust_3="66.09850" pt_clust_4="170.23009" pt_clust_5="50.99722" pt_clust_6="50.99722"></scales>
<clustering>
<clus scale="   50.997">  5  6 -1 -1</clus>
<clus scale="   66.099">  2  3  1 -1</clus>
<clus scale="  170.230">  1  4  2 -1</clus>
<clus scale="  170.230">  1  3  2 -1</clus>
</clustering>
</event>
<event>
 6    0  0.1221518E+003  0.8613072E+02  0.7546771E-02  0.1312502E+00
         21   -1    0    0  503  501  0.00000000000E+00  0.00000000000E+00  0.41409126110E+02  0.41409126110E+02  0.00000000000E+00 0. -1.
         21   -1    0    0  505  502 -0.00000000000E+00 -0.00000000000E+00 -0.91178365506E+03  0.91178365506E+03  0.00000000000E+00 0.  1.
         21    1    1    2  503  506  0.44775514834E+02 -0.11490918344E+02 -0.16281374544E+02  0.49009908081E+02  0.00000000000E+00 0.  1.
         21    1    1    2  504  502  0.50284158529E+02  0.59194298960E+02 -0.42518633514E+03  0.43222202769E+03  0.00000000000E+00 0.  1.
         21    1    1    2  505  501 -0.14282237794E+03 -0.30019969017E+02 -0.32327800543E+03  0.35469437403E+03  0.00000000000E+00 0. -1.
         21    1    1    2  506  504  0.47762704572E+02 -0.17683411599E+02 -0.10562881384E+03  0.11726647137E+03  0.00000000000E+00 0.  1.
<scales pt_clust_3="46.22649" pt_clust_4="86.13072" pt_clust_5="14000.00000" pt_clust_6="61.62384"></scales>
<clustering>
<clus scale="   46.226">  1  3  2 -1</clus>
<clus scale="   61.624">  1  6  2 -1</clus>
<clus scale="   86.131">  2  4  1 -1</clus>
<clus scale="   46.226">  1  3  2 -1</clus>
</clustering>
</event>
<event>
 6    0  0.1221518E+003  0.7872135E+02  0.7546771E-02  0.1332720E+00
         21   -1    0    0  503  501  0.00000000000E+00  0.00000000000E+00  0.19463980197E+03  0.19463980197E+03  0.00000000000E+00 0.  1.
         21   -1    0    0  504  502 -0.00000000000E+00 -0.00000000000E+00 -0.11723522053E+03  0.11723522053E+03  0.00000000000E+00 0.  1.
         21    1    1    2  503  505  0.16291288612E+01  0.34279986443E+02  0.81012709438E+02  0.87981990326E+02  0.00000000000E+00 0.  1.
         21    1    1    2  504  501 -0.70803380405E+01 -0.74216507490E+02 -0.21213811309E+02  0.77512882549E+02  0.00000000000E+00 0.  1.
         21    1    1    2  505  506 -0.37925424918E+02 -0.38578688946E+02  0.16900324823E+02  0.56676927185E+02  0.00000000000E+00 0.  1.
         21    1    1    2  506  502  0.43376634098E+02  0.78515209993E+02  0.70535849001E+00  0.89703222442E+02  0.00000000000E+00 0.  1.
<scales pt_clust_3="34.31868" pt_clust_4="14000.00000" pt_clust_5="46.18803" pt_clust_6="78.72135"></scales>
<clustering>
<clus scale="   34.319">  1  3  2 -1</clus>
<clus scale="   46.188">  1  5  2 -1</clus>
<clus scale="   78.721">  1  6  2 -1</clus>
<clus scale="   34.319">  1  3  2 -1</clus>
</clustering>
</event>
<event>
 6    0  0.1221518E+003  0.1699241E+03  0.7546771E-02  0.1177927E+00
         21   -1    0    0  506  501  0.00000000000E+00  0.00000000000E+00  0.37444432695E+03  0.37444432695E+03  0.00000000000E+00 0. -1.
         21   -1    0    0  505  502 -0.00000000000E+00 -0.00000000000E+00 -0.16296631540E+03  0.16296631540E+03  0.00000000000E+00 0. -1.
         21    1    1    2  503  501 -0.32441903235E+02  0.20236560692E+02  0.98139124414E+02  0.10532465625E+03  0.00000000000E+00 0. -1.
         21    1    1    2  504  502  0.71330249455E+02  0.13744731292E+03  0.90359554174E+02  0.17928920031E+03  0.00000000000E+00 0. -1.
         21    1    1    2  505  503 -0.95631080998E+02 -0.15132269922E+03 -0.21668715224E+02  0.18031471424E+03  0.00000000000E+00 0. -1.
         21    1    1    2  506  504  0.56742734778E+02 -0.63611743921E+01  0.44648048186E+02  0.72482071552E+02  0.00000000000E+00 0. -1.
<scales pt_clust_3="38.23605" pt_clust_4="169.92411" pt_clust_5="14000.00000" pt_clust_6="49.81661"></scales>
<clustering>
<clus scale="   38.236">  1  3  2 -1</clus>
<clus scale="   49.817">  1  6  2 -1</clus>
<clus scale="  169.924">  1  4  2 -1</clus>
<clus scale="   38.236">  1  3  2 -1</clus>
</clustering>
</event>
<event>
 6    0  0.1221518E+003  0.1427719E+03  0.7546771E-02  0.1209647E+00
         21   -1    0    0  502  501  0.00000000000E+00  0.00000000000E+00  0.16853816740E+03  0.16853816740E+03  0.00000000000E+00 0. -1.
         21   -1    0    0  505  502 -0.00000000000E+00 -0.00000000000E+00 -0.11893165848E+04  0.11893165848E+04  0.00000000000E+00 0. -1.
         21    1    1    2  503  501 -0.31321861723E+02 -0.14315487016E+01  0.72984737296E+01  0.32192795347E+02  0.00000000000E+00 0. -1.
         21    1    1    2  504  506 -0.11347772695E+03 -0.12563977273E+02 -0.39382756146E+03  0.41004291995E+03  0.00000000000E+00 0. -1.
         21    1    1    2  505  504 -0.14771101670E+02  0.83672000245E+02 -0.71757552831E+03  0.72258828381E+03  0.00000000000E+00 0. -1.
         21    1    1    2  506  503  0.15957069034E+03 -0.69676474270E+02  0.83326198599E+02  0.19303075314E+03  0.00000000000E+00 0. -1.
<scales pt_clust_3="31.35456" pt_clust_4="142.77186" pt_clust_5="85.03540" pt_clust_6="14000.00000"></scales>
<clustering>
<clus scale="   31.355">  1  3  2 -1</clus>
<clus scale="   85.035">  2  5  1 -1</clus>
<clus scale="  142.772">  2  4  1 -1</clus>
<clus scale="   31.355">  1  3  2 -1</clus>
</clustering>
</event>
<event>
 6    0  0.1221518E+003  0.1142944E+03  0.7546771E-02  0.1252818E+00
         21   -1    0    0  504  501  0.00000000000E+00  0.00000000000E+00  0.43906579193E+03  0.43906579193E+03  0.00000000000E+00 0. -1.
         21   -1    0    0  505  502 -0.00000000000E+00 -0.00000000000E+00 -0.14422947752E+03  0.14422947752E+03  0.00000000000E+00 0. -1.
         21    1    1    2  503  501 -0.11544668070E+03  0.77774226824E+01  0.12257565080E+03  0.16856219789E+03  0.00000000000E+00 0. -1.
         21    1    1    2  504  506  0.11350579668E+03  0.29544252183E+01  0.19295705184E+03  0.22388550280E+03  0.00000000000E+00 0. -1.
         21    1    1    2  505  503 -0.51333494934E+02 -0.65573146483E+02  0.40793923218E+02  0.92731383110E+02  0.00000000000E+00 0. -1.
         21    1    1    2  506  502  0.53274378946E+02  0.54841298583E+02 -0.61490311457E+02  0.98116185644E+02  0.00000000000E+00 0. -1.
<scales pt_clust_3="14000.00000" pt_clust_4="114.29435" pt_clust_5="52.73581" pt_clust_6="76.45736"></scales>
<clustering>
<clus scale="   76.457">  2  6  1 -1</clus>
<clus scale="   52.736">  2  5  1 -1</clus>
<clus scale="  114.294">  1  4  2 -1</clus>
<clus scale="  114.294">  1  3  2 -1</clus>
</clustering>
</event>
<event>
 6    0  0.1221518E+003  0.7290897E+02  0.7546771E-02  0.1350471E+00
         21   -1    0    0  504  501  0.00000000000E+00  0.00000000000E+00  0.88797625273E+02  0.88797625273E+02  0.00000000000E+00 0.  1.
         21   -1    0    0  503  502 -0.00000000000E+00 -0.00000000000E+00 -0.32099700836E+03  0.32099700836E+03  0.00000000000E+00 0.  1.
         21    1    1    2  503  505 -0.35034486445E+02 -0.39115854004E+02 -0.13721767272E+03  0.14692227531E+03  0.00000000000E+00 0.  1.
         21    1    1    2  504  502  0.45243483748E+02 -0.42573407656E+02 -0.72866072270E+02  0.95754542185E+02  0.00000000000E+00 0.  1.
         21    1    1    2  505  506  0.63233015729E+02  0.52897099020E+02 -0.30249372356E+02  0.87815385274E+02  0.00000000000E+00 0.  1.
         21    1    1    2  506  501 -0.73442013032E+02  0.28792162640E+02  0.81337342637E+01  0.79302430862E+02  0.00000000000E+00 0.  1.
<scales pt_clust_3="52.51157" pt_clust_4="14000.00000" pt_clust_5="65.34201" pt_clust_6="72.90897"></scales>
<clustering>
<clus scale="   52.512">  2  3  1 -1</clus>
<clus scale="   65.342">  2  5  1 -1</clus>
<clus scale="   72.909">  1  6  2 -1</clus>
<clus scale="   72.909">  1  3  2 -1</clus>
</clustering>
</event>
<event>
 6    0  0.1221518E+003  0.1397482E+03  0.7546771E-02  0.1213668E+00
         21   -1    0    0  503  501  0.00000000000E+00  0.00000000000E+00  0.99427220635E+03  0.99427220635E+03  0.00000000000E+00 0.  1.
         21   -1    0    0  505  502 -0.00000000000E+00 -0.00000000000E+00 -0.67091872589E+03  0.67091872589E+03  0.00000000000E+00 0. -1.
         21    1    1    2  503  506 -0.91187197465E+02 -0.85932787581E+02  0.86274642311E+03  0.87179753358E+03  0.00000000000E+00 0.  1.
         21    1    1    2  504  501 -0.54368385009E+02  0.88993521470E+02  0.67344401793E+02  0.12414119624E+03  0.00000000000E+00 0. -1.
         21    1    1    2  505  504  0.69116312895E+02 -0.40074385469E+02 -0.28521186450E+02  0.84832064430E+02  0.00000000000E+00 0.  1.
         21    1    1    2  506  502  0.76439269579E+02  0.37013651579E+02 -0.57821615798E+03  0.58442013799E+03  0.00000000000E+00 0. -1.
<scales pt_clust_3="14000.00000" pt_clust_4="101.05532" pt_clust_5="79.89381" pt_clust_6="139.74817"></scales>
<clustering>
<clus scale="   79.894">  2  5  1 -1</clus>
<clus scale="  101.055">  1  4  2 -1</clus>
<clus scale="  139.748">  2  6  1 -1</clus>
<clus scale="  101.055">  1  3  2 -1</clus>
</clustering>
</event>
<event>
 6    0  0.1221518E+003  0.8281022E+02  0.7546771E-02  0.1321260E+00
         21   -1    0    0  503  501  0.00000000000E+00  0.00000000000E+00  0.37066429626E+03  0.37066429626E+03  0.00000000000E+00 0. -1.
         21   -1    0    0  504  502 -0.00000000000E+00 -0.00000000000E+00 -0.79207734582E+02  0.79207734582E+02  0.00000000000E+00 0. -1.
         21    1    1    2  503  502 -0.52720207423E+02  0.11060973204E+03  0.39004676305E+02  0.12858964914E+03  0.00000000000E+00 0. -1.
         21    1    1    2  504  506  0.35384102186E+02 -0.25653185874E+02 -0.52205333046E+01  0.44015617694E+02  0.00000000000E+00 0. -1.
         21    1    1    2  505  501  0.14779161841E+02 -0.36295400685E+02  0.47797233818E+02  0.61809022774E+02  0.00000000000E+00 0. -1.
         21    1    1    2  506  505  0.25569433958E+01 -0.48661145476E+02  0.20987518486E+03  0.21545774123E+03  0.00000000000E+00 0. -1.
<scales pt_clust_3="14000.00000" pt_clust_4="45.76574" pt_clust_5="39.18903" pt_clust_6="82.81022"></scales>
<clustering>
<clus scale="   39.189">  1  5  2 -1</clus>
<clus scale="   45.766">  2  4  1 -1</clus>
<clus scale="   82.810">  1  6  2 -1</clus>
<clus scale="   39.189">  1  3  2 -1</clus>
</clustering>
</event>
<event>
 6    0  0.1221518E+003  0.8745591E+02  0.7546771E-02  0.1309132E+00
         21   -1    0    0  503  501  0.00000000000E+00  0.00000000000E+00  0.16896064292E+03  0.16896064292E+03  0.00000000000E+00 0. -1.
         21   -1    0    0  506  502 -0.00000000000E+00 -0.00000000000E+00 -0.18378527798E+03  0.18378527798E+03  0.00000000000E+00 0. -1.
         21    1    1    2  503  504 -0.10857825887E+03 -0.18620170526E+01  0.35538964569E+02  0.11426164452E+03  0.00000000000E+00 0. -1.
         21    1    1    2  504  502  0.73375974798E+02  0.10585967730E+02 -0.46163752239E+02  0.87333775890E+02  0.00000000000E+00 0. -1.
         21    1    1    2  505  501  0.27545353737E+02  0.55071052546E+02  0.39761712302E+02  0.73297756488E+02  0.00000000000E+00 0. -1.
         21    1    1    2  506  505  0.76569303313E+01 -0.63795003224E+02 -0.43961559695E+02  0.77852744006E+02  0.00000000000E+00 0. -1.
<scales pt_clust_3="87.45591" pt_clust_4="14000.00000" pt_clust_5="61.57570" pt_clust_6="56.73714"></scales>
<clustering>
<clus scale="   61.576">  1  5  2 -1</clus>
<clus scale="   56.737">  2  6  1 -1</clus>
<clus scale="   87.456">  1  3  2 -1</clus>
<clus scale="   61.576">  1  3  2 -1</clus>
</clustering>
</event>
<event>
 6    0  0.1221518E+003  0.9666255E+02  0.7546771E-02  0.1287475E+00
         21   -1    0    0  503  501  0.00000000000E+00  0.00000000000E+00  0.12293190861E+04  0.12293190861E+04  0.00000000000E+00 0. -1.
         21   -1    0    0  501  502 -0.00000000000E+00 -0.00000000000E+00 -0.12229210369E+03  0.12229210369E+03  0.00000000000E+00 0. -1.
         21    1    1    2  503  505 -0.51782424027E+01  0.33571769161E+02  0.62473162220E+03  0.62565443950E+03  0.00000000000E+00 0. -1.
         21    1    1    2  504  506  0.86505689714E+01  0.72671187208E+02  0.13233633556E+03  0.15122446727E+03  0.00000000000E+00 0. -1.
         21    1    1    2  505  504  0.69121299386E+02 -0.33037824756E+02  0.43462553926E+03  0.44132596940E+03  0.00000000000E+00 0. -1.
         21    1    1    2  506  502 -0.72593625955E+02 -0.73205131613E+02 -0.84666514597E+02  0.13340631364E+03  0.00000000000E+00 0. -1.
<scales pt_clust_3="33.96878" pt_clust_4="96.66255" pt_clust_5="65.94352" pt_clust_6="14000.00000"></scales>
<clustering>
<clus scale="   33.969">  1  3  2 -1</clus>
<clus scale="   65.944">  1  5  2 -1</clus>
<clus scale="   96.663">  1  4  2 -1</clus>
<clus scale="   33.969">  1  3  2 -1</clus>
</clustering>
</event>
<event>
 6    0  0.1221518E+003  0.7799655E+02  0.7546771E-02  0.1334835E+00
         21   -1    0    0  505  501  0.00000000000E+00  0.00000000000E+00  0.11025844170E+04  0.11025844170E+04  0.00000000000E+00 0. -1.
         21   -1    0    0  506  502 -0.00000000000E+00 -0.00000000000E+00 -0.98493716442E+02  0.98493716442E+02  0.00000000000E+00 0.  1.
         21    1    1    2  503  501  0.77368453386E+02  0.19817591411E+02  0.35347474068E+01  0.79944411611E+02  0.00000000000E+00 0.  1.
         21    1    1    2  504  502  0.64724225349E+02 -0.37676820616E+02  0.15151924184E+03  0.16901730328E+03  0.00000000000E+00 0.  1.
         21    1    1    2  505  504 -0.63919598476E+02 -0.77080090221E+01  0.86578922675E+03  0.86817977034E+03  0.00000000000E+00 0. -1.
         21    1    1    2  506  503 -0.78173080258E+02  0.25567238227E+02 -0.16752515400E+02  0.83936648252E+02  0.00000000000E+00 0.  1.
<scales pt_clust_3="77.99655" pt_clust_4="47.88937" pt_clust_5="64.38267" pt_clust_6="14000.00000"></scales>
<clustering>
<clus scale="   64.383">  1  5  2 -1</clus>
<clus scale="   47.889">  1  4  2 -1</clus>
<clus scale="   77.997">  1  3  2 -1</clus>
<clus scale="   64.383">  1  3  2 -1</clus>
</clustering>
</event>
<event>
 6    0  0.1221518E+003  0.1150428E+03  0.7546771E-02  0.1251506E+00
         21   -1    0    0  503  501  0.00000000000E+00  0.00000000000E+00  0.85057870192E+02  0.85057870192E+02  0.00000000000E+00 0. -1.
         21   -1    0    0  504  502 -0.00000000000E+00 -0.00000000000E+00 -0.11358347677E+04  0.11358347677E+04  0.00000000000E+00 0. -1.
         21    1    1    2  503  506 -0.40727708273E+02  0.31093134416E+02  0.44280176199E+02  0.67721955326E+02  0.00000000000E+00 0. -1.
         21    1    1    2  504  505  0.14603636343E+03 -0.75305285651E+02 -0.33314917128E+03  0.37146450142E+03  0.00000000000E+00 0. -1.
         21    1    1    2  505  501 -0.28665714077E+02 -0.28768329172E+02 -0.63850143051E+02  0.75671531600E+02  0.00000000000E+00 0. -1.
         21    1    1    2  506  502 -0.76642941077E+02  0.72980480407E+02 -0.69805775936E+03  0.70603464953E+03  0.00000000000E+00 0. -1.
<scales pt_clust_3="61.94805" pt_clust_4="14000.00000" pt_clust_5="40.61207" pt_clust_6="115.04277"></scales>
<clustering>
<clus scale="   40.612">  1  5  2 -1</clus>
<clus scale="   61.948">  1  3  2 -1</clus>
<clus scale="  115.043">  2  6  1 -1</clus>
<clus scale="   40.612">  1  3  2 -1</clus>
</clustering>
</event>
<event>
 6    0  0.1221518E+003  0.1104095E+03  0.7546771E-02  0.1259813E+00
         21   -1    0    0  506  501  0.00000000000E+00  0.00000000000E+00  0.64386948163E+03  0.64386948163E+03  0.00000000000E+00 0. -1.
         21   -1    0    0  505  502 -0.00000000000E+00 -0.00000000000E+00 -0.43300311080E+03  0.43300311080E+03  0.00000000000E+00 0.  1.
         21    1    1    2  503  504  0.39965788786E+02 -0.86085048519E+02 -0.77540865028E+02  0.12255809072E+03  0.00000000000E+00 0. -1.
         21    1    1    2  504  502  0.32878942357E+02 -0.50219018306E+01 -0.31954403085E+03  0.32127034099E+03  0.00000000000E+00 0.  1.
         21    1    1    2  505  501  0.18893095838E+02  0.74262819814E+02  0.19121675743E+03  0.20599942670E+03  0.00000000000E+00 0. -1.
         21    1    1    2  506  503 -0.91737826981E+02  0.16844130535E+02  0.41673450927E+03  0.42704473402E+03  0.00000000000E+00 0. -1.
<scales pt_clust_3="14000.00000" pt_clust_4="33.26025" pt_clust_5="76.87181" pt_clust_6="110.40955"></scales>
<clustering>
<clus scale="   33.260">  2  4  1 -1</clus>
<clus scale="   76.872">  1  5  2 -1</clus>
<clus scale="  110.410">  1  6  2 -1</clus>
<clus scale="   76.872">  1  3  2 -1</clus>
</clustering>
</event>
<event>
 6    0  0.1221518E+003  0.8146084E+02  0.7546771E-02  0.1324956E+00
         21   -1    0    0  506  501  0.00000000000E+00  0.00000000000E+00  0.18644163861E+03  0.18644163861E+03  0.00000000000E+00 0. -1.
         21   -1    0    0  504  502 -0.00000000000E+00 -0.00000000000E+00 -0.10705090871E+03  0.10705090871E+03  0.00000000000E+00 0. -1.
         21    1    1    2  503  501 -0.29963177895E+02  0.19657981538E+02  0.40338230436E+02  0.53957400813E+02  0.00000000000E+00 0.  1.
         21    1    1    2  504  503 -0.91437608096E+02  0.14133575606E+02 -0.61515738334E+01  0.92727752018E+02  0.00000000000E+00 0. -1.
         21    1    1    2  505  502  0.64706987872E+02 -0.36820653274E+02  0.34696975854E+00  0.74450488078E+02  0.00000000000E+00 0. -1.
         21    1    1    2  506  505  0.56693798119E+02  0.30290961298E+01  0.44857103532E+02  0.72356906414E+02  0.00000000000E+00 0. -1.
<scales pt_clust_3="35.83613" pt_clust_4="14000.00000" pt_clust_5="81.46084" pt_clust_6="45.51212"></scales>
<clustering>
<clus scale="   35.836">  1  3  2 -1</clus>
<clus scale="   45.512">  1  6  2 -1</clus>
<clus scale="   81.461">  2  5  1 -1</clus>
<clus scale="   35.836">  1  3  2 -1</clus>
</clustering>
</event>
<event>
 6    0  0.1221518E+003  0.1573939E+03  0.7546771E-02  0.1191671E+00
         21   -1    0    0  504  501  0.00000000000E+00  0.00000000000E+00  0.37383616448E+03  0.37383616448E+03  0.00000000000E+00 0.  1.
         21   -1    0    0  506  502 -0.00000000000E+00 -0.00000000000E+00 -0.51114366500E+03  0.51114366500E+03  0.00000000000E+00 0.  1.
         21    1    1    2  503  502  0.65253736617E+02 -0.21595617979E+01 -0.17770683886E+03  0.18932098253E+03  0.00000000000E+00 0.  1.
         21    1    1    2  504  503  0.57006044141E+02  0.73296802549E+02 -0.30036217652E+03  0.31438757517E+03  0.00000000000E+00 0.  1.
         21    1    1    2  505  501 -0.22759660290E+02 -0.34997405733E+02  0.25991238752E+02  0.49176875017E+02  0.00000000000E+00 0.  1.
         21    1    1    2  506  505 -0.99500120468E+02 -0.36139835019E+02  0.31477027610E+03  0.33209439677E+03  0.00000000000E+00 0.  1.
<scales pt_clust_3="60.37139" pt_clust_4="60.37139" pt_clust_5="41.74710" pt_clust_6="140.03029"></scales>
<clustering>
<clus scale="   41.747">  1  5  2 -1</clus>
<clus scale="   60.371">  3  4 -1 -1</clus>
<clus scale="  140.030">  1  6  2 -1</clus>
<clus scale="   41.747">  1  3  2 -1</clus>
</clustering>
</event>
<event>
 6    0  0.1221518E+003  0.1538745E+03  0.7546771E-02  0.1195791E+00
         21   -1    0    0  506  501  0.00000000000E+00  0.00000000000E+00  0.31107072384E+04  0.31107072384E+04  0.00000000000E+00 0.  1.
         21   -1    0    0  504  502 -0.00000000000E+00 -0.00000000000E+00 -0.22500056946E+03  0.22500056946E+03  0.00000000000E+00 0.  1.
         21    1    1    2  503  502  0.22263610329E+01 -0.31304793387E+02 -0.27473041751E+02  0.41709888462E+02  0.00000000000E+00 0.  1.
         21    1    1    2  504  505  0.15332592792E+03  0.25457935732E+02 -0.15272229447E+03  0.21790145913E+03  0.00000000000E+00 0.  1.
         21    1    1    2  505  501 -0.42774262054E+02 -0.57756824805E+02  0.21376540363E+04  0.21388619093E+04  0.00000000000E+00 0.  1.
         21    1    1    2  506  503 -0.11277802689E+03  0.63603682460E+02  0.92824796887E+03  0.93723455094E+03  0.00000000000E+00 0.  1.
<scales pt_clust_3="31.38386" pt_clust_4="14000.00000" pt_clust_5="71.94695" pt_clust_6="153.87451"></scales>
<clustering>
<clus scale="   31.384">  2  3  1 -1</clus>
<clus scale="   71.947">  1  5  2 -1</clus>
<clus scale="  153.875">  1  6  2 -1</clus>
<clus scale="   71.947">  1  3  2 -1</clus>
</clustering>
</event>
<event>
 6    0  0.1221518E+003  0.1385960E+03  0.7546771E-02  0.1215231E+00
         21   -1    0    0  506  501  0.00000000000E+00  0.00000000000E+00  0.17983576453E+04  0.17983576453E+04  0.00000000000E+00 0.  1.
         21   -1    0    0  503  502 -0.00000000000E+00 -0.00000000000E+00 -0.20562036685E+04  0.20562036685E+04  0.00000000000E+00 0. -1.
         21    1    1    2  503  505  0.14438442946E+02  0.28634251028E+02 -0.18757443829E+04  0.18760184911E+04  0.00000000000E+00 0. -1.
         21    1    1    2  504  502 -0.26872406415E+02 -0.43940839840E+02 -0.96716871114E+02  0.10957680772E+03  0.00000000000E+00 0.  1.
         21    1    1    2  505  501 -0.13096895103E+03 -0.43475022809E+02  0.17082895337E+04  0.17138541579E+04  0.00000000000E+00 0.  1.
         21    1    1    2  506  504  0.14340291450E+03  0.58781611621E+02  0.63256970772E+01  0.15511185704E+03  0.00000000000E+00 0.  1.
<scales pt_clust_3="32.06850" pt_clust_4="33.25814" pt_clust_5="14000.00000" pt_clust_6="138.59599"></scales>
<clustering>
<clus scale="   32.069">  2  3  1 -1</clus>
<clus scale="   33.258">  2  4  1 -1</clus>
<clus scale="  138.596">  2  6  1 -1</clus>
<clus scale="  138.596">  1  3  2 -1</clus>
</clustering>
</event>
<event>
 6    0  0.1221518E+003  0.6151062E+02  0.7546771E-02  0.1391600E+00
         21   -1    0    0  505  501  0.00000000000E+00  0.00000000000E+00  0.18018490525E+03  0.18018490525E+03  0.00000000000E+00 0.  1.
         21   -1    0    0  506  502 -0.00000000000E+00 -0.00000000000E+00 -0.55291354418E+03  0.55291354418E+03  0.00000000000E+00 0.  1.
         21    1    1    2  503  504 -0.64243033673E+02  0.26319207547E+02 -0.41550922410E+02  0.80909500150E+02  0.00000000000E+00 0.  1.
         21    1    1    2  504  501 -0.44056057072E+02 -0.58356187973E+02  0.10484001605E+03  0.12781944220E+03  0.00000000000E+00 0.  1.
         21    1    1    2  505  502  0.47073815009E+02  0.29980045059E+02  0.23667078627E+02  0.60620770137E+02  0.00000000000E+00 0.  1.
         21    1    1    2  506  503  0.61225275736E+02  0.20569353669E+01 -0.45968481120E+03  0.46374873695E+03  0.00000000000E+00 0.  1.
<scales pt_clust_3="61.51062" pt_clust_4="33.38085" pt_clust_5="55.80992" pt_clust_6="14000.00000"></scales>
<clustering>
<clus scale="   55.810">  1  5  2 -1</clus>
<clus scale="   33.381">  1  4  2 -1</clus>
<clus scale="   61.511">  1  3  2 -1</clus>
<clus scale="   55.810">  1  3  2 -1</clus>
</clustering>
</event>
<event>
 6    0  0.1221518E+003  0.1188082E+03  0.7546771E-02  0.1245076E+00
         21   -1    0    0  503  501  0.00000000000E+00  0.00000000000E+00  0.81385651459E+02  0.81385651459E+02  0.00000000000E+00 0.  1.
         21   -1    0    0  506  502 -0.00000000000E+00 -0.00000000000E+00 -0.18009552946E+04  0.18009552946E+04  0.00000000000E+00 0. -1.
         21    1    1    2  503  505  0.10121238925E+03 -0.54876667528E+02 -0.94016211999E+00  0.11513592090E+03  0.00000000000E+00 0.  1.
         21    1    1    2  504  501 -0.23356464875E+02  0.48422878432E+02 -0.35618144751E+02  0.64489935979E+02  0.00000000000E+00 0.  1.
         21    1    1    2  505  502  0.54390103722E+02  0.62406568674E+02 -0.26946964722E+03  0.28189848167E+03  0.00000000000E+00 0.  1.
         21    1    1    2  506  504 -0.13224602810E+03 -0.55952779577E+02 -0.14135416891E+04  0.14208166076E+04  0.00000000000E+00 0. -1.
<scales pt_clust_3="82.41927" pt_clust_4="53.76151" pt_clust_5="118.80821" pt_clust_6="14000.00000"></scales>
<clustering>
<clus scale="   53.762">  1  4  2 -1</clus>
<clus scale="   82.419">  1  3  2 -1</clus>
<clus scale="  118.808">  1  5  2 -1</clus>
<clus scale="   53.762">  1  3  2 -1</clus>
</clustering>
</event>
<event>
 6    0  0.1221518E+003  0.1098722E+03  0.7546771E-02  0.1260807E+00
         21   -1    0    0  503  501  0.00000000000E+00  0.00000000000E+00  0.21364847096E+04  0.21364847096E+04  0.00000000000E+00 0. -1.
         21   -1    0    0  505  502 -0.00000000000E+00 -0.00000000000E+00 -0.41195461085E+02  0.41195461085E+02  0.00000000000E+00 0.  1.
         21    1    1    2  503  506 -0.78470836527E+02  0.33739909422E+02  0.90970818721E+03  0.91370949406E+03  0.00000000000E+00 0. -1.
         21    1    1    2  504  501  0.44372732876E+02 -0.38719769343E+02  0.59945888984E+03  0.60234468585E+03  0.00000000000E+00 0. -1.
         21    1    1    2  505  504  0.81322826240E+02 -0.37076004737E+02  0.59145048534E+03  0.59816528553E+03  0.00000000000E+00 0. -1.
         21    1    1    2  506  502 -0.47224722589E+02  0.42055864659E+02 -0.53283139180E+01  0.63460705204E+02  0.00000000000E+00 0.  1.
<scales pt_clust_3="103.23378" pt_clust_4="30.53119" pt_clust_5="30.53119" pt_clust_6="63.23662"></scales>
<clustering>
<clus scale="   30.531">  4  5 -1 -1</clus>
<clus scale="   63.237">  2  6  1 -1</clus>
<clus scale="  103.234">  1  3  2 -1</clus>
<clus scale="  103.234">  1  3  2 -1</clus>
</clustering>
</event>
<event>
 6    0  0.1221518E+003  0.6251615E+02  0.7546771E-02  0.1387566E+00
         21   -1    0    0  504  501  0.00000000000E+00  0.00000000000E+00  0.13414208649E+03  0.13414208649E+03  0.00000000000E+00 0.  1.
         21   -1    0    0  506  502 -0.00000000000E+00 -0.00000000000E+00 -0.67970821818E+03  0.67970821818E+03  0.00000000000E+00 0.  1.
         21    1    1    2  503  502  0.28768196779E+02  0.18288560573E+02 -0.20113629145E+03  0.20400462821E+03  0.00000000000E+00 0. -1.
         21    1    1    2  504  503 -0.20643968525E+02  0.70143878795E+02 -0.15259219298E+02  0.74693915029E+02  0.00000000000E+00 0.  1.
         21    1    1    2  505  501  0.58177702063E+02 -0.28118186879E+02  0.87599267151E+02  0.10885269430E+03  0.00000000000E+00 0.  1.
         21    1    1    2  506  505 -0.66301930317E+02 -0.60314252489E+02 -0.41676988810E+03  0.42629906714E+03  0.00000000000E+00 0.  1.
<scales pt_clust_3="34.08930" pt_clust_4="14000.00000" pt_clust_5="62.51615" pt_clust_6="60.17907"></scales>
<clustering>
<clus scale="   34.089">  2  3  1 -1</clus>
<clus scale="   60.179">  2  6  1 -1</clus>
<clus scale="   62.516">  1  5  2 -1</clus>
<clus scale="   62.516">  1  3  2 -1</clus>
</clustering>
</event>
<event>
 6    0  0.1221518E+003  0.2347929E+03  0.7546771E-02  0.1123311E+00
         21   -1    0    0  505  501  0.00000000000E+00  0.00000000000E+00  0.99963872365E+03  0.99963872365E+03  0.00000000000E+00 0. -1.
         21   -1    0    0  503  502 -0.00000000000E+00 -0.00000000000E+00 -0.92421810330E+03  0.92421810330E+03  0.00000000000E+00 0.  1.
         21    1    1    2  503  506 -0.13100558394E+02 -0.27475973565E+02 -0.41294129359E+02  0.51300671274E+02  0.00000000000E+00 0.  1.
         21    1    1    2  504  501  0.81324852926E+02 -0.45055538561E+02  0.48089710402E+03  0.48980175368E+03  0.00000000000E+00 0. -1.
         21    1    1    2  505  502 -0.20428111594E+03  0.95328452949E+02 -0.84914155677E+03  0.87855544601E+03  0.00000000000E+00 0.  1.
         21    1    1    2  506  504  0.13605682141E+03 -0.22796940823E+02  0.48495920246E+03  0.50419895598E+03  0.00000000000E+00 0. -1.
<scales pt_clust_3="30.43935" pt_clust_4="47.17903" pt_clust_5="227.65645" pt_clust_6="47.17903"></scales>
<clustering>
<clus scale="   30.439">  2  3  1 -1</clus>
<clus scale="   47.179">  4  6 -1 -1</clus>
<clus scale="  227.656">  2  5  1 -1</clus>
<clus scale="  234.793">  1  3  2 -1</clus>
</clustering>
</event>
<event>
 6    0  0.1221518E+003  0.8008204E+02  0.7546771E-02  0.1328819E+00
         21   -1    0    0  503  501  0.00000000000E+00  0.00000000000E+00  0.55944062188E+03  0.55944062188E+03  0.00000000000E+00 0. -1.
         21   -1    0    0  504  502 -0.00000000000E+00 -0.00000000000E+00 -0.77949419402E+03  0.77949419402E+03  0.00000000000E+00 0. -1.
         21    1    1    2  503  502 -0.18427679083E+02  0.51449606040E+02  0.19909706733E+02  0.58163886908E+02  0.00000000000E+00 0. -1.
         21    1    1    2  504  506 -0.95184188198E+02 -0.85095248094E+01 -0.53912979154E+03  0.54753390198E+03  0.00000000000E+00 0. -1.
         21    1    1    2  505  501  0.53680126151E+02 -0.65060959576E+02  0.50794641502E+03  0.51490197604E+03  0.00000000000E+00 0. -1.
         21    1    1    2  506  505  0.59931741130E+02  0.22120878345E+02 -0.20877990235E+03  0.21833505096E+03  0.00000000000E+00 0. -1.
<scales pt_clust_3="54.65017" pt_clust_4="80.08204" pt_clust_5="38.41197" pt_clust_6="14000.00000"></scales>
<clustering>
<clus scale="   54.650">  1  3  2 -1</clus>
<clus scale="   38.412">  1  5  2 -1</clus>
<clus scale="   80.082">  2  4  1 -1</clus>
<clus scale="   54.650">  1  3  2 -1</clus>
</clustering>
</event>
<event>
 6    0  0.1873876E+003  0.1240345E+03  0.7546771E-02  0.1236586E+00
         21   -1    0    0  503  501  0.00000000000E+00  0.00000000000E+00  0.16343936806E+04  0.16343936806E+04  0.00000000000E+00 0.  1.
         21   -1    0    0  505  502 -0.00000000000E+00 -0.00000000000E+00 -0.87167779136E+03  0.87167779136E+03  0.00000000000E+00 0.  1.
         21    1    1    2  503  502 -0.12186560968E+02 -0.31314801798E+02  0.13061569816E+04  0.13065891434E+04  0.00000000000E+00 0.  1.
         21    1    1    2  504  506  0.85246835552E+02  0.79040883843E+02 -0.58904693700E+02  0.13032362499E+03  0.00000000000E+00 0. -1.
         21    1    1    2  505  504 -0.37497998588E+02  0.43371044923E+02 -0.76756928517E+03  0.76970757757E+03  0.00000000000E+00 0.  1.
         21    1    1    2  506  501 -0.35562275996E+02 -0.91097126969E+02  0.28303288655E+03  0.29945112603E+03  0.00000000000E+00 0.  1.
<scales pt_clust_3="33.60252" pt_clust_4="124.03447" pt_clust_5="57.28250" pt_clust_6="14000.00000"></scales>
<clustering>
<clus scale="   33.603">  1  3  2 -1</clus>
<clus scale="   57.283">  2  5  1 -1</clus>
<clus scale="  124.034">  2  4  1 -1</clus>
<clus scale="   33.603">  1  3  2 -1</clus>
</clustering>
</event>
<event>
 6    0  0.1221518E+003  0.1164313E+03  0.7546771E-02  0.1249103E+00
         21   -1    0    0  504  501  0.00000000000E+00  0.00000000000E+00  0.62380493882E+03  0.62380493882E+03  0.00000000000E+00 0. -1.
         21   -1    0    0  503  502 -0.00000000000E+00 -0.00000000000E+00 -0.13059063793E+03  0.13059063793E+03  0.00000000000E+00 0. -1.
         21    1    1    2  503  505  0.32977305628E+02 -0.85203697970E+02  0.37984289736E+02  0.98944323238E+02  0.00000000000E+00 0. -1.
         21    1    1    2  504  506  0.33638973896E+02  0.95976681583E+02  0.14962683544E+03  0.18091792022E+03  0.00000000000E+00 0. -1.
         21    1    1    2  505  501 -0.89715908391E+02 -0.14864500759E+03  0.28430421303E+03  0.33312635448E+03  0.00000000000E+00 0. -1.
         21    1    1    2  506  502  0.23099628866E+02  0.13787202397E+03  0.21298962685E+02  0.14140697882E+03  0.00000000000E+00 0. -1.
<scales pt_clust_3="91.36286" pt_clust_4="91.31096" pt_clust_5="14000.00000" pt_clust_6="116.43129"></scales>
<clustering>
<clus scale="   91.363">  2  3  1 -1</clus>
<clus scale="   91.311">  1  4  2 -1</clus>
<clus scale="  116.431">  2  6  1 -1</clus>
<clus scale="   91.311">  1  3  2 -1</clus>
</clustering>
</event>
<event>
 6    0  0.1568722E+003  0.9835426E+02  0.7546771E-02  0.1283795E+00
         21   -1    0    0  504  501  0.00000000000E+00  0.00000000000E+00  0.15089254561E+04  0.15089254561E+04  0.00000000000E+00 0.  1.
         21   -1    0    0  505  502 -0.00000000000E+00 -0.00000000000E+00 -0.46235884543E+03  0.46235884543E+03  0.00000000000E+00 0.  1.
         21    1    1    2  503  501  0.58428531735E+02  0.87535132503E+02  0.94836229538E+03  0.95418412061E+03  0.00000000000E+00 0.  1.
         21    1    1    2  504  502  0.40993698104E+02 -0.66254998145E+02  0.54130494143E+03  0.54688321210E+03  0.00000000000E+00 0. -1.
         21    1    1    2  505  506 -0.37544387675E+02 -0.45890501835E+01 -0.37424000972E+03  0.37614654765E+03  0.00000000000E+00 0.  1.
         21    1    1    2  506  503 -0.61877842164E+02 -0.16691084175E+02 -0.68860616418E+02  0.94070421150E+02  0.00000000000E+00 0.  1.
<scales pt_clust_3="98.35426" pt_clust_4="77.41211" pt_clust_5="37.82381" pt_clust_6="14000.00000"></scales>
<clustering>
<clus scale="   37.824">  2  5  1 -1</clus>
<clus scale="   77.412">  1  4  2 -1</clus>
<clus scale="   98.354">  1  3  2 -1</clus>
<clus scale="   77.412">  1  3  2 -1</clus>
</clustering>
</event>
<event>
 6    0  0.1221518E+003  0.1073738E+03  0.7546771E-02  0.1265512E+00
         21   -1    0    0  506  501  0.00000000000E+00  0.00000000000E+00  0.15673360661E+03  0.15673360661E+03  0.00000000000E+00 0. -1.
         21   -1    0    0  505  502 -0.00000000000E+00 -0.00000000000E+00 -0.20618701766E+03  0.20618701766E+03  0.00000000000E+00 0.  1.
         21    1    1    2  503  501 -0.10967772796E+03 -0.47438934041E+02  0.49881073140E+02  0.12949045498E+03  0.00000000000E+00 0. -1.
         21    1    1    2  504  502  0.41557478954E+02 -0.45494365938E+01 -0.63958038782E+02  0.76409110420E+02  0.00000000000E+00 0.  1.
         21    1    1    2  505  503  0.23239618595E+02 -0.42446340001E+02 -0.96314575266E+01  0.49341023763E+02  0.00000000000E+00 0.  1.
         21    1    1    2  506  504  0.44880630415E+02  0.94434710636E+02 -0.25744987873E+02  0.10768003510E+03  0.00000000000E+00 0.  1.
<scales pt_clust_3="14000.00000" pt_clust_4="41.80576" pt_clust_5="54.09647" pt_clust_6="107.37380"></scales>
<clustering>
<clus scale="   41.806">  2  4  1 -1</clus>
<clus scale="   54.096">  2  5  1 -1</clus>
<clus scale="  107.374">  2  6  1 -1</clus>
<clus scale="  107.374">  1  3  2 -1</clus>
</clustering>
</event>
<event>
 6    0  0.1221518E+003  0.1478249E+03  0.7546771E-02  0.1203171E+00
         21   -1    0    0  504  501  0.00000000000E+00  0.00000000000E+00  0.22852705203E+03  0.22852705203E+03  0.00000000000E+00 0.  1.
         21   -1    0    0  506  502 -0.00000000000E+00 -0.00000000000E+00 -0.12151101992E+04  0.12151101992E+04  0.00000000000E+00 0.  1.
         21    1    1    2  503  505 -0.74831623231E+01  0.35358576610E+02 -0.15168674160E+03  0.15593297995E+03  0.00000000000E+00 0. -1.
         21    1    1    2  504  503  0.38871698112E+01 -0.18006031968E+03  0.68869505145E+01  0.18023390053E+03  0.00000000000E+00 0. -1.
         21    1    1    2  505  502  0.16135329479E+02  0.99286457261E+02 -0.96775902132E+03  0.97297259612E+03  0.00000000000E+00 0.  1.
         21    1    1    2  506  501 -0.12539336967E+02  0.45415285812E+02  0.12597566522E+03  0.13449777465E+03  0.00000000000E+00 0.  1.
<scales pt_clust_3="33.18434" pt_clust_4="137.06702" pt_clust_5="33.18434" pt_clust_6="47.11457"></scales>
<clustering>
<clus scale="   33.184">  3  5 -1 -1</clus>
<clus scale="   47.115">  1  6  2 -1</clus>
<clus scale="  137.067">  1  4  2 -1</clus>
<clus scale="   47.115">  1  3  2 -1</clus>
</clustering>
</event>
<event>
 6    0  0.1221518E+003  0.1083916E+03  0.7546771E-02  0.1263578E+00
         21   -1    0    0  506  501  0.00000000000E+00  0.00000000000E+00  0.30715471151E+03  0.30715471151E+03  0.00000000000E+00 0.  1.
         21   -1    0    0  504  502 -0.00000000000E+00 -0.00000000000E+00 -0.12534720625E+04  0.12534720625E+04  0.00000000000E+00 0.  1.
         21    1    1    2  503  505  0.59845786349E+02  0.66018292183E+02 -0.13567332013E+03  0.16231815315E+03  0.00000000000E+00 0.  1.
         21    1    1    2  504  501 -0.62368237385E+02  0.49860981498E+02 -0.30959635482E+03  0.31972772389E+03  0.00000000000E+00 0.  1.
         21    1    1    2  505  502 -0.25115241389E+02 -0.13506686854E+03 -0.78283180456E+03  0.79479523688E+03  0.00000000000E+00 0.  1.
         21    1    1    2  506  503  0.27637692425E+02  0.19187594859E+02  0.28178412847E+03  0.28378566014E+03  0.00000000000E+00 0.  1.
<scales pt_clust_3="14000.00000" pt_clust_4="78.14063" pt_clust_5="108.39156" pt_clust_6="33.64529"></scales>
<clustering>
<clus scale="   33.645">  1  6  2 -1</clus>
<clus scale="   78.141">  2  4  1 -1</clus>
<clus scale="  108.392">  2  5  1 -1</clus>
<clus scale="   33.645">  1  3  2 -1</clus>
</clustering>
</event>
<event>
 6    0  0.1221518E+003  0.8319317E+02  0.7546771E-02  0.1320226E+00
         21   -1    0    0  506  501  0.00000000000E+00  0.00000000000E+00  0.80000963025E+02  0.80000963025E+02  0.00000000000E+00 0. -1.
         21   -1    0    0  503  502 -0.00000000000E+00 -0.00000000000E+00 -0.35446794840E+03  0.35446794840E+03  0.00000000000E+00 0.  1.
         21    1    1    2  503  505  0.60085893543E+02  0.24159170938E+02 -0.86592950673E+02  0.10813102815E+03  0.00000000000E+00 0.  1.
         21    1    1    2  504  502  0.26239258479E+02 -0.43228409419E+02 -0.10752766427E+03  0.11882505060E+03  0.00000000000E+00 0.  1.
         21    1    1    2  505  501 -0.10723679255E+03 -0.19178706086E+02 -0.10998186577E+03  0.15480169005E+03  0.00000000000E+00 0. -1.
         21    1    1    2  506  504  0.20911640527E+02  0.38247944566E+02  0.29635495336E+02  0.52711142626E+02  0.00000000000E+00 0.  1.
<scales pt_clust_3="14000.00000" pt_clust_4="47.70731" pt_clust_5="83.19317" pt_clust_6="43.59131"></scales>
<clustering>
<clus scale="   43.591">  1  6  2 -1</clus>
<clus scale="   47.707">  2  4  1 -1</clus>
<clus scale="   83.193">  1  5  2 -1</clus>
<clus scale="   43.591">  1  3  2 -1</clus>
</clustering>
</event>
<event>
 6    0  0.1221518E+003  0.1079885E+03  0.7546771E-02  0.1264341E+00
         21   -1    0    0  503  501  0.00000000000E+00  0.00000000000E+00  0.13820219100E+04  0.13820219100E+04  0.00000000000E+00 0.  1.
         21   -1    0    0  505  502 -0.00000000000E+00 -0.00000000000E+00 -0.53628546532E+03  0.53628546532E+03  0.00000000000E+00 0.  1.
         21    1    1    2  503  504  0.25359220929E+02 -0.57563471718E+02  0.73464874586E+02  0.96714689475E+02  0.00000000000E+00 0.  1.
         21    1    1    2  504  502 -0.85894802934E+00 -0.33846505712E+02 -0.11991765736E+02  0.35918326605E+02  0.00000000000E+00 0. -1.
         21    1    1    2  505  506  0.54182217352E+02  0.12748596783E+03 -0.48962796731E+03  0.50884568491E+03  0.00000000000E+00 0.  1.
         21    1    1    2  506  501 -0.78682490251E+02 -0.36075990401E+02  0.12738913031E+04  0.12768286743E+04  0.00000000000E+00 0.  1.
<scales pt_clust_3="63.59765" pt_clust_4="33.85740" pt_clust_5="14000.00000" pt_clust_6="107.98848"></scales>
<clustering>
<clus scale="   33.857">  2  4  1 -1</clus>
<clus scale="   63.598">  1  3  2 -1</clus>
<clus scale="  107.988">  1  6  2 -1</clus>
<clus scale="   63.598">  1  3  2 -1</clus>
</clustering>
</event>
<event>
 6    0  0.1221518E+003  0.6904460E+02  0.7546771E-02  0.1363372E+00
         21   -1    0    0  503  501  0.00000000000E+00  0.00000000000E+00  0.36797310940E+03  0.36797310940E+03  0.00000000000E+00 0.  1.
         21   -1    0    0  504  502 -0.00000000000E+00 -0.00000000000E+00 -0.20658489099E+03  0.20658489099E+03  0.00000000000E+00 0.  1.
         21    1    1    2  503  502  0.55731226543E+02  0.10727548032E+03 -0.59835320130E+01  0.12103636208E+03  0.00000000000E+00 0.  1.
         21    1    1    2  504  505 -0.29063696812E+02 -0.40449143754E+02 -0.12598787804E+03  0.13547611271E+03  0.00000000000E+00 0.  1.
         21    1    1    2  505  506  0.17976213752E+01 -0.45454019399E+02  0.35397849093E+02  0.57639457340E+02  0.00000000000E+00 0.  1.
         21    1    1    2  506  501 -0.28465151106E+02 -0.21372317168E+02  0.25796177937E+03  0.26040606825E+03  0.00000000000E+00 0.  1.
<scales pt_clust_3="14000.00000" pt_clust_4="51.29127" pt_clust_5="69.04460" pt_clust_6="35.59552"></scales>
<clustering>
<clus scale="   35.596">  1  6  2 -1</clus>
<clus scale="   51.291">  2  4  1 -1</clus>
<clus scale="   69.045">  1  5  2 -1</clus>
<clus scale="   35.596">  1  3  2 -1</clus>
</clustering>
</event>
<event>
 6    0  0.1221518E+003  0.8693244E+02  0.7546771E-02  0.1310455E+00
         21   -1    0    0  506  501  0.00000000000E+00  0.00000000000E+00  0.30735967024E+03  0.30735967024E+03  0.00000000000E+00 0. -1.
         21   -1    0    0  505  502 -0.00000000000E+00 -0.00000000000E+00 -0.68041172443E+03  0.68041172443E+03  0.00000000000E+00 0. -1.
         21    1    1    2  503  501  0.64626728857E+02  0.72700524639E+02  0.19465034701E+03  0.21760224713E+03  0.00000000000E+00 0. -1.
         21    1    1    2  504  502 -0.20067261476E+02  0.28259998993E+02 -0.61638466210E+03  0.61735838392E+03  0.00000000000E+00 0. -1.
         21    1    1    2  505  503 -0.47361371370E+02 -0.17460479819E+02 -0.90163680686E+01  0.51276337103E+02  0.00000000000E+00 0. -1.
         21    1    1    2  506  504  0.28019039887E+01 -0.83500043813E+02  0.57698628969E+02  0.10153442651E+03  0.00000000000E+00 0. -1.
<scales pt_clust_3="86.93244" pt_clust_4="34.66010" pt_clust_5="57.02638" pt_clust_6="14000.00000"></scales>
<clustering>
<clus scale="   34.660">  2  4  1 -1</clus>
<clus scale="   57.026">  2  5  1 -1</clus>
<clus scale="   86.932">  1  3  2 -1</clus>
<clus scale="   86.932">  1  3  2 -1</clus>
</clustering>
</event>
<event>
 6    0  0.1221518E+003  0.2883578E+03  0.7546771E-02  0.1091210E+00
         21   -1    0    0  502  501  0.00000000000E+00  0.00000000000E+00  0.63235554856E+03  0.63235554856E+03  0.00000000000E+00 0.  1.
         21   -1    0    0  504  502 -0.00000000000E+00 -0.00000000000E+00 -0.42579771686E+03  0.42579771686E+03  0.00000000000E+00 0. -1.
         21    1    1    2  503  506 -0.32515758602E+02 -0.22715331695E+03 -0.32940472272E+03  0.40145158526E+03  0.00000000000E+00 0. -1.
         21    1    1    2  504  503  0.42161541276E+01 -0.53939588702E+02  0.10708007913E+02  0.55153573034E+02  0.00000000000E+00 0.  1.
         21    1    1    2  505  501  0.53991863979E+02  0.19871474903E+03  0.39198538199E+03  0.44278122425E+03  0.00000000000E+00 0.  1.
         21    1    1    2  506  505 -0.25692259505E+02  0.82378156626E+02  0.13326916451E+03  0.15876688288E+03  0.00000000000E+00 0.  1.
<scales pt_clust_3="277.48243" pt_clust_4="54.10411" pt_clust_5="50.78135" pt_clust_6="50.78135"></scales>
<clustering>
<clus scale="   50.781">  5  6 -1 -1</clus>
<clus scale="   54.104">  2  4  1 -1</clus>
<clus scale="  277.482">  2  3  1 -1</clus>
<clus scale="  288.358">  1  3  2 -1</clus>
</clustering>
</event>
<event>
 6    0  0.1221518E+003  0.2177651E+03  0.7546771E-02  0.1135560E+00
         21   -1    0    0  503  501  0.00000000000E+00  0.00000000000E+00  0.12575533613E+04  0.12575533613E+04  0.00000000000E+00 0. -1.
         21   -1    0    0  506  502 -0.00000000000E+00 -0.00000000000E+00 -0.17731464775E+03  0.17731464775E+03  0.00000000000E+00 0. -1.
         21    1    1    2  503  504 -0.32256834544E+02 -0.18339294381E+03  0.10899428944E+04  0.11057345922E+04  0.00000000000E+00 0. -1.
         21    1    1    2  504  505  0.53602215005E+02  0.17188523323E+03 -0.53601562750E+02  0.18785861275E+03  0.00000000000E+00 0. -1.
         21    1    1    2  505  502  0.30122663813E+02  0.16737271660E+02 -0.33578430195E+02  0.48114676682E+02  0.00000000000E+00 0. -1.
         21    1    1    2  506  501 -0.51468044274E+02 -0.52295610766E+01  0.77475812034E+02  0.93160127419E+02  0.00000000000E+00 0. -1.
<scales pt_clust_3="204.76062" pt_clust_4="32.42928" pt_clust_5="32.42928" pt_clust_6="51.73304"></scales>
<clustering>
<clus scale="   32.429">  4  5 -1 -1</clus>
<clus scale="   51.733">  1  6  2 -1</clus>
<clus scale="  204.761">  1  3  2 -1</clus>
<clus scale="   51.733">  1  3  2 -1</clus>
</clustering>
</event>
<event>
 6    0  0.1575525E+003  0.7329614E+02  0.7546771E-02  0.1349230E+00
         21   -1    0    0  505  501  0.00000000000E+00  0.00000000000E+00  0.12902092350E+04  0.12902092350E+04  0.00000000000E+00 0. -1.
         21   -1    0    0  503  502 -0.00000000000E+00 -0.00000000000E+00 -0.86385100528E+02  0.86385100528E+02  0.00000000000E+00 0. -1.
         21    1    1    2  503  504 -0.12194644504E+02 -0.42081675842E+02  0.34000561174E+02  0.55458227130E+02  0.00000000000E+00 0.  1.
         21    1    1    2  504  501 -0.30130461580E+02  0.11011326994E+02  0.62957607188E+02  0.70659424991E+02  0.00000000000E+00 0.  1.
         21    1    1    2  505  506  0.65080922515E+02 -0.71284513510E+02  0.11372266874E+04  0.11413157086E+04  0.00000000000E+00 0. -1.
         21    1    1    2  506  502 -0.22755816431E+02  0.10235486236E+03 -0.30360721205E+02  0.10916097481E+03  0.00000000000E+00 0. -1.
<scales pt_clust_3="43.74856" pt_clust_4="32.07950" pt_clust_5="73.29614" pt_clust_6="14000.00000"></scales>
<clustering>
<clus scale="   32.079">  1  4  2 -1</clus>
<clus scale="   43.749">  2  3  1 -1</clus>
<clus scale="   73.296">  1  5  2 -1</clus>
<clus scale="   32.079">  1  3  2 -1</clus>
</clustering>
</event>
<event>
 6    0  0.1221518E+003  0.2576815E+03  0.7546771E-02  0.1108544E+00
         21   -1    0    0  503  501  0.00000000000E+00  0.00000000000E+00  0.17332764854E+04  0.17332764854E+04  0.00000000000E+00 0.  1.
         21   -1    0    0  504  502 -0.00000000000E+00 -0.00000000000E+00 -0.26373189433E+04  0.26373189433E+04  0.00000000000E+00 0.  1.
         21    1    1    2  503  506 -0.15086053004E+03  0.22838987208E+03  0.46658291712E+02  0.27766495886E+03  0.00000000000E+00 0. -1.
         21    1    1    2  504  505  0.49368085211E+02 -0.13828985106E+03  0.98390201368E+03  0.99479870490E+03  0.00000000000E+00 0.  1.
         21    1    1    2  505  501  0.59897007109E+02 -0.89608178565E+02  0.57659850426E+03  0.58658598026E+03  0.00000000000E+00 0.  1.
         21    1    1    2  506  502  0.41595437720E+02 -0.49184245649E+00 -0.25112012675E+04  0.25115457847E+04  0.00000000000E+00 0.  1.
<scales pt_clust_3="254.28427" pt_clust_4="35.73079" pt_clust_5="35.73079" pt_clust_6="41.59835"></scales>
<clustering>
<clus scale="   35.731">  4  5 -1 -1</clus>
<clus scale="   41.598">  2  6  1 -1</clus>
<clus scale="  254.284">  2  3  1 -1</clus>
<clus scale="  257.682">  1  3  2 -1</clus>
</clustering>
</event>
<event>
 6    0  0.1221518E+003  0.1922111E+03  0.7546771E-02  0.1156482E+00
         21   -1    0    0  504  501  0.00000000000E+00  0.00000000000E+00  0.20129728381E+03  0.20129728381E+03  0.00000000000E+00 0.  1.
         21   -1    0    0  506  502 -0.00000000000E+00 -0.00000000000E+00 -0.31500692532E+03  0.31500692532E+03  0.00000000000E+00 0.  1.
         21    1    1    2  503  505 -0.44162996144E+02 -0.19770690660E+02  0.13014537188E+02  0.50106173430E+02  0.00000000000E+00 0. -1.
         21    1    1    2  504  502  0.54579008746E+02 -0.17623458085E+03  0.11269793686E+02  0.18483642480E+03  0.00000000000E+00 0.  1.
         21    1    1    2  505  501  0.38158142337E+02  0.58843123894E+01  0.44764175011E+01  0.38867817955E+02  0.00000000000E+00 0.  1.
         21    1    1    2  506  503 -0.48574154939E+02  0.19012095912E+03 -0.14247038988E+03  0.24249379295E+03  0.00000000000E+00 0.  1.
<scales pt_clust_3="41.88332" pt_clust_4="192.21108" pt_clust_5="38.60918" pt_clust_6="14000.00000"></scales>
<clustering>
<clus scale="   38.609">  1  5  2 -1</clus>
<clus scale="   41.883">  1  3  2 -1</clus>
<clus scale="  192.211">  1  4  2 -1</clus>
<clus scale="   38.609">  1  3  2 -1</clus>
</clustering>
</event>
<event>
 6    0  0.1221518E+003  0.9345063E+02  0.7546771E-02  0.1294704E+00
         21   -1    0    0  504  501  0.00000000000E+00  0.00000000000E+00  0.95998484611E+02  0.95998484611E+02  0.00000000000E+00 0. -1.
         21   -1    0    0  505  502 -0.00000000000E+00 -0.00000000000E+00 -0.40777636370E+03  0.40777636370E+03  0.00000000000E+00 0. -1.
         21    1    1    2  503  506 -0.36670252686E+02 -0.99085593287E+02 -0.55018164714E+02  0.11912036214E+03  0.00000000000E+00 0. -1.
         21    1    1    2  504  503  0.28007887829E+02 -0.33427249006E+02 -0.62798287778E+01  0.44059720905E+02  0.00000000000E+00 0. -1.
         21    1    1    2  505  501 -0.35365404532E+02  0.10064614703E+03 -0.26234815459E+02  0.10985729057E+03  0.00000000000E+00 0.  1.
         21    1    1    2  506  502  0.44027769389E+02  0.31866695264E+02 -0.22424507014E+03  0.23073747469E+03  0.00000000000E+00 0. -1.
<scales pt_clust_3="93.45063" pt_clust_4="43.60989" pt_clust_5="14000.00000" pt_clust_6="54.51091"></scales>
<clustering>
<clus scale="   43.610">  1  4  2 -1</clus>
<clus scale="   54.511">  2  6  1 -1</clus>
<clus scale="   93.451">  2  3  1 -1</clus>
<clus scale="   43.610">  1  3  2 -1</clus>
</clustering>
</event>
<event>
 6    0  0.1221518E+003  0.1290429E+03  0.7546771E-02  0.1228883E+00
         21   -1    0    0  505  501  0.00000000000E+00  0.00000000000E+00  0.17394793446E+03  0.17394793446E+03  0.00000000000E+00 0.  1.
         21   -1    0    0  506  502 -0.00000000000E+00 -0.00000000000E+00 -0.17349082700E+03  0.17349082700E+03  0.00000000000E+00 0.  1.
         21    1    1    2  503  504 -0.27983191781E+02  0.34725204359E+02 -0.30921499096E+02  0.54268203825E+02  0.00000000000E+00 0.  1.
         21    1    1    2  504  501  0.11612683025E+03 -0.51165267236E+02  0.90237923204E+02  0.15571193936E+03  0.00000000000E+00 0.  1.
         21    1    1    2  505  502 -0.34561869856E+02  0.89527864651E+01 -0.73239118164E+02  0.81477872228E+02  0.00000000000E+00 0.  1.
         21    1    1    2  506  503 -0.53581768613E+02  0.74872764124E+01  0.14379801523E+02  0.55980746044E+02  0.00000000000E+00 0.  1.
<scales pt_clust_3="56.91345" pt_clust_4="114.91561" pt_clust_5="35.70259" pt_clust_6="56.91345"></scales>
<clustering>
<clus scale="   35.703">  2  5  1 -1</clus>
<clus scale="   56.913">  3  6 -1 -1</clus>
<clus scale="  114.916">  1  4  2 -1</clus>
<clus scale="  114.916">  1  3  2 -1</clus>
</clustering>
</event>
<event>
 6    0  0.1221518E+003  0.8560825E+02  0.7546771E-02  0.1313850E+00
         21   -1    0    0  504  501  0.00000000000E+00  0.00000000000E+00  0.16052743686E+03  0.16052743686E+03  0.00000000000E+00 0. -1.
         21   -1    0    0  506  502 -0.00000000000E+00 -0.00000000000E+00 -0.24119424087E+03  0.24119424087E+03  0.00000000000E+00 0. -1.
         21    1    1    2  503  501  0.35832625573E+02  0.63092920634E+01  0.82511639493E+02  0.90177352332E+02  0.00000000000E+00 0. -1.
         21    1    1    2  504  505 -0.81777744782E+02 -0.77275460943E+02 -0.46114887975E+02  0.12159637864E+03  0.00000000000E+00 0. -1.
         21    1    1    2  505  502  0.75574884292E+02  0.34010322395E+01 -0.63647427221E+02  0.98864175250E+02  0.00000000000E+00 0. -1.
         21    1    1    2  506  503 -0.29629765082E+02  0.67565136640E+02 -0.53416128307E+02  0.91083771504E+02  0.00000000000E+00 0. -1.
<scales pt_clust_3="36.38385" pt_clust_4="14000.00000" pt_clust_5="85.60825" pt_clust_6="72.15019"></scales>
<clustering>
<clus scale="   36.384">  1  3  2 -1</clus>
<clus scale="   72.150">  2  6  1 -1</clus>
<clus scale="   85.608">  2  5  1 -1</clus>
<clus scale="   36.384">  1  3  2 -1</clus>
</clustering>
</event>
<event>
 6    0  0.1221518E+003  0.7844620E+02  0.7546771E-02  0.1333520E+00
         21   -1    0    0  505  501  0.00000000000E+00  0.00000000000E+00  0.74396735083E+02  0.74396735083E+02  0.00000000000E+00 0. -1.
         21   -1    0    0  503  502 -0.00000000000E+00 -0.00000000000E+00 -0.40975692053E+03  0.40975692053E+03  0.00000000000E+00 0. -1.
         21    1    1    2  503  504  0.44907540252E+02 -0.30153204546E+02 -0.10709592951E+03  0.11998100280E+03  0.00000000000E+00 0. -1.
         21    1    1    2  504  501 -0.16027953653E+02 -0.95396953708E+02 -0.14722316926E+02  0.97847946788E+02  0.00000000000E+00 0. -1.
         21    1    1    2  505  506 -0.31131054575E+02  0.60745426355E+02 -0.35700207218E+02  0.77030216003E+02  0.00000000000E+00 0. -1.
         21    1    1    2  506  502  0.22514679761E+01  0.64804731899E+02 -0.17784173179E+03  0.18929449002E+03  0.00000000000E+00 0. -1.
<scales pt_clust_3="54.09162" pt_clust_4="78.44620" pt_clust_5="14000.00000" pt_clust_6="55.06169"></scales>
<clustering>
<clus scale="   54.092">  2  3  1 -1</clus>
<clus scale="   55.062">  2  6  1 -1</clus>
<clus scale="   78.446">  1  4  2 -1</clus>
<clus scale="   78.446">  1  3  2 -1</clus>
</clustering>
</event>
<event>
 6    0  0.1221518E+003  0.1304128E+03  0.7546771E-02  0.1226845E+00
         21   -1    0    0  506  501  0.00000000000E+00  0.00000000000E+00  0.12257694590E+04  0.12257694590E+04  0.00000000000E+00 0. -1.
         21   -1    0    0  503  502 -0.00000000000E+00 -0.00000000000E+00 -0.17712419615E+03  0.17712419615E+03  0.00000000000E+00 0.  1.
         21    1    1    2  503  505 -0.53225844548E+02 -0.64217592069E+02 -0.11338116573E+03  0.14075574021E+03  0.00000000000E+00 0.  1.
         21    1    1    2  504  502  0.48535109194E+02  0.43952557359E+01 -0.12348323172E+02  0.50273812096E+02  0.00000000000E+00 0. -1.
         21    1    1    2  505  501  0.50372239865E+02  0.16520631021E+03  0.53297832216E+03  0.56026456195E+03  0.00000000000E+00 0.  1.
         21    1    1    2  506  504 -0.45681504511E+02 -0.10538397388E+03  0.64139642956E+03  0.65159954087E+03  0.00000000000E+00 0. -1.
<scales pt_clust_3="61.36855" pt_clust_4="48.73372" pt_clust_5="14000.00000" pt_clust_6="130.41279"></scales>
<clustering>
<clus scale="   48.734">  2  4  1 -1</clus>
<clus scale="   61.369">  2  3  1 -1</clus>
<clus scale="  130.413">  1  6  2 -1</clus>
<clus scale="  130.413">  1  3  2 -1</clus>
</clustering>
</event>
<event>
 6    0  0.1221518E+003  0.9649993E+02  0.7546771E-02  0.1287833E+00
         21   -1    0    0  503  501  0.00000000000E+00  0.00000000000E+00  0.78717684176E+02  0.78717684176E+02  0.00000000000E+00 0. -1.
         21   -1    0    0  504  502 -0.00000000000E+00 -0.00000000000E+00 -0.29015487460E+04  0.29015487460E+04  0.00000000000E+00 0. -1.
         21    1    1    2  503  506 -0.54487538474E+02 -0.24014333550E+02 -0.12155610177E+03  0.13535680974E+03  0.00000000000E+00 0.  1.
         21    1    1    2  504  505  0.12191964092E+03  0.88723409537E+02 -0.15157074148E+04  0.15231891575E+04  0.00000000000E+00 0. -1.
         21    1    1    2  505  501 -0.41339269155E+02 -0.17779331015E+02  0.59997660353E+02  0.74998393539E+02  0.00000000000E+00 0. -1.
         21    1    1    2  506  502 -0.26092833293E+02 -0.46929744972E+02 -0.12455652057E+04  0.12467220695E+04  0.00000000000E+00 0.  1.
<scales pt_clust_3="14000.00000" pt_clust_4="96.49993" pt_clust_5="45.00044" pt_clust_6="55.55064"></scales>
<clustering>
<clus scale="   45.000">  1  5  2 -1</clus>
<clus scale="   55.551">  2  6  1 -1</clus>
<clus scale="   96.500">  2  4  1 -1</clus>
<clus scale="   45.000">  1  3  2 -1</clus>
</clustering>
</event>
<event>
 6    0  0.1221518E+003  0.8140041E+02  0.7546771E-02  0.1325124E+00
         21   -1    0    0  505  501  0.00000000000E+00  0.00000000000E+00  0.10359284569E+03  0.10359284569E+03  0.00000000000E+00 0. -1.
         21   -1    0    0  504  502 -0.00000000000E+00 -0.00000000000E+00 -0.94634758351E+03  0.94634758351E+03  0.00000000000E+00 0.  1.
         21    1    1    2  503  502  0.29393142188E+02  0.26919852529E+02 -0.78350416033E+03  0.78451730670E+03  0.00000000000E+00 0.  1.
         21    1    1    2  504  501 -0.80976722989E+02  0.49037833546E+02 -0.97511484636E+02  0.13590595432E+03  0.00000000000E+00 0. -1.
         21    1    1    2  505  506 -0.11077520513E+02 -0.54569514143E+02  0.28623435418E+02  0.62608660660E+02  0.00000000000E+00 0. -1.
         21    1    1    2  506  503  0.62661101313E+02 -0.21388171932E+02  0.96374717234E+01  0.66908507513E+02  0.00000000000E+00 0. -1.
<scales pt_clust_3="39.85769" pt_clust_4="81.40041" pt_clust_5="52.36649" pt_clust_6="14000.00000"></scales>
<clustering>
<clus scale="   39.858">  2  3  1 -1</clus>
<clus scale="   52.366">  1  5  2 -1</clus>
<clus scale="   81.400">  2  4  1 -1</clus>
<clus scale="   52.366">  1  3  2 -1</clus>
</clustering>
</event>
<event>
 6    0  0.1221518E+003  0.8412688E+02  0.7546771E-02  0.1317732E+00
         21   -1    0    0  505  501  0.00000000000E+00  0.00000000000E+00  0.26593431693E+03  0.26593431693E+03  0.00000000000E+00 0.  1.
         21   -1    0    0  506  502 -0.00000000000E+00 -0.00000000000E+00 -0.28918561456E+03  0.28918561456E+03  0.00000000000E+00 0. -1.
         21    1    1    2  503  502  0.80359029778E+02 -0.27857777731E+02 -0.15366110833E+03  0.17562848761E+03  0.00000000000E+00 0. -1.
         21    1    1    2  504  501  0.31322942021E+02 -0.21546327970E+01  0.11220518628E+02  0.33341703280E+02  0.00000000000E+00 0. -1.
         21    1    1    2  505  503 -0.82015361918E+02  0.68906672174E+02  0.21408451268E+03  0.23938844506E+03  0.00000000000E+00 0.  1.
         21    1    1    2  506  504 -0.29666609880E+02 -0.38894261646E+02 -0.94895220601E+02  0.10676129553E+03  0.00000000000E+00 0.  1.
<scales pt_clust_3="14000.00000" pt_clust_4="31.39696" pt_clust_5="84.12688" pt_clust_6="48.50033"></scales>
<clustering>
<clus scale="   31.397">  1  4  2 -1</clus>
<clus scale="   48.500">  2  6  1 -1</clus>
<clus scale="   84.127">  1  5  2 -1</clus>
<clus scale="   31.397">  1  3  2 -1</clus>
</clustering>
</event>
<event>
 6    0  0.1221518E+003  0.7555009E+02  0.7546771E-02  0.1342176E+00
         21   -1    0    0  506  501  0.00000000000E+00  0.00000000000E+00  0.22284025825E+03  0.22284025825E+03  0.00000000000E+00 0.  1.
         21   -1    0    0  505  502 -0.00000000000E+00 -0.00000000000E+00 -0.65753258182E+03  0.65753258182E+03  0.00000000000E+00 0.  1.
         21    1    1    2  503  502 -0.53862347466E+02 -0.66682040522E+02 -0.50350788992E+03  0.51075223173E+03  0.00000000000E+00 0.  1.
         21    1    1    2  504  501 -0.47582608806E+02  0.40342581629E+02  0.42134717897E+02  0.75279233561E+02  0.00000000000E+00 0.  1.
         21    1    1    2  505  504  0.31030124024E+02 -0.58689551922E+01 -0.12236914828E+03  0.12637848584E+03  0.00000000000E+00 0. -1.
         21    1    1    2  506  503  0.70414832248E+02  0.32208414085E+02  0.14904999673E+03  0.16796288895E+03  0.00000000000E+00 0.  1.
<scales pt_clust_3="14000.00000" pt_clust_4="61.53117" pt_clust_5="31.58027" pt_clust_6="75.55009"></scales>
<clustering>
<clus scale="   31.580">  2  5  1 -1</clus>
<clus scale="   61.531">  1  4  2 -1</clus>
<clus scale="   75.550">  1  6  2 -1</clus>
<clus scale="   61.531">  1  3  2 -1</clus>
</clustering>
</event>
<event>
 6    0  0.1221518E+003  0.9001414E+02  0.7546771E-02  0.1302817E+00
         21   -1    0    0  505  501  0.00000000000E+00  0.00000000000E+00  0.22501414590E+02  0.22501414590E+02  0.00000000000E+00 0.  1.
         21   -1    0    0  503  502 -0.00000000000E+00 -0.00000000000E+00 -0.21229919291E+04  0.21229919291E+04  0.00000000000E+00 0.  1.
         21    1    1    2  503  504 -0.72805423015E+02  0.76679463216E+02 -0.15529827908E+04  0.15565782725E+04  0.00000000000E+00 0.  1.
         21    1    1    2  504  506  0.46664348339E+02 -0.44885882780E+02 -0.35921365808E+03  0.36500240551E+03  0.00000000000E+00 0.  1.
         21    1    1    2  505  502  0.66157796139E+02 -0.44706925833E+01 -0.14281577113E+03  0.15745852014E+03  0.00000000000E+00 0.  1.
         21    1    1    2  506  501 -0.40016721463E+02 -0.27322887853E+02 -0.45478294518E+02  0.66454145616E+02  0.00000000000E+00 0.  1.
<scales pt_clust_3="14000.00000" pt_clust_4="90.01414" pt_clust_5="46.80716" pt_clust_6="48.45491"></scales>
<clustering>
<clus scale="   48.455">  1  6  2 -1</clus>
<clus scale="   46.807">  1  5  2 -1</clus>
<clus scale="   90.014">  1  4  2 -1</clus>
<clus scale="   48.455">  1  3  2 -1</clus>
</clustering>
</event>
<event>
 6    0  0.1221518E+003  0.7080136E+02  0.7546771E-02  0.1357389E+00
         21   -1    0    0  504  501  0.00000000000E+00  0.00000000000E+00  0.12820204018E+03  0.12820204018E+03  0.00000000000E+00 0. -1.
         21   -1    0    0  505  502 -0.00000000000E+00 -0.00000000000E+00 -0.28488474048E+03  0.28488474048E+03  0.00000000000E+00 0. -1.
         21    1    1    2  503  501 -0.64237705347E+02 -0.19586143661E+02  0.53272707524E+02  0.85720949474E+02  0.00000000000E+00 0. -1.
         21    1    1    2  504  506  0.62577676942E+02  0.68992573816E+02 -0.18711451930E+02  0.95005575240E+02  0.00000000000E+00 0. -1.
         21    1    1    2  505  503  0.53032444024E+02 -0.59150058208E+02 -0.10837185630E+03  0.13437123481E+03  0.00000000000E+00 0. -1.
         21    1    1    2  506  502 -0.51372415619E+02  0.97436280523E+01 -0.82872099590E+02  0.97989021143E+02  0.00000000000E+00 0. -1.
<scales pt_clust_3="14000.00000" pt_clust_4="70.80136" pt_clust_5="57.06046" pt_clust_6="52.28827"></scales>
<clustering>
<clus scale="   52.288">  2  6  1 -1</clus>
<clus scale="   57.060">  2  5  1 -1</clus>
<clus scale="   70.801">  2  4  1 -1</clus>
<clus scale="   70.801">  1  3  2 -1</clus>
</clustering>
</event>
<event>
 6    0  0.1221518E+003  0.9252953E+02  0.7546771E-02  0.1296839E+00
         21   -1    0    0  503  501  0.00000000000E+00  0.00000000000E+00  0.25408683392E+04  0.25408683392E+04  0.00000000000E+00 0. -1.
         21   -1    0    0  504  502 -0.00000000000E+00 -0.00000000000E+00 -0.15634829959E+03  0.15634829959E+03  0.00000000000E+00 0. -1.
         21    1    1    2  503  502  0.61767076380E+02  0.15975334348E+02  0.12900178564E+04  0.12915945388E+04  0.00000000000E+00 0. -1.
         21    1    1    2  504  506  0.61313167180E+02 -0.16646112643E+02 -0.87415344526E+02  0.10806405505E+03  0.00000000000E+00 0. -1.
         21    1    1    2  505  501 -0.10218076924E+03  0.69595179541E+02  0.12128776974E+04  0.12191622975E+04  0.00000000000E+00 0. -1.
         21    1    1    2  506  505 -0.20899474317E+02 -0.68924401245E+02 -0.30960169649E+02  0.78395747451E+02  0.00000000000E+00 0. -1.
<scales pt_clust_3="64.54332" pt_clust_4="63.53265" pt_clust_5="92.52953" pt_clust_6="14000.00000"></scales>
<clustering>
<clus scale="   63.533">  2  4  1 -1</clus>
<clus scale="   64.543">  1  3  2 -1</clus>
<clus scale="   92.530">  1  5  2 -1</clus>
<clus scale="   64.543">  1  3  2 -1</clus>
</clustering>
</event>
<event>
 6    0  0.2011090E+003  0.1046896E+03  0.7546771E-02  0.1270732E+00
         21   -1    0    0  503  501  0.00000000000E+00  0.00000000000E+00  0.12062103378E+04  0.12062103378E+04  0.00000000000E+00 0.  1.
         21   -1    0    0  505  502 -0.00000000000E+00 -0.00000000000E+00 -0.14619847297E+03  0.14619847297E+03  0.00000000000E+00 0.  1.
         21    1    1    2  503  502 -0.44927763848E+02 -0.27602921057E+01 -0.69284367175E+01  0.45542578014E+02  0.00000000000E+00 0.  1.
         21    1    1    2  504  506  0.46181997269E+02 -0.64964665233E+02  0.99989801746E+02  0.12787159596E+03  0.00000000000E+00 0.  1.
         21    1    1    2  505  504 -0.37138581168E+02  0.91521538038E+02 -0.82481023425E+02  0.12868016693E+03  0.00000000000E+00 0.  1.
         21    1    1    2  506  501  0.35884347746E+02 -0.23796580699E+02  0.10494315233E+04  0.10503144699E+04  0.00000000000E+00 0.  1.
<scales pt_clust_3="40.89524" pt_clust_4="14000.00000" pt_clust_5="104.68957" pt_clust_6="43.05768"></scales>
<clustering>
<clus scale="   43.058">  1  6  2 -1</clus>
<clus scale="   40.895">  2  3  1 -1</clus>
<clus scale="  104.690">  2  5  1 -1</clus>
<clus scale="   43.058">  1  3  2 -1</clus>
</clustering>
</event>
<event>
 6    0  0.1221518E+003  0.1281425E+03  0.7546771E-02  0.1230238E+00
         21   -1    0    0  506  501  0.00000000000E+00  0.00000000000E+00  0.27111739860E+03  0.27111739860E+03  0.00000000000E+00 0. -1.
         21   -1    0    0  501  502 -0.00000000000E+00 -0.00000000000E+00 -0.26384665437E+03  0.26384665437E+03  0.00000000000E+00 0. -1.
         21    1    1    2  503  505 -0.11286456017E+03 -0.13145913895E+03  0.31741957208E+02  0.17614614956E+03  0.00000000000E+00 0. -1.
         21    1    1    2  504  502  0.29874787868E+02 -0.47643681031E+02 -0.33257594947E+02  0.65333688967E+02  0.00000000000E+00 0. -1.
         21    1    1    2  505  504  0.65175170962E+02  0.62305389684E+02 -0.98752629992E+02  0.13372302129E+03  0.00000000000E+00 0. -1.
         21    1    1    2  506  503  0.17814601342E+02  0.11679743030E+03  0.10753901196E+03  0.15976119315E+03  0.00000000000E+00 0. -1.
<scales pt_clust_3="14000.00000" pt_clust_4="56.23543" pt_clust_5="89.17005" pt_clust_6="128.14251"></scales>
<clustering>
<clus scale="   56.235">  2  4  1 -1</clus>
<clus scale="   89.170">  2  5  1 -1</clus>
<clus scale="  128.143">  1  6  2 -1</clus>
<clus scale="  128.143">  1  3  2 -1</clus>
</clustering>
</event>
<event>
 6    0  0.1221518E+003  0.3015112E+03  0.7546771E-02  0.1084488E+00
         21   -1    0    0  506  501  0.00000000000E+00  0.00000000000E+00  0.12430106488E+04  0.12430106488E+04  0.00000000000E+00 0.  1.
         21   -1    0    0  504  502 -0.00000000000E+00 -0.00000000000E+00 -0.18292312642E+03  0.18292312642E+03  0.00000000000E+00 0.  1.
         21    1    1    2  503  502  0.17480111939E+03 -0.24661333208E+03  0.46218336806E+01  0.30231594110E+03  0.00000000000E+00 0.  1.
         21    1    1    2  504  501  0.31806970319E+02  0.10361867513E+02  0.45388916110E+02  0.56384442578E+02  0.00000000000E+00 0. -1.
         21    1    1    2  505  503 -0.22254737476E+03  0.20537923120E+03  0.82277468170E+03  0.87673607173E+03  0.00000000000E+00 0.  1.
         21    1    1    2  506  505  0.15939285048E+02  0.30872233363E+02  0.18730209085E+03  0.19049731976E+03  0.00000000000E+00 0. -1.
<scales pt_clust_3="14000.00000" pt_clust_4="33.45223" pt_clust_5="301.51123" pt_clust_6="38.69497"></scales>
<clustering>
<clus scale="   33.452">  1  4  2 -1</clus>
<clus scale="   38.695">  1  6  2 -1</clus>
<clus scale="  301.511">  1  5  2 -1</clus>
<clus scale="   33.452">  1  3  2 -1</clus>
</clustering>
</event>
<event>
 6    0  0.1221518E+003  0.8355926E+02  0.7546771E-02  0.1319244E+00
         21   -1    0    0  504  501  0.00000000000E+00  0.00000000000E+00  0.58055507156E+02  0.58055507156E+02  0.00000000000E+00 0.  1.
         21   -1    0    0  505  502 -0.00000000000E+00 -0.00000000000E+00 -0.80517460289E+03  0.80517460289E+03  0.00000000000E+00 0. -1.
         21    1    1    2  503  502 -0.53563544726E+01 -0.56227790914E+02 -0.13134243971E+03  0.14297234513E+03  0.00000000000E+00 0. -1.
         21    1    1    2  504  503 -0.36078999745E+02 -0.83426015315E+02 -0.88779938383E+01  0.91325861773E+02  0.00000000000E+00 0.  1.
         21    1    1    2  505  506  0.20090351723E+02  0.79457927861E+02 -0.47913171799E+03  0.48609092536E+03  0.00000000000E+00 0. -1.
         21    1    1    2  506  501  0.21345002494E+02  0.60195878368E+02 -0.12776694419E+03  0.14284097778E+03  0.00000000000E+00 0. -1.
<scales pt_clust_3="56.48234" pt_clust_4="83.55926" pt_clust_5="42.08731" pt_clust_6="14000.00000"></scales>
<clustering>
<clus scale="   56.482">  2  3  1 -1</clus>
<clus scale="   42.087">  2  5  1 -1</clus>
<clus scale="   83.559">  1  4  2 -1</clus>
<clus scale="   83.559">  1  3  2 -1</clus>
</clustering>
</event>
<event>
 6    0  0.1221518E+003  0.1836200E+03  0.7546771E-02  0.1164345E+00
         21   -1    0    0  505  501  0.00000000000E+00  0.00000000000E+00  0.48764212301E+03  0.48764212301E+03  0.00000000000E+00 0.  1.
         21   -1    0    0  504  502 -0.00000000000E+00 -0.00000000000E+00 -0.82204777244E+02  0.82204777244E+02  0.00000000000E+00 0.  1.
         21    1    1    2  503  502  0.52298090287E+02 -0.95403040404E+02  0.17361308870E+02  0.11017370563E+03  0.00000000000E+00 0.  1.
         21    1    1    2  504  506 -0.51587189750E+02  0.35611602280E+02  0.14097893599E+03  0.15428702070E+03  0.00000000000E+00 0.  1.
         21    1    1    2  505  503  0.13630805877E+02 -0.57927306082E+02  0.65493877883E+02  0.88491918834E+02  0.00000000000E+00 0.  1.
         21    1    1    2  506  501 -0.14341706414E+02  0.11771874421E+03  0.18160322302E+03  0.21689425509E+03  0.00000000000E+00 0.  1.
<scales pt_clust_3="180.56314" pt_clust_4="55.65307" pt_clust_5="50.95169" pt_clust_6="55.65307"></scales>
<clustering>
<clus scale="   50.952">  3  5 -1 -1</clus>
<clus scale="   55.653">  4  6 -1 -1</clus>
<clus scale="  180.563">  2  3  1 -1</clus>
<clus scale="  183.620">  1  3  2 -1</clus>
</clustering>
</event>
<event>
 6    0  0.1221518E+003  0.1243626E+03  0.7546771E-02  0.1236069E+00
         21   -1    0    0  503  501  0.00000000000E+00  0.00000000000E+00  0.15356935539E+03  0.15356935539E+03  0.00000000000E+00 0.  1.
         21   -1    0    0  506  502 -0.00000000000E+00 -0.00000000000E+00 -0.19795440183E+04  0.19795440183E+04  0.00000000000E+00 0.  1.
         21    1    1    2  503  505  0.11900995124E+03  0.25788244274E+02 -0.12228290981E+03  0.17257320785E+03  0.00000000000E+00 0.  1.
         21    1    1    2  504  501 -0.52711437832E+02 -0.12537025199E+03  0.88051509925E+02  0.16201624660E+03  0.00000000000E+00 0.  1.
         21    1    1    2  505  502 -0.88575957419E+02  0.71595675693E+02 -0.15461791998E+04  0.15503682655E+04  0.00000000000E+00 0.  1.
         21    1    1    2  506  504  0.22277444010E+02  0.27986332023E+02 -0.24556406330E+03  0.24815565372E+03  0.00000000000E+00 0.  1.
<scales pt_clust_3="124.36256" pt_clust_4="14000.00000" pt_clust_5="118.52308" pt_clust_6="35.77037"></scales>
<clustering>
<clus scale="   35.770">  2  6  1 -1</clus>
<clus scale="  118.523">  2  5  1 -1</clus>
<clus scale="  124.363">  2  3  1 -1</clus>
<clus scale="  124.363">  1  3  2 -1</clus>
</clustering>
</event>
<event>
 6    0  0.1221518E+003  0.1657677E+03  0.7546771E-02  0.1182335E+00
         21   -1    0    0  503  501  0.00000000000E+00  0.00000000000E+00  0.45774221631E+03  0.45774221631E+03  0.00000000000E+00 0. -1.
         21   -1    0    0  506  502 -0.00000000000E+00 -0.00000000000E+00 -0.29260855377E+03  0.29260855377E+03  0.00000000000E+00 0. -1.
         21    1    1    2  503  505  0.29201138750E+00  0.33978642746E+02  0.18693070656E+02  0.38782268165E+02  0.00000000000E+00 0. -1.
         21    1    1    2  504  502  0.98111612358E+02 -0.14115301628E+03 -0.20267316414E+03  0.26575641845E+03  0.00000000000E+00 0. -1.
         21    1    1    2  505  504 -0.97154971419E+02 -0.13464285246E+02  0.26829823483E+02  0.10168684712E+03  0.00000000000E+00 0. -1.
         21    1    1    2  506  501 -0.12486523259E+01  0.12063865878E+03  0.32228393254E+03  0.34412523635E+03  0.00000000000E+00 0. -1.
<scales pt_clust_3="33.97990" pt_clust_4="165.76774" pt_clust_5="97.47168" pt_clust_6="14000.00000"></scales>
<clustering>
<clus scale="   33.980">  1  3  2 -1</clus>
<clus scale="   97.472">  1  5  2 -1</clus>
<clus scale="  165.768">  2  4  1 -1</clus>
<clus scale="   33.980">  1  3  2 -1</clus>
</clustering>
</event>
<event>
 6    0  0.1221518E+003  0.1371279E+03  0.7546771E-02  0.1217247E+00
         21   -1    0    0  506  501  0.00000000000E+00  0.00000000000E+00  0.29674143952E+02  0.29674143952E+02  0.00000000000E+00 0. -1.
         21   -1    0    0  505  502 -0.00000000000E+00 -0.00000000000E+00 -0.15289678002E+04  0.15289678002E+04  0.00000000000E+00 0.  1.
         21    1    1    2  503  504 -0.10748512441E+03 -0.83007399749E+02 -0.10825227229E+04  0.10910081237E+04  0.00000000000E+00 0.  1.
         21    1    1    2  504  502  0.13436425340E+02 -0.28205283034E+02 -0.17920527963E+03  0.18190823996E+03  0.00000000000E+00 0.  1.
         21    1    1    2  505  501  0.68832979031E+02  0.94151701789E+02 -0.13336694931E+03  0.17717015866E+03  0.00000000000E+00 0. -1.
         21    1    1    2  506  503  0.25215720036E+02  0.17060980995E+02 -0.10419870443E+03  0.10855542185E+03  0.00000000000E+00 0. -1.
<scales pt_clust_3="137.12793" pt_clust_4="31.05344" pt_clust_5="14000.00000" pt_clust_6="30.44519"></scales>
<clustering>
<clus scale="   30.445">  1  6  2 -1</clus>
<clus scale="   31.053">  2  4  1 -1</clus>
<clus scale="  137.128">  2  3  1 -1</clus>
<clus scale="   30.445">  1  3  2 -1</clus>
</clustering>
</event>
<event>
 6    0  0.1221518E+003  0.8831512E+02  0.7546771E-02  0.1306984E+00
         21   -1    0    0  503  501  0.00000000000E+00  0.00000000000E+00  0.91631124684E+03  0.91631124684E+03  0.00000000000E+00 0. -1.
         21   -1    0    0  506  502 -0.00000000000E+00 -0.00000000000E+00 -0.32631071844E+03  0.32631071844E+03  0.00000000000E+00 0.  1.
         21    1    1    2  503  504 -0.69956065625E+02  0.11797675553E+03  0.52238522502E+03  0.54009137123E+03  0.00000000000E+00 0. -1.
         21    1    1    2  504  505 -0.30732755831E+01 -0.82581927318E+02  0.95320656475E+02  0.12615564709E+03  0.00000000000E+00 0.  1.
         21    1    1    2  505  502  0.35302767501E+02  0.96349386068E+01 -0.29776229655E+03  0.30000250446E+03  0.00000000000E+00 0.  1.
         21    1    1    2  506  501  0.37726573707E+02 -0.45029766823E+02  0.27005694345E+03  0.27637244250E+03  0.00000000000E+00 0.  1.
<scales pt_clust_3="88.31512" pt_clust_4="14000.00000" pt_clust_5="36.59395" pt_clust_6="60.62582"></scales>
<clustering>
<clus scale="   36.594">  2  5  1 -1</clus>
<clus scale="   60.626">  1  6  2 -1</clus>
<clus scale="   88.315">  1  3  2 -1</clus>
<clus scale="   60.626">  1  3  2 -1</clus>
</clustering>
</event>
<event>
 6    0  0.1221518E+003  0.1468236E+03  0.7546771E-02  0.1204431E+00
         21   -1    0    0  506  501  0.00000000000E+00  0.00000000000E+00  0.21428563184E+02  0.21428563184E+02  0.00000000000E+00 0.  1.
         21   -1    0    0  505  502 -0.00000000000E+00 -0.00000000000E+00 -0.29794312183E+04  0.29794312183E+04  0.00000000000E+00 0.  1.
         21    1    1    2  503  502  0.25229761725E+02 -0.16076555518E+03 -0.12846712056E+04  0.12949371456E+04  0.00000000000E+00 0.  1.
         21    1    1    2  504  501 -0.58823854130E+02  0.40981662878E+02 -0.12023787258E+03  0.13998888709E+03  0.00000000000E+00 0.  1.
         21    1    1    2  505  504  0.60763359061E+02  0.13326105087E+03 -0.14734484671E+04  0.14807096537E+04  0.00000000000E+00 0.  1.
         21    1    1    2  506  503 -0.27169266657E+02 -0.13477158570E+02 -0.79645109916E+02  0.85224095110E+02  0.00000000000E+00 0.  1.
<scales pt_clust_3="14000.00000" pt_clust_4="80.66118" pt_clust_5="146.82365" pt_clust_6="30.32825"></scales>
<clustering>
<clus scale="   30.328">  1  6  2 -1</clus>
<clus scale="   80.661">  1  4  2 -1</clus>
<clus scale="  146.824">  2  5  1 -1</clus>
<clus scale="   30.328">  1  3  2 -1</clus>
</clustering>
</event>
<event>
 6    0  0.1221518E+003  0.1199667E+03  0.7546771E-02  0.1243152E+00
         21   -1    0    0  504  501  0.00000000000E+00  0.00000000000E+00  0.11856892132E+04  0.11856892132E+04  0.00000000000E+00 0. -1.
         21   -1    0    0  506  502 -0.00000000000E+00 -0.00000000000E+00 -0.63758467295E+02  0.63758467295E+02  0.00000000000E+00 0. -1.
         21    1    1    2  503  501  0.10691081149E+03 -0.10110830691E+03  0.53651031212E+03  0.55632376036E+03  0.00000000000E+00 0. -1.
         21    1    1    2  504  505  0.69141782134E+02  0.88076853428E+02  0.36376773525E+03  0.38061145983E+03  0.00000000000E+00 0. -1.
         21    1    1    2  505  502 -0.90031801448E+02 -0.24575973100E+02  0.28217537179E+02  0.97498375013E+02  0.00000000000E+00 0. -1.
         21    1    1    2  506  503 -0.86020792172E+02  0.37607426582E+02  0.19343516133E+03  0.21501408526E+03  0.00000000000E+00 0.  1.
<scales pt_clust_3="119.96667" pt_clust_4="91.72617" pt_clust_5="93.32579" pt_clust_6="14000.00000"></scales>
<clustering>
<clus scale="   93.326">  2  5  1 -1</clus>
<clus scale="   91.726">  2  4  1 -1</clus>
<clus scale="  119.967">  1  3  2 -1</clus>
<clus scale="  119.967">  1  3  2 -1</clus>
</clustering>
</event>
<event>
 6    0  0.1221518E+003  0.1724610E+03  0.7546771E-02  0.1175305E+00
         21   -1    0    0  506  501  0.00000000000E+00  0.00000000000E+00  0.60750759395E+03  0.60750759395E+03  0.00000000000E+00 0.  1.
         21   -1    0    0  503  502 -0.00000000000E+00 -0.00000000000E+00 -0.61516362740E+03  0.61516362740E+03  0.00000000000E+00 0. -1.
         21    1    1    2  503  505  0.73631064485E+02  0.13490852123E+03 -0.39162315209E+03  0.42070243167E+03  0.00000000000E+00 0. -1.
         21    1    1    2  504  502 -0.49098173131E+02  0.50786188002E+02 -0.16642733925E+03  0.18079802750E+03  0.00000000000E+00 0. -1.
         21    1    1    2  505  501  0.34477113249E+01 -0.13026327680E+03  0.94254399281E+02  0.16082381596E+03  0.00000000000E+00 0. -1.
         21    1    1    2  506  504 -0.27980602679E+02 -0.55431432434E+02  0.45614005861E+03  0.46034694622E+03  0.00000000000E+00 0.  1.
<scales pt_clust_3="14000.00000" pt_clust_4="69.71394" pt_clust_5="172.46100" pt_clust_6="62.09314"></scales>
<clustering>
<clus scale="   62.093">  1  6  2 -1</clus>
<clus scale="   69.714">  2  4  1 -1</clus>
<clus scale="  172.461">  1  5  2 -1</clus>
<clus scale="   62.093">  1  3  2 -1</clus>
</clustering>
</event>
<event>
 6    0  0.1221518E+003  0.8692995E+02  0.7546771E-02  0.1310461E+00
         21   -1    0    0  505  501  0.00000000000E+00  0.00000000000E+00  0.91559355455E+03  0.91559355455E+03  0.00000000000E+00 0.  1.
         21   -1    0    0  506  502 -0.00000000000E+00 -0.00000000000E+00 -0.64086972744E+03  0.64086972744E+03  0.00000000000E+00 0.  1.
         21    1    1    2  503  502  0.40965513215E+02 -0.77821624461E+02 -0.60984723609E+03  0.61615584869E+03  0.00000000000E+00 0.  1.
         21    1    1    2  504  503 -0.64756111510E+02  0.42137819172E+02  0.34036142194E+02  0.84423982125E+02  0.00000000000E+00 0.  1.
         21    1    1    2  505  504  0.54561448819E+02  0.27877598610E+02  0.46040704008E+03  0.46446609645E+03  0.00000000000E+00 0.  1.
         21    1    1    2  506  501 -0.30770850525E+02  0.78062066797E+01  0.39012788093E+03  0.39141735473E+03  0.00000000000E+00 0.  1.
<scales pt_clust_3="86.92995" pt_clust_4="14000.00000" pt_clust_5="44.28747" pt_clust_6="31.74558"></scales>
<clustering>
<clus scale="   31.746">  1  6  2 -1</clus>
<clus scale="   44.287">  1  5  2 -1</clus>
<clus scale="   86.930">  2  3  1 -1</clus>
<clus scale="   31.746">  1  3  2 -1</clus>
</clustering>
</event>
<event>
 6    0  0.1221518E+003  0.6438518E+02  0.7546771E-02  0.1380299E+00
         21   -1    0    0  503  501  0.00000000000E+00  0.00000000000E+00  0.67602282950E+03  0.67602282950E+03  0.00000000000E+00 0.  1.
         21   -1    0    0  505  502 -0.00000000000E+00 -0.00000000000E+00 -0.59059170479E+03  0.59059170479E+03  0.00000000000E+00 0. -1.
         21    1    1    2  503  502  0.90211589159E+02  0.44691027124E+02 -0.51561433268E+03  0.52535089111E+03  0.00000000000E+00 0. -1.
         21    1    1    2  504  501  0.26097424260E+02  0.26385887726E+02  0.46803857141E+03  0.46950760904E+03  0.00000000000E+00 0.  1.
         21    1    1    2  505  506 -0.29371651432E+02 -0.33187332332E+02 -0.49279239606E+02  0.66276212861E+02  0.00000000000E+00 0.  1.
         21    1    1    2  506  504 -0.86937361988E+02 -0.37889582518E+02  0.18228612558E+03  0.20547982128E+03  0.00000000000E+00 0.  1.
<scales pt_clust_3="14000.00000" pt_clust_4="37.11187" pt_clust_5="42.79870" pt_clust_6="64.38518"></scales>
<clustering>
<clus scale="   37.112">  1  4  2 -1</clus>
<clus scale="   42.799">  2  5  1 -1</clus>
<clus scale="   64.385">  1  6  2 -1</clus>
<clus scale="   37.112">  1  3  2 -1</clus>
</clustering>
</event>
<event>
 6    0  0.1221518E+003  0.1556438E+03  0.7546771E-02  0.1193705E+00
         21   -1    0    0  505  501  0.00000000000E+00  0.00000000000E+00  0.13008426594E+03  0.13008426594E+03  0.00000000000E+00 0. -1.
         21   -1    0    0  506  502 -0.00000000000E+00 -0.00000000000E+00 -0.69983284549E+03  0.69983284549E+03  0.00000000000E+00 0.  1.
         21    1    1    2  503  504  0.46818159590E+02 -0.40743133900E+02  0.43580237783E+02  0.75836535738E+02  0.00000000000E+00 0. -1.
         21    1    1    2  504  502 -0.13160805573E+02 -0.28220705648E+02 -0.10562726389E+03  0.11012145072E+03  0.00000000000E+00 0.  1.
         21    1    1    2  505  503  0.89732486314E+02 -0.12795134844E+02  0.22576879433E+02  0.93409582274E+02  0.00000000000E+00 0. -1.
         21    1    1    2  506  501 -0.12338984033E+03  0.81758974392E+02 -0.53027843288E+03  0.55054954270E+03  0.00000000000E+00 0.  1.
<scales pt_clust_3="43.64351" pt_clust_4="31.13864" pt_clust_5="43.64351" pt_clust_6="146.52621"></scales>
<clustering>
<clus scale="   31.139">  2  4  1 -1</clus>
<clus scale="   43.644">  3  5 -1 -1</clus>
<clus scale="  146.526">  2  6  1 -1</clus>
<clus scale="  155.644">  1  3  2 -1</clus>
</clustering>
</event>
<event>
 6    0  0.1221518E+003  0.7333710E+02  0.7546771E-02  0.1349099E+00
         21   -1    0    0  506  501  0.00000000000E+00  0.00000000000E+00  0.35006004940E+02  0.35006004940E+02  0.00000000000E+00 0. -1.
         21   -1    0    0  503  502 -0.00000000000E+00 -0.00000000000E+00 -0.49844559534E+03  0.49844559534E+03  0.00000000000E+00 0. -1.
         21    1    1    2  503  505  0.27727682692E+02 -0.19408106550E+02 -0.60926970925E+02  0.69696447351E+02  0.00000000000E+00 0. -1.
         21    1    1    2  504  502 -0.16748624895E+02  0.55823907440E+02 -0.14800515751E+03  0.15906712963E+03  0.00000000000E+00 0. -1.
         21    1    1    2  505  501 -0.32921672357E+02 -0.95112980281E+02 -0.18840106365E+03  0.21360074043E+03  0.00000000000E+00 0. -1.
         21    1    1    2  506  504  0.21942614559E+02  0.58697179391E+02 -0.66106398306E+02  0.91087282862E+02  0.00000000000E+00 0. -1.
<scales pt_clust_3="33.84522" pt_clust_4="49.43092" pt_clust_5="73.33710" pt_clust_6="14000.00000"></scales>
<clustering>
<clus scale="   33.845">  2  3  1 -1</clus>
<clus scale="   49.431">  2  4  1 -1</clus>
<clus scale="   73.337">  2  5  1 -1</clus>
<clus scale="   73.337">  1  3  2 -1</clus>
</clustering>
</event>
<event>
 6    0  0.1221518E+003  0.8448204E+02  0.7546771E-02  0.1316793E+00
         21   -1    0    0  505  501  0.00000000000E+00  0.00000000000E+00  0.11128085313E+03  0.11128085313E+03  0.00000000000E+00 0.  1.
         21   -1    0    0  503  502 -0.00000000000E+00 -0.00000000000E+00 -0.14268955654E+04  0.14268955654E+04  0.00000000000E+00 0.  1.
         21    1    1    2  503  504  0.42704057547E+02  0.68553022600E+02 -0.87392661603E+03  0.87765077545E+03  0.00000000000E+00 0.  1.
         21    1    1    2  504  501 -0.12131183325E+03 -0.31420838490E+02  0.32417671617E+02  0.12944008425E+03  0.00000000000E+00 0.  1.
         21    1    1    2  505  506  0.39359483520E+02  0.13881923362E+02  0.98384927577E+01  0.42879746722E+02  0.00000000000E+00 0.  1.
         21    1    1    2  506  502  0.39248292180E+02 -0.51014107472E+02 -0.48394426063E+03  0.48820581213E+03  0.00000000000E+00 0.  1.
<scales pt_clust_3="14000.00000" pt_clust_4="84.48204" pt_clust_5="41.73580" pt_clust_6="64.69890"></scales>
<clustering>
<clus scale="   41.736">  1  5  2 -1</clus>
<clus scale="   64.699">  2  6  1 -1</clus>
<clus scale="   84.482">  1  4  2 -1</clus>
<clus scale="   41.736">  1  3  2 -1</clus>
</clustering>
</event>
<event>
 6    0  0.1221518E+003  0.9810214E+02  0.7546771E-02  0.1284338E+00
         21   -1    0    0  504  501  0.00000000000E+00  0.00000000000E+00  0.24528050674E+02  0.24528050674E+02  0.00000000000E+00 0.  1.
         21   -1    0    0  503  502 -0.00000000000E+00 -0.00000000000E+00 -0.17321530137E+04  0.17321530137E+04  0.00000000000E+00 0.  1.
         21    1    1    2  503  501  0.37009626993E+02  0.91779866780E+02 -0.35256266326E+03  0.36618804999E+03  0.00000000000E+00 0.  1.
         21    1    1    2  504  505 -0.93763691325E+02 -0.49363885264E+02 -0.16703833486E+03  0.19781362009E+03  0.00000000000E+00 0.  1.
         21    1    1    2  505  506  0.71718397984E+02 -0.14584346893E+02 -0.77472062708E+03  0.77816982838E+03  0.00000000000E+00 0.  1.
         21    1    1    2  506  502 -0.14964333651E+02 -0.27831634623E+02 -0.41330333784E+03  0.41450956591E+03  0.00000000000E+00 0.  1.
<scales pt_clust_3="98.10214" pt_clust_4="14000.00000" pt_clust_5="70.11812" pt_clust_6="31.59954"></scales>
<clustering>
<clus scale="   31.600">  2  6  1 -1</clus>
<clus scale="   70.118">  2  5  1 -1</clus>
<clus scale="   98.102">  2  3  1 -1</clus>
<clus scale="   98.102">  1  3  2 -1</clus>
</clustering>
</event>
<event>
 6    0  0.1221518E+003  0.1081563E+03  0.7546771E-02  0.1264023E+00
         21   -1    0    0  504  501  0.00000000000E+00  0.00000000000E+00  0.59885175990E+03  0.59885175990E+03  0.00000000000E+00 0.  1.
         21   -1    0    0  503  502 -0.00000000000E+00 -0.00000000000E+00 -0.41409811509E+03  0.41409811509E+03  0.00000000000E+00 0. -1.
         21    1    1    2  503  505 -0.10787552458E+03  0.10997293015E+02 -0.37654378542E+03  0.39184600495E+03  0.00000000000E+00 0. -1.
         21    1    1    2  504  502  0.53547902649E+02  0.27263441571E+02  0.14912734258E+03  0.16077822436E+03  0.00000000000E+00 0.  1.
         21    1    1    2  505  506  0.10167400371E+03 -0.24288811847E+02  0.10131630271E+03  0.14557658674E+03  0.00000000000E+00 0.  1.
         21    1    1    2  506  501 -0.47346381779E+02 -0.13971922739E+02  0.31085378494E+03  0.31474905894E+03  0.00000000000E+00 0. -1.
<scales pt_clust_3="108.15626" pt_clust_4="34.15151" pt_clust_5="14000.00000" pt_clust_6="49.36491"></scales>
<clustering>
<clus scale="   49.365">  1  6  2 -1</clus>
<clus scale="   34.152">  1  4  2 -1</clus>
<clus scale="  108.156">  2  3  1 -1</clus>
<clus scale="   49.365">  1  3  2 -1</clus>
</clustering>
</event>
<event>
 6    0  0.1221518E+003  0.1154255E+03  0.7546771E-02  0.1250840E+00
         21   -1    0    0  503  501  0.00000000000E+00  0.00000000000E+00  0.28689444309E+04  0.28689444309E+04  0.00000000000E+00 0.  1.
         21   -1    0    0  505  502 -0.00000000000E+00 -0.00000000000E+00 -0.48766316018E+02  0.48766316018E+02  0.00000000000E+00 0.  1.
         21    1    1    2  503  504  0.27836529316E+02 -0.46697199255E+02  0.17023657117E+04  0.17032335474E+04  0.00000000000E+00 0.  1.
         21    1    1    2  504  506 -0.72765624509E+02  0.57533689630E+02  0.85654198557E+03  0.86155042487E+03  0.00000000000E+00 0.  1.
         21    1    1    2  505  501 -0.87646772433E+02 -0.29864959521E+02  0.16058318373E+03  0.18536674843E+03  0.00000000000E+00 0.  1.
         21    1    1    2  506  502  0.13257586763E+03  0.19028469145E+02  0.10068723397E+03  0.16756002625E+03  0.00000000000E+00 0.  1.
<scales pt_clust_3="54.36452" pt_clust_4="57.15119" pt_clust_5="115.42553" pt_clust_6="14000.00000"></scales>
<clustering>
<clus scale="   54.365">  1  3  2 -1</clus>
<clus scale="   57.151">  1  4  2 -1</clus>
<clus scale="  115.426">  1  5  2 -1</clus>
<clus scale="   54.365">  1  3  2 -1</clus>
</clustering>
</event>
<event>
 6    0  0.1221518E+003  0.1232811E+03  0.7546771E-02  0.1237780E+00
         21   -1    0    0  503  501  0.00000000000E+00  0.00000000000E+00  0.12275244113E+04  0.12275244113E+04  0.00000000000E+00 0.  1.
         21   -1    0    0  504  502 -0.00000000000E+00 -0.00000000000E+00 -0.12206175205E+04  0.12206175205E+04  0.00000000000E+00 0.  1.
         21    1    1    2  503  505  0.14192630410E+02 -0.10015872041E+03  0.89788906748E+03  0.90356957537E+03  0.00000000000E+00 0.  1.
         21    1    1    2  504  501  0.99848431714E+02  0.46498928289E+02  0.24190797465E+03  0.26580317501E+03  0.00000000000E+00 0.  1.
         21    1    1    2  505  506 -0.17984847490E+03 -0.11162294877E+02 -0.43369979042E+02  0.18534029738E+03  0.00000000000E+00 0.  1.
         21    1    1    2  506  502  0.65807412775E+02  0.64822086999E+02 -0.10895201723E+04  0.10934288840E+04  0.00000000000E+00 0.  1.
<scales pt_clust_3="99.96414" pt_clust_4="14000.00000" pt_clust_5="123.28105" pt_clust_6="92.37163"></scales>
<clustering>
<clus scale="   92.372">  2  6  1 -1</clus>
<clus scale="   99.964">  1  3  2 -1</clus>
<clus scale="  123.281">  2  5  1 -1</clus>
<clus scale="   99.964">  1  3  2 -1</clus>
</clustering>
</event>
<event>
 6    0  0.1221518E+003  0.1278287E+03  0.7546771E-02  0.1230714E+00
         21   -1    0    0  506  501  0.00000000000E+00  0.00000000000E+00  0.20485483926E+03  0.20485483926E+03  0.00000000000E+00 0.  1.
         21   -1    0    0  505  502 -0.00000000000E+00 -0.00000000000E+00 -0.10968346812E+04  0.10968346812E+04  0.00000000000E+00 0.  1.
         21    1    1    2  503  501  0.31916784946E+01  0.44053141547E+02  0.31473992082E+02  0.54235396831E+02  0.00000000000E+00 0.  1.
         21    1    1    2  504  502  0.54658685266E+02  0.31915212371E+01 -0.89451845767E+03  0.89619251771E+03  0.00000000000E+00 0.  1.
         21    1    1    2  505  503 -0.19864338005E+02  0.11615307771E+03 -0.11331368880E+03  0.16348125720E+03  0.00000000000E+00 0.  1.
         21    1    1    2  506  504 -0.37986025756E+02 -0.16339774049E+03  0.84378312460E+02  0.18778034872E+03  0.00000000000E+00 0.  1.
<scales pt_clust_3="44.16861" pt_clust_4="54.78198" pt_clust_5="14000.00000" pt_clust_6="127.82867"></scales>
<clustering>
<clus scale="   44.169">  1  3  2 -1</clus>
<clus scale="   54.782">  2  4  1 -1</clus>
<clus scale="  127.829">  1  6  2 -1</clus>
<clus scale="   44.169">  1  3  2 -1</clus>
</clustering>
</event>
<event>
 6    0  0.1221518E+003  0.2001938E+03  0.7546771E-02  0.1149576E+00
         21   -1    0    0  505  501  0.00000000000E+00  0.00000000000E+00  0.13494045812E+04  0.13494045812E+04  0.00000000000E+00 0.  1.
         21   -1    0    0  503  502 -0.00000000000E+00 -0.00000000000E+00 -0.35053186345E+03  0.35053186345E+03  0.00000000000E+00 0.  1.
         21    1    1    2  503  501  0.72359908751E+02 -0.19417950550E+03  0.17039019152E+03  0.26828055114E+03  0.00000000000E+00 0.  1.
         21    1    1    2  504  506  0.30855998903E+02  0.66109819934E+02  0.11940775095E+03  0.13993145446E+03  0.00000000000E+00 0.  1.
         21    1    1    2  505  504  0.86093176084E-01 -0.42700378661E+02  0.96568911029E+03  0.96663270558E+03  0.00000000000E+00 0.  1.
         21    1    1    2  506  502 -0.10330200083E+03  0.17077006423E+03 -0.25661433504E+03  0.32509173345E+03  0.00000000000E+00 0.  1.
<scales pt_clust_3="14000.00000" pt_clust_4="60.19036" pt_clust_5="42.70047" pt_clust_6="200.19376"></scales>
<clustering>
<clus scale="   42.700">  1  5  2 -1</clus>
<clus scale="   60.190">  1  4  2 -1</clus>
<clus scale="  200.194">  2  6  1 -1</clus>
<clus scale="   42.700">  1  3  2 -1</clus>
</clustering>
</event>
<event>
 6    0  0.1221518E+003  0.1446989E+03  0.7546771E-02  0.1207142E+00
         21   -1    0    0  504  501  0.00000000000E+00  0.00000000000E+00  0.11867173808E+04  0.11867173808E+04  0.00000000000E+00 0.  1.
         21   -1    0    0  506  502 -0.00000000000E+00 -0.00000000000E+00 -0.25974061971E+03  0.25974061971E+03  0.00000000000E+00 0. -1.
         21    1    1    2  503  505 -0.58990405471E+02 -0.12803477481E+03  0.58103388977E+03  0.59789058578E+03  0.00000000000E+00 0.  1.
         21    1    1    2  504  503 -0.32593509476E+02  0.99843024587E+01  0.53250167907E+03  0.53359166164E+03  0.00000000000E+00 0.  1.
         21    1    1    2  505  502 -0.78856457842E+01  0.13851970845E+03 -0.56116553594E+02  0.14966282313E+03  0.00000000000E+00 0. -1.
         21    1    1    2  506  501  0.99469560731E+02 -0.20469236104E+02 -0.13044225417E+03  0.16531292996E+03  0.00000000000E+00 0. -1.
<scales pt_clust_3="144.69894" pt_clust_4="34.08846" pt_clust_5="14000.00000" pt_clust_6="100.64868"></scales>
<clustering>
<clus scale="   34.088">  1  4  2 -1</clus>
<clus scale="  100.649">  2  6  1 -1</clus>
<clus scale="  144.699">  1  3  2 -1</clus>
<clus scale="   34.088">  1  3  2 -1</clus>
</clustering>
</event>
<event>
 6    0  0.1221518E+003  0.9945526E+02  0.7546771E-02  0.1281446E+00
         21   -1    0    0  505  501  0.00000000000E+00  0.00000000000E+00  0.12700716582E+03  0.12700716582E+03  0.00000000000E+00 0.  1.
         21   -1    0    0  504  502 -0.00000000000E+00 -0.00000000000E+00 -0.12550633215E+04  0.12550633215E+04  0.00000000000E+00 0. -1.
         21    1    1    2  503  506  0.45074604004E+02 -0.10258473911E+03 -0.52409190201E+02  0.12370154341E+03  0.00000000000E+00 0.  1.
         21    1    1    2  504  503  0.37526268206E+02  0.11102613990E+01 -0.10641129266E+04  0.10647749875E+04  0.00000000000E+00 0. -1.
         21    1    1    2  505  502 -0.81781155025E+02  0.63468745269E+02 -0.69204293113E+02  0.12452177773E+03  0.00000000000E+00 0.  1.
         21    1    1    2  506  501 -0.81971718458E+00  0.38005732446E+02  0.57670254256E+02  0.69072178632E+02  0.00000000000E+00 0.  1.
<scales pt_clust_3="14000.00000" pt_clust_4="37.54269" pt_clust_5="99.45526" pt_clust_6="38.04014"></scales>
<clustering>
<clus scale="   37.543">  2  4  1 -1</clus>
<clus scale="   38.040">  1  6  2 -1</clus>
<clus scale="   99.455">  2  5  1 -1</clus>
<clus scale="   38.040">  1  3  2 -1</clus>
</clustering>
</event>
<event>
 6    0  0.1221518E+003  0.1195963E+03  0.7546771E-02  0.1243765E+00
         21   -1    0    0  506  501  0.00000000000E+00  0.00000000000E+00  0.29403543611E+04  0.29403543611E+04  0.00000000000E+00 0. -1.
         21   -1    0    0  503  502 -0.00000000000E+00 -0.00000000000E+00 -0.34044621096E+02  0.34044621096E+02  0.00000000000E+00 0. -1.
         21    1    1    2  503  504 -0.14448845899E+02  0.16226670324E+03  0.22610992798E+03  0.27868432260E+03  0.00000000000E+00 0. -1.
         21    1    1    2  504  501  0.36988994590E+02 -0.39070322177E+02  0.10564420256E+04  0.10578111501E+04  0.00000000000E+00 0. -1.
         21    1    1    2  505  502  0.31984341819E+02 -0.41671073905E+02  0.12053370441E+03  0.13148327049E+03  0.00000000000E+00 0. -1.
         21    1    1    2  506  505 -0.54524490511E+02 -0.81525307159E+02  0.15032240821E+04  0.15064202391E+04  0.00000000000E+00 0. -1.
<scales pt_clust_3="14000.00000" pt_clust_4="55.05431" pt_clust_5="52.53072" pt_clust_6="119.59631"></scales>
<clustering>
<clus scale="   52.531">  2  5  1 -1</clus>
<clus scale="   55.054">  1  4  2 -1</clus>
<clus scale="  119.596">  1  6  2 -1</clus>
<clus scale="   55.054">  1  3  2 -1</clus>
</clustering>
</event>
<event>
 6    0  0.1221518E+003  0.8956175E+02  0.7546771E-02  0.1303916E+00
         21   -1    0    0  505  501  0.00000000000E+00  0.00000000000E+00  0.11570220799E+04  0.11570220799E+04  0.00000000000E+00 0.  1.
         21   -1    0    0  501  502 -0.00000000000E+00 -0.00000000000E+00 -0.56160858838E+03  0.56160858838E+03  0.00000000000E+00 0.  1.
         21    1    1    2  503  504 -0.86815390033E+02 -0.22158198861E+02  0.10546748461E+03  0.13838817880E+03  0.00000000000E+00 0. -1.
         21    1    1    2  504  502  0.19805168209E+02 -0.49903991420E+02 -0.53697494743E+03  0.53965243186E+03  0.00000000000E+00 0.  1.
         21    1    1    2  505  506 -0.10774625826E+02  0.32419710365E+02  0.73743281114E+03  0.73822373378E+03  0.00000000000E+00 0.  1.
         21    1    1    2  506  503  0.77784847649E+02  0.39642479916E+02  0.28948814320E+03  0.30236632383E+03  0.00000000000E+00 0.  1.
<scales pt_clust_3="14000.00000" pt_clust_4="53.58142" pt_clust_5="34.16329" pt_clust_6="89.56175"></scales>
<clustering>
<clus scale="   34.163">  1  5  2 -1</clus>
<clus scale="   53.581">  2  4  1 -1</clus>
<clus scale="   89.562">  1  6  2 -1</clus>
<clus scale="   34.163">  1  3  2 -1</clus>
</clustering>
</event>
<event>
 6    0  0.1221518E+003  0.1389779E+03  0.7546771E-02  0.1214711E+00
         21   -1    0    0  506  501  0.00000000000E+00  0.00000000000E+00  0.13875287349E+04  0.13875287349E+04  0.00000000000E+00 0. -1.
         21   -1    0    0  505  502 -0.00000000000E+00 -0.00000000000E+00 -0.51109110533E+03  0.51109110533E+03  0.00000000000E+00 0. -1.
         21    1    1    2  503  501 -0.72497044094E+02 -0.38057806466E+02  0.82749861011E+03  0.83153963692E+03  0.00000000000E+00 0. -1.
         21    1    1    2  504  503  0.49528636676E+02 -0.94954120510E+02 -0.10341236239E+03  0.14887406607E+03  0.00000000000E+00 0. -1.
         21    1    1    2  505  504  0.78495698052E+01 -0.35239488204E+02 -0.36869552182E+03  0.37045893846E+03  0.00000000000E+00 0. -1.
         21    1    1    2  506  502  0.15118837613E+02  0.16825141518E+03  0.52104690367E+03  0.54774719879E+03  0.00000000000E+00 0. -1.
<scales pt_clust_3="82.01543" pt_clust_4="14000.00000" pt_clust_5="36.10315" pt_clust_6="138.97792"></scales>
<clustering>
<clus scale="   36.103">  2  5  1 -1</clus>
<clus scale="   82.015">  1  3  2 -1</clus>
<clus scale="  138.978">  1  6  2 -1</clus>
<clus scale="   82.015">  1  3  2 -1</clus>
</clustering>
</event>
<event>
 6    0  0.1221518E+003  0.1277107E+03  0.7546771E-02  0.1230893E+00
         21   -1    0    0  503  501  0.00000000000E+00  0.00000000000E+00  0.25588343517E+03  0.25588343517E+03  0.00000000000E+00 0. -1.
         21   -1    0    0  505  502 -0.00000000000E+00 -0.00000000000E+00 -0.75003754754E+03  0.75003754754E+03  0.00000000000E+00 0. -1.
         21    1    1    2  503  506 -0.84940744179E+02  0.53670069207E+02  0.66018423446E+02  0.12022411815E+03  0.00000000000E+00 0. -1.
         21    1    1    2  504  501  0.18487009134E+02  0.57294166921E+02  0.13719322162E+03  0.14982113045E+03  0.00000000000E+00 0. -1.
         21    1    1    2  505  504  0.85850835815E+02 -0.14321662837E+03 -0.36493708580E+03  0.40132336743E+03  0.00000000000E+00 0. -1.
         21    1    1    2  506  502 -0.19397100769E+02  0.32252392241E+02 -0.33242867164E+03  0.33455236668E+03  0.00000000000E+00 0. -1.
<scales pt_clust_3="14000.00000" pt_clust_4="60.57941" pt_clust_5="127.71069" pt_clust_6="37.63594"></scales>
<clustering>
<clus scale="   37.636">  2  6  1 -1</clus>
<clus scale="   60.579">  1  4  2 -1</clus>
<clus scale="  127.711">  2  5  1 -1</clus>
<clus scale="   60.579">  1  3  2 -1</clus>
</clustering>
</event>
<event>
 6    0  0.1221518E+003  0.1294578E+03  0.7546771E-02  0.1228263E+00
         21   -1    0    0  506  501  0.00000000000E+00  0.00000000000E+00  0.15577051217E+03  0.15577051217E+03  0.00000000000E+00 0.  1.
         21   -1    0    0  505  502 -0.00000000000E+00 -0.00000000000E+00 -0.13246813351E+04  0.13246813351E+04  0.00000000000E+00 0. -1.
         21    1    1    2  503  502  0.75719476559E+02 -0.47545731851E+02 -0.11171075652E+04  0.11206798597E+04  0.00000000000E+00 0. -1.
         21    1    1    2  504  503 -0.11729513232E+03  0.92297208344E+02  0.91803164226E+02  0.17522769101E+03  0.00000000000E+00 0.  1.
         21    1    1    2  505  501  0.40155735981E+02 -0.12717535980E+02 -0.14641757128E+03  0.15235591237E+03  0.00000000000E+00 0.  1.
         21    1    1    2  506  504  0.14199197838E+01 -0.32033940512E+02  0.28111493030E+01  0.32188384199E+02  0.00000000000E+00 0.  1.
<scales pt_clust_3="129.45777" pt_clust_4="14000.00000" pt_clust_5="42.36317" pt_clust_6="32.06539"></scales>
<clustering>
<clus scale="   32.065">  1  6  2 -1</clus>
<clus scale="   42.363">  2  5  1 -1</clus>
<clus scale="  129.458">  2  3  1 -1</clus>
<clus scale="   32.065">  1  3  2 -1</clus>
</clustering>
</event>
<event>
 6    0  0.1221518E+003  0.2134566E+03  0.7546771E-02  0.1138858E+00
         21   -1    0    0  505  501  0.00000000000E+00  0.00000000000E+00  0.10559048820E+04  0.10559048820E+04  0.00000000000E+00 0.  1.
         21   -1    0    0  504  502 -0.00000000000E+00 -0.00000000000E+00 -0.43101561710E+03  0.43101561710E+03  0.00000000000E+00 0.  1.
         21    1    1    2  503  502 -0.12334628544E+03 -0.62668853090E+02  0.32994428118E+03  0.35777775219E+03  0.00000000000E+00 0.  1.
         21    1    1    2  504  501  0.17899076347E+03  0.12799600384E+03 -0.37953640861E+03  0.43871238399E+03  0.00000000000E+00 0.  1.
         21    1    1    2  505  506  0.26059167252E+01 -0.34382601793E+02  0.41208605171E+02  0.53731771310E+02  0.00000000000E+00 0.  1.
         21    1    1    2  506  503 -0.58250394752E+02 -0.30944548961E+02  0.63327278711E+03  0.63669859156E+03  0.00000000000E+00 0.  1.
<scales pt_clust_3="14000.00000" pt_clust_4="213.45659" pt_clust_5="34.48121" pt_clust_6="77.27100"></scales>
<clustering>
<clus scale="   34.481">  1  5  2 -1</clus>
<clus scale="   77.271">  1  6  2 -1</clus>
<clus scale="  213.457">  2  4  1 -1</clus>
<clus scale="   34.481">  1  3  2 -1</clus>
</clustering>
</event>
<event>
 6    0  0.1221518E+003  0.8046374E+02  0.7546771E-02  0.1327741E+00
         21   -1    0    0  504  501  0.00000000000E+00  0.00000000000E+00  0.19352540167E+03  0.19352540167E+03  0.00000000000E+00 0.  1.
         21   -1    0    0  505  502 -0.00000000000E+00 -0.00000000000E+00 -0.12604439569E+03  0.12604439569E+03  0.00000000000E+00 0.  1.
         21    1    1    2  503  502  0.10314620084E+03 -0.41105369712E+02  0.10034244886E+02  0.11148756091E+03  0.00000000000E+00 0.  1.
         21    1    1    2  504  503 -0.80169605154E+02 -0.27504390109E+02  0.59292862049E+02  0.10343742338E+03  0.00000000000E+00 0. -1.
         21    1    1    2  505  506 -0.46905952499E+02  0.50403428357E+02 -0.17077808452E+02  0.70938885750E+02  0.00000000000E+00 0.  1.
         21    1    1    2  506  501  0.23929356809E+02  0.18206331464E+02  0.15231707493E+02  0.33705927310E+02  0.00000000000E+00 0.  1.
<scales pt_clust_3="80.46374" pt_clust_4="14000.00000" pt_clust_5="68.54471" pt_clust_6="30.06800"></scales>
<clustering>
<clus scale="   30.068">  1  6  2 -1</clus>
<clus scale="   68.545">  2  5  1 -1</clus>
<clus scale="   80.464">  2  3  1 -1</clus>
<clus scale="   30.068">  1  3  2 -1</clus>
</clustering>
</event>
<event>
 6    0  0.1221518E+003  0.8372002E+02  0.7546771E-02  0.1318814E+00
         21   -1    0    0  503  501  0.00000000000E+00  0.00000000000E+00  0.79324041160E+02  0.79324041160E+02  0.00000000000E+00 0.  1.
         21   -1    0    0  505  502 -0.00000000000E+00 -0.00000000000E+00 -0.29402712668E+03  0.29402712668E+03  0.00000000000E+00 0. -1.
         21    1    1    2  503  504 -0.97141086856E+01  0.73688521439E+02 -0.69852942608E+02  0.10199899848E+03  0.00000000000E+00 0.  1.
         21    1    1    2  504  502 -0.57045190498E+02  0.13818232881E+02 -0.10835584800E+03  0.12323184294E+03  0.00000000000E+00 0. -1.
         21    1    1    2  505  506  0.33603723822E+02 -0.87831210121E+02 -0.56196036864E+02  0.10955147779E+03  0.00000000000E+00 0.  1.
         21    1    1    2  506  501  0.33155575362E+02  0.32445580066E+00  0.19701741951E+02  0.38568848635E+02  0.00000000000E+00 0.  1.
<scales pt_clust_3="83.72002" pt_clust_4="53.94414" pt_clust_5="14000.00000" pt_clust_6="33.15716"></scales>
<clustering>
<clus scale="   33.157">  1  6  2 -1</clus>
<clus scale="   53.944">  2  4  1 -1</clus>
<clus scale="   83.720">  1  3  2 -1</clus>
<clus scale="   33.157">  1  3  2 -1</clus>
</clustering>
</event>
<event>
 6    0  0.1221518E+003  0.8896560E+02  0.7546771E-02  0.1305376E+00
         21   -1    0    0  504  501  0.00000000000E+00  0.00000000000E+00  0.93859091115E+03  0.93859091115E+03  0.00000000000E+00 0.  1.
         21   -1    0    0  506  502 -0.00000000000E+00 -0.00000000000E+00 -0.78671051739E+02  0.78671051739E+02  0.00000000000E+00 0. -1.
         21    1    1    2  503  505  0.35983298686E+02 -0.63832379490E+02  0.29431953253E+02  0.78965880784E+02  0.00000000000E+00 0. -1.
         21    1    1    2  504  502 -0.55193751933E+02  0.43299370574E+02  0.38038362105E+03  0.38679824832E+03  0.00000000000E+00 0.  1.
         21    1    1    2  505  501  0.34199970596E+02  0.61361911508E+02  0.48847340016E+03  0.49349892080E+03  0.00000000000E+00 0.  1.
         21    1    1    2  506  503 -0.14989517349E+02 -0.40828902592E+02 -0.38369115047E+02  0.57998912978E+02  0.00000000000E+00 0. -1.
<scales pt_clust_3="14000.00000" pt_clust_4="88.96560" pt_clust_5="66.71046" pt_clust_6="43.49350"></scales>
<clustering>
<clus scale="   43.494">  2  6  1 -1</clus>
<clus scale="   66.710">  1  5  2 -1</clus>
<clus scale="   88.966">  1  4  2 -1</clus>
<clus scale="   66.710">  1  3  2 -1</clus>
</clustering>
</event>
<event>
 6    0  0.1221518E+003  0.1084243E+03  0.7546771E-02  0.1263516E+00
         21   -1    0    0  503  501  0.00000000000E+00  0.00000000000E+00  0.32917648269E+03  0.32917648269E+03  0.00000000000E+00 0.  1.
         21   -1    0    0  506  502 -0.00000000000E+00 -0.00000000000E+00 -0.92299148946E+03  0.92299148946E+03  0.00000000000E+00 0.  1.
         21    1    1    2  503  502  0.60110768023E+02  0.10894256057E+03  0.29924329951E+03  0.32408075882E+03  0.00000000000E+00 0.  1.
         21    1    1    2  504  505 -0.18637417498E+02 -0.65762182461E+02 -0.73721503001E+03  0.74037694348E+03  0.00000000000E+00 0.  1.
         21    1    1    2  505  501 -0.34939566188E+02 -0.17482429815E+01 -0.10632969154E+02  0.36563501910E+02  0.00000000000E+00 0. -1.
         21    1    1    2  506  504 -0.65337843363E+01 -0.41432135131E+02 -0.14521030712E+03  0.15114676792E+03  0.00000000000E+00 0. -1.
<scales pt_clust_3="108.42425" pt_clust_4="14000.00000" pt_clust_5="34.98328" pt_clust_6="42.01268"></scales>
<clustering>
<clus scale="   34.983">  1  5  2 -1</clus>
<clus scale="   42.013">  2  6  1 -1</clus>
<clus scale="  108.424">  1  3  2 -1</clus>
<clus scale="   34.983">  1  3  2 -1</clus>
</clustering>
</event>
<event>
 6    0  0.1221518E+003  0.6380458E+02  0.7546771E-02  0.1382525E+00
         21   -1    0    0  506  501  0.00000000000E+00  0.00000000000E+00  0.35544893104E+02  0.35544893104E+02  0.00000000000E+00 0. -1.
         21   -1    0    0  503  502 -0.00000000000E+00 -0.00000000000E+00 -0.16962006062E+04  0.16962006062E+04  0.00000000000E+00 0. -1.
         21    1    1    2  503  501 -0.22617090131E+02  0.46965849454E+02 -0.27054237931E+03  0.27551860697E+03  0.00000000000E+00 0. -1.
         21    1    1    2  504  502 -0.21753682152E+02 -0.64540881160E+02 -0.79198394131E+03  0.79490710861E+03  0.00000000000E+00 0. -1.
         21    1    1    2  505  504  0.74556492259E+02 -0.38216903081E+02 -0.59165329405E+03  0.59755570667E+03  0.00000000000E+00 0. -1.
         21    1    1    2  506  505 -0.30185719976E+02  0.55791934787E+02 -0.64760984782E+01  0.63764077107E+02  0.00000000000E+00 0. -1.
<scales pt_clust_3="52.12796" pt_clust_4="51.49803" pt_clust_5="14000.00000" pt_clust_6="63.80458"></scales>
<clustering>
<clus scale="   52.128">  2  3  1 -1</clus>
<clus scale="   51.498">  2  4  1 -1</clus>
<clus scale="   63.805">  1  6  2 -1</clus>
<clus scale="   63.805">  1  3  2 -1</clus>
</clustering>
</event>
<event>
 6    0  0.1221518E+003  0.8539144E+02  0.7546771E-02  0.1314412E+00
         21   -1    0    0  506  501  0.00000000000E+00  0.00000000000E+00  0.31399664462E+03  0.31399664462E+03  0.00000000000E+00 0. -1.
         21   -1    0    0  505  502 -0.00000000000E+00 -0.00000000000E+00 -0.15355680777E+04  0.15355680777E+04  0.00000000000E+00 0. -1.
         21    1    1    2  503  501 -0.67972157352E+02 -0.85468400852E+02 -0.12725391156E+03  0.16768607493E+03  0.00000000000E+00 0.  1.
         21    1    1    2  504  502  0.70510625153E+02  0.25722983306E+02 -0.19287830259E+02  0.77494777410E+02  0.00000000000E+00 0.  1.
         21    1    1    2  505  503 -0.22764100386E+02 -0.22535494751E+02 -0.13327282855E+04  0.13331131744E+04  0.00000000000E+00 0. -1.
         21    1    1    2  506  504  0.20225632584E+02  0.82280912297E+02  0.25769859429E+03  0.27127069551E+03  0.00000000000E+00 0. -1.
<scales pt_clust_3="85.39144" pt_clust_4="68.17985" pt_clust_5="32.03206" pt_clust_6="14000.00000"></scales>
<clustering>
<clus scale="   32.032">  2  5  1 -1</clus>
<clus scale="   68.180">  2  4  1 -1</clus>
<clus scale="   85.391">  2  3  1 -1</clus>
<clus scale="   85.391">  1  3  2 -1</clus>
</clustering>
</event>
<event>
 6    0  0.1221518E+003  0.2182941E+03  0.7546771E-02  0.1135161E+00
         21   -1    0    0  505  501  0.00000000000E+00  0.00000000000E+00  0.31548461746E+04  0.31548461746E+04  0.00000000000E+00 0.  1.
         21   -1    0    0  503  502 -0.00000000000E+00 -0.00000000000E+00 -0.99209757323E+02  0.99209757323E+02  0.00000000000E+00 0. -1.
         21    1    1    2  503  506  0.38951196416E+02 -0.69342039304E+02 -0.36795255192E+02  0.87632213950E+02  0.00000000000E+00 0. -1.
         21    1    1    2  504  501 -0.15206735616E+01  0.41188179971E+02  0.72355001175E+03  0.72472298026E+03  0.00000000000E+00 0.  1.
         21    1    1    2  505  502 -0.16252557695E+03 -0.98481517349E+02  0.24349809439E+03  0.30887617972E+03  0.00000000000E+00 0. -1.
         21    1    1    2  506  504  0.12509505410E+03  0.12663537668E+03  0.21253835663E+04  0.21328245580E+04  0.00000000000E+00 0.  1.
<scales pt_clust_3="79.53310" pt_clust_4="36.39308" pt_clust_5="204.77371" pt_clust_6="36.39308"></scales>
<clustering>
<clus scale="   36.393">  4  6 -1 -1</clus>
<clus scale="   79.533">  2  3  1 -1</clus>
<clus scale="  204.774">  2  5  1 -1</clus>
<clus scale="  218.294">  1  3  2 -1</clus>
</clustering>
</event>
<event>
 6    0  0.1221518E+003  0.1249486E+03  0.7546771E-02  0.1235150E+00
         21   -1    0    0  504  501  0.00000000000E+00  0.00000000000E+00  0.10705309411E+04  0.10705309411E+04  0.00000000000E+00 0. -1.
         21   -1    0    0  503  502 -0.00000000000E+00 -0.00000000000E+00 -0.26963183009E+03  0.26963183009E+03  0.00000000000E+00 0. -1.
         21    1    1    2  503  506 -0.41241559070E+02  0.25751929683E+00 -0.21108080727E+03  0.21507217325E+03  0.00000000000E+00 0. -1.
         21    1    1    2  504  505 -0.21870270775E+02  0.32293413624E+02  0.43173869892E+03  0.43349680212E+03  0.00000000000E+00 0. -1.
         21    1    1    2  505  502 -0.10922697941E+02 -0.11911256765E+03  0.21710135033E+02  0.12156660341E+03  0.00000000000E+00 0. -1.
         21    1    1    2  506  501  0.74034527786E+02  0.86561634725E+02  0.55853108435E+03  0.57002719242E+03  0.00000000000E+00 0. -1.
<scales pt_clust_3="41.31154" pt_clust_4="39.00222" pt_clust_5="14000.00000" pt_clust_6="124.94857"></scales>
<clustering>
<clus scale="   39.002">  1  4  2 -1</clus>
<clus scale="   41.312">  2  3  1 -1</clus>
<clus scale="  124.949">  1  6  2 -1</clus>
<clus scale="   39.002">  1  3  2 -1</clus>
</clustering>
</event>
<event>
 6    0  0.1221518E+003  0.9439936E+02  0.7546771E-02  0.1292535E+00
         21   -1    0    0  505  501  0.00000000000E+00  0.00000000000E+00  0.60201532336E+03  0.60201532336E+03  0.00000000000E+00 0. -1.
         21   -1    0    0  506  502 -0.00000000000E+00 -0.00000000000E+00 -0.47332461585E+02  0.47332461585E+02  0.00000000000E+00 0. -1.
         21    1    1    2  503  502 -0.29826962425E+01  0.82274798850E+02  0.52785379553E+02  0.97797419686E+02  0.00000000000E+00 0. -1.
         21    1    1    2  504  503 -0.22893146284E+01 -0.11580826951E+03  0.35809679735E+03  0.37636433482E+03  0.00000000000E+00 0. -1.
         21    1    1    2  505  504 -0.25887742268E+02  0.25518835899E+02  0.13772754320E+03  0.14244389190E+03  0.00000000000E+00 0.  1.
         21    1    1    2  506  501  0.31159753139E+02  0.80146347628E+01  0.60731416689E+01  0.32742138534E+02  0.00000000000E+00 0. -1.
<scales pt_clust_3="94.39936" pt_clust_4="14000.00000" pt_clust_5="35.25388" pt_clust_6="32.17397"></scales>
<clustering>
<clus scale="   32.174">  2  6  1 -1</clus>
<clus scale="   35.254">  1  5  2 -1</clus>
<clus scale="   94.399">  2  3  1 -1</clus>
<clus scale="   35.254">  1  3  2 -1</clus>
</clustering>
</event>
<event>
 6    0  0.1221518E+003  0.1199028E+03  0.7546771E-02  0.1243258E+00
         21   -1    0    0  504  501  0.00000000000E+00  0.00000000000E+00  0.11694299304E+04  0.11694299304E+04  0.00000000000E+00 0.  1.
         21   -1    0    0  505  502 -0.00000000000E+00 -0.00000000000E+00 -0.33603815710E+03  0.33603815710E+03  0.00000000000E+00 0. -1.
         21    1    1    2  503  501  0.13877092153E+02  0.10228393728E+03  0.70393654473E+03  0.71146414985E+03  0.00000000000E+00 0.  1.
         21    1    1    2  504  502  0.96528242951E+02  0.17943866853E+02  0.30893985523E+03  0.32416588068E+03  0.00000000000E+00 0. -1.
         21    1    1    2  505  506 -0.12268887572E+02 -0.79053450799E+02 -0.29916895836E+03  0.30968054400E+03  0.00000000000E+00 0. -1.
         21    1    1    2  506  503 -0.98136447532E+02 -0.41174353334E+02  0.11968433168E+03  0.16015751295E+03  0.00000000000E+00 0.  1.
<scales pt_clust_3="119.90276" pt_clust_4="93.58009" pt_clust_5="79.99984" pt_clust_6="14000.00000"></scales>
<clustering>
<clus scale="   80.000">  2  5  1 -1</clus>
<clus scale="   93.580">  1  4  2 -1</clus>
<clus scale="  119.903">  1  3  2 -1</clus>
<clus scale="   93.580">  1  3  2 -1</clus>
</clustering>
</event>
<event>
 6    0  0.1221518E+003  0.1315501E+03  0.7546771E-02  0.1225174E+00
         21   -1    0    0  506  501  0.00000000000E+00  0.00000000000E+00  0.43167292168E+03  0.43167292168E+03  0.00000000000E+00 0.  1.
         21   -1    0    0  505  502 -0.00000000000E+00 -0.00000000000E+00 -0.11149615246E+03  0.11149615246E+03  0.00000000000E+00 0. -1.
         21    1    1    2  503  504 -0.69964093609E+02 -0.58125264946E+02  0.12017505340E+03  0.15071683476E+03  0.00000000000E+00 0.  1.
         21    1    1    2  504  502  0.11909014439E+03  0.15961749708E+02 -0.13678433107E+02  0.12093113526E+03  0.00000000000E+00 0. -1.
         21    1    1    2  505  501 -0.32322400863E+02  0.91083393929E+02  0.71491335668E+02  0.12021619410E+03  0.00000000000E+00 0. -1.
         21    1    1    2  506  503 -0.16803649915E+02 -0.48919878691E+02  0.14218881325E+03  0.15130491002E+03  0.00000000000E+00 0.  1.
<scales pt_clust_3="43.93911" pt_clust_4="117.94233" pt_clust_5="96.64845" pt_clust_6="43.93911"></scales>
<clustering>
<clus scale="   43.939">  3  6 -1 -1</clus>
<clus scale="   96.648">  1  5  2 -1</clus>
<clus scale="  117.942">  2  4  1 -1</clus>
<clus scale="   96.648">  1  3  2 -1</clus>
</clustering>
</event>
<event>
 6    0  0.1221518E+003  0.6901949E+02  0.7546771E-02  0.1363459E+00
         21   -1    0    0  503  501  0.00000000000E+00  0.00000000000E+00  0.21524928872E+04  0.21524928872E+04  0.00000000000E+00 0. -1.
         21   -1    0    0  505  502 -0.00000000000E+00 -0.00000000000E+00 -0.10965208850E+03  0.10965208850E+03  0.00000000000E+00 0. -1.
         21    1    1    2  503  506 -0.32034817579E+02  0.82573311429E+02  0.37155033614E+02  0.96047268678E+02  0.00000000000E+00 0.  1.
         21    1    1    2  504  501  0.42122024265E+02 -0.54229630998E+02  0.18087035559E+04  0.18100065389E+04  0.00000000000E+00 0. -1.
         21    1    1    2  505  504  0.25819756592E+02 -0.66534209874E+02  0.26258886088E+03  0.27211462800E+03  0.00000000000E+00 0. -1.
         21    1    1    2  506  502 -0.35906963278E+02  0.38190529443E+02 -0.65606651665E+02  0.83976540139E+02  0.00000000000E+00 0. -1.
<scales pt_clust_3="69.01949" pt_clust_4="14000.00000" pt_clust_5="64.78492" pt_clust_6="52.41972"></scales>
<clustering>
<clus scale="   52.420">  2  6  1 -1</clus>
<clus scale="   64.785">  2  5  1 -1</clus>
<clus scale="   69.019">  2  3  1 -1</clus>
<clus scale="   69.019">  1  3  2 -1</clus>
</clustering>
</event>
<event>
 6    0  0.1221518E+003  0.1488473E+03  0.7546771E-02  0.1201897E+00
         21   -1    0    0  504  501  0.00000000000E+00  0.00000000000E+00  0.42534844925E+03  0.42534844925E+03  0.00000000000E+00 0. -1.
         21   -1    0    0  506  502 -0.00000000000E+00 -0.00000000000E+00 -0.26172110789E+03  0.26172110789E+03  0.00000000000E+00 0.  1.
         21    1    1    2  503  502  0.47670053562E+01 -0.12410042268E+03 -0.27312081467E+02  0.12715969897E+03  0.00000000000E+00 0. -1.
         21    1    1    2  504  503 -0.58764004181E+01 -0.29700932321E+02  0.79699843274E+02  0.85256920426E+02  0.00000000000E+00 0. -1.
         21    1    1    2  505  501  0.13763128455E+03  0.10665307964E+03  0.22943334660E+03  0.28802241304E+03  0.00000000000E+00 0. -1.
         21    1    1    2  506  505 -0.13652188949E+03  0.47148275360E+02 -0.11819376704E+03  0.18663052469E+03  0.00000000000E+00 0.  1.
<scales pt_clust_3="128.48459" pt_clust_4="30.27668" pt_clust_5="148.84728" pt_clust_6="14000.00000"></scales>
<clustering>
<clus scale="   30.277">  1  4  2 -1</clus>
<clus scale="  128.485">  2  3  1 -1</clus>
<clus scale="  148.847">  1  5  2 -1</clus>
<clus scale="   30.277">  1  3  2 -1</clus>
</clustering>
</event>
<event>
 6    0  0.1221518E+003  0.1144533E+03  0.7546771E-02  0.1252538E+00
         21   -1    0    0  504  501  0.00000000000E+00  0.00000000000E+00  0.58704482037E+03  0.58704482037E+03  0.00000000000E+00 0. -1.
         21   -1    0    0  505  502 -0.00000000000E+00 -0.00000000000E+00 -0.79480352125E+02  0.79480352125E+02  0.00000000000E+00 0. -1.
         21    1    1    2  503  501  0.55090671005E+02 -0.66327842677E+01  0.30973760992E+03  0.31466865566E+03  0.00000000000E+00 0. -1.
         21    1    1    2  504  506 -0.31503442722E+02  0.20887365816E+01  0.90907007707E+02  0.96233641592E+02  0.00000000000E+00 0. -1.
         21    1    1    2  505  503 -0.25415620091E+02  0.11541265764E+03  0.34224239495E+02  0.12303387280E+03  0.00000000000E+00 0. -1.
         21    1    1    2  506  502  0.18283918080E+01 -0.11086860995E+03  0.72695611127E+02  0.13258900244E+03  0.00000000000E+00 0. -1.
<scales pt_clust_3="35.55851" pt_clust_4="31.57261" pt_clust_5="14000.00000" pt_clust_6="114.45332"></scales>
<clustering>
<clus scale="   31.573">  1  4  2 -1</clus>
<clus scale="   35.559">  1  3  2 -1</clus>
<clus scale="  114.453">  1  6  2 -1</clus>
<clus scale="   31.573">  1  3  2 -1</clus>
</clustering>
</event>
<event>
 6    0  0.1221518E+003  0.1541872E+03  0.7546771E-02  0.1195420E+00
         21   -1    0    0  505  501  0.00000000000E+00  0.00000000000E+00  0.82642813540E+03  0.82642813540E+03  0.00000000000E+00 0.  1.
         21   -1    0    0  504  502 -0.00000000000E+00 -0.00000000000E+00 -0.34642694943E+03  0.34642694943E+03  0.00000000000E+00 0.  1.
         21    1    1    2  503  506  0.16567489687E+03  0.36426358741E+01  0.11508387896E+02  0.16611406696E+03  0.00000000000E+00 0.  1.
         21    1    1    2  504  501 -0.14171376651E+03 -0.10166552674E+02  0.43785282203E+02  0.14867179069E+03  0.00000000000E+00 0.  1.
         21    1    1    2  505  503 -0.38446599027E+02 -0.28943493076E+02  0.63878272607E+03  0.64059287999E+03  0.00000000000E+00 0.  1.
         21    1    1    2  506  502  0.14485468659E+02  0.35467409876E+02 -0.21407521020E+03  0.21747634719E+03  0.00000000000E+00 0.  1.
<scales pt_clust_3="14000.00000" pt_clust_4="154.18715" pt_clust_5="47.89570" pt_clust_6="38.31143"></scales>
<clustering>
<clus scale="   38.311">  2  6  1 -1</clus>
<clus scale="   47.896">  1  5  2 -1</clus>
<clus scale="  154.187">  2  4  1 -1</clus>
<clus scale="   47.896">  1  3  2 -1</clus>
</clustering>
</event>
<event>
 6    0  0.1221518E+003  0.1776102E+03  0.7546771E-02  0.1170136E+00
         21   -1    0    0  506  501  0.00000000000E+00  0.00000000000E+00  0.94567193976E+03  0.94567193976E+03  0.00000000000E+00 0.  1.
         21   -1    0    0  504  502 -0.00000000000E+00 -0.00000000000E+00 -0.10301020750E+03  0.10301020750E+03  0.00000000000E+00 0.  1.
         21    1    1    2  503  501  0.71105912412E+02 -0.79337120466E+02  0.64371638889E+02  0.12447544881E+03  0.00000000000E+00 0.  1.
         21    1    1    2  504  503 -0.12602494405E+02 -0.79216112619E+02  0.46081781251E+02  0.92507004745E+02  0.00000000000E+00 0.  1.
         21    1    1    2  505  502  0.23658369224E+02  0.23938849434E+02 -0.34936991936E+02  0.48511651715E+02  0.00000000000E+00 0.  1.
         21    1    1    2  506  505 -0.82161787232E+02  0.13461438365E+03  0.76714530406E+03  0.78318804198E+03  0.00000000000E+00 0.  1.
<scales pt_clust_3="64.46562" pt_clust_4="64.46562" pt_clust_5="33.65690" pt_clust_6="158.82607"></scales>
<clustering>
<clus scale="   33.657">  2  5  1 -1</clus>
<clus scale="   64.466">  3  4 -1 -1</clus>
<clus scale="  158.826">  1  6  2 -1</clus>
<clus scale="  158.826">  1  3  2 -1</clus>
</clustering>
</event>
<event>
 6    0  0.1221518E+003  0.9889740E+02  0.7546771E-02  0.1282632E+00
         21   -1    0    0  504  501  0.00000000000E+00  0.00000000000E+00  0.16932445818E+03  0.16932445818E+03  0.00000000000E+00 0. -1.
         21   -1    0    0  503  502 -0.00000000000E+00 -0.00000000000E+00 -0.37424975631E+03  0.37424975631E+03  0.00000000000E+00 0.  1.
         21    1    1    2  503  506 -0.31539746393E+02 -0.14136281173E+03 -0.56363520907E+02  0.15541893910E+03  0.00000000000E+00 0.  1.
         21    1    1    2  504  505  0.13919377515E+02  0.54509216249E+02 -0.29125036894E+02  0.63350386744E+02  0.00000000000E+00 0.  1.
         21    1    1    2  505  502 -0.33669441859E+02  0.87060115131E+02 -0.20488413937E+03  0.22514574286E+03  0.00000000000E+00 0.  1.
         21    1    1    2  506  501  0.51289810737E+02 -0.20651965190E+00  0.85447399043E+02  0.99659145787E+02  0.00000000000E+00 0. -1.
<scales pt_clust_3="14000.00000" pt_clust_4="60.07469" pt_clust_5="98.89740" pt_clust_6="51.29023"></scales>
<clustering>
<clus scale="   51.290">  1  6  2 -1</clus>
<clus scale="   60.075">  1  4  2 -1</clus>
<clus scale="   98.897">  2  5  1 -1</clus>
<clus scale="   51.290">  1  3  2 -1</clus>
</clustering>
</event>
<event>
 6    0  0.1221518E+003  0.1185306E+03  0.7546771E-02  0.1245541E+00
         21   -1    0    0  504  501  0.00000000000E+00  0.00000000000E+00  0.11858384913E+04  0.11858384913E+04  0.00000000000E+00 0.  1.
         21   -1    0    0  506  502 -0.00000000000E+00 -0.00000000000E+00 -0.27766179242E+03  0.27766179242E+03  0.00000000000E+00 0.  1.
         21    1    1    2  503  505  0.23621953878E+02  0.96228103591E+02  0.98631903857E+03  0.99128355705E+03  0.00000000000E+00 0.  1.
         21    1    1    2  504  502 -0.13386552862E+03 -0.28381585660E+02  0.11239696779E+03  0.17708351850E+03  0.00000000000E+00 0. -1.
         21    1    1    2  505  501 -0.31562438540E+01 -0.34651972567E+02  0.29341660154E+02  0.45515427041E+02  0.00000000000E+00 0. -1.
         21    1    1    2  506  503  0.11339981859E+03 -0.33194545363E+02 -0.21988096766E+03  0.24961778110E+03  0.00000000000E+00 0.  1.
<scales pt_clust_3="69.60538" pt_clust_4="14000.00000" pt_clust_5="34.79542" pt_clust_6="118.53062"></scales>
<clustering>
<clus scale="   34.795">  1  5  2 -1</clus>
<clus scale="   69.605">  1  3  2 -1</clus>
<clus scale="  118.531">  2  6  1 -1</clus>
<clus scale="   34.795">  1  3  2 -1</clus>
</clustering>
</event>
<event>
 6    0  0.1221518E+003  0.1449952E+03  0.7546771E-02  0.1206761E+00
         21   -1    0    0  502  501  0.00000000000E+00  0.00000000000E+00  0.33545380816E+02  0.33545380816E+02  0.00000000000E+00 0.  1.
         21   -1    0    0  503  502 -0.00000000000E+00 -0.00000000000E+00 -0.92696593299E+03  0.92696593299E+03  0.00000000000E+00 0. -1.
         21    1    1    2  503  505 -0.56531334105E+02 -0.10843312347E+02 -0.21549905083E+03  0.22305427606E+03  0.00000000000E+00 0. -1.
         21    1    1    2  504  501  0.47780583166E+02  0.58330578978E+01 -0.39047726170E+02  0.61981719976E+02  0.00000000000E+00 0.  1.
         21    1    1    2  505  506 -0.79531436276E+02  0.68899125176E+02 -0.38673542064E+03  0.40079499047E+03  0.00000000000E+00 0. -1.
         21    1    1    2  506  504  0.88282187215E+02 -0.63888870727E+02 -0.25213835453E+03  0.27468032731E+03  0.00000000000E+00 0.  1.
<scales pt_clust_3="48.81875" pt_clust_4="48.13532" pt_clust_5="48.81875" pt_clust_6="128.08442"></scales>
<clustering>
<clus scale="   48.135">  1  4  2 -1</clus>
<clus scale="   48.819">  3  5 -1 -1</clus>
<clus scale="  128.084">  1  6  2 -1</clus>
<clus scale="   48.135">  1  3  2 -1</clus>
</clustering>
</event>
<event>
 6    0  0.1221518E+003  0.8676667E+02  0.7546771E-02  0.1310876E+00
         21   -1    0    0  504  501  0.00000000000E+00  0.00000000000E+00  0.19934391602E+03  0.19934391602E+03  0.00000000000E+00 0.  1.
         21   -1    0    0  506  502 -0.00000000000E+00 -0.00000000000E+00 -0.21046848972E+03  0.21046848972E+03  0.00000000000E+00 0. -1.
         21    1    1    2  503  502 -0.35863402819E+02 -0.34843013861E+02 -0.98033223908E+02  0.11004877222E+03  0.00000000000E+00 0. -1.
         21    1    1    2  504  503 -0.20178700578E+02 -0.68389578555E+02  0.18494557809E+02  0.73663851926E+02  0.00000000000E+00 0. -1.
         21    1    1    2  505  501  0.66460220997E+02  0.74004905515E+02  0.12609417065E+03  0.16060332153E+03  0.00000000000E+00 0.  1.
         21    1    1    2  506  505 -0.10418117600E+02  0.29227686901E+02 -0.57680078249E+02  0.65496460078E+02  0.00000000000E+00 0. -1.
<scales pt_clust_3="45.48922" pt_clust_4="14000.00000" pt_clust_5="86.76667" pt_clust_6="31.02894"></scales>
<clustering>
<clus scale="   31.029">  2  6  1 -1</clus>
<clus scale="   45.489">  2  3  1 -1</clus>
<clus scale="   86.767">  1  5  2 -1</clus>
<clus scale="   86.767">  1  3  2 -1</clus>
</clustering>
</event>
<event>
 6    0  0.1221518E+003  0.8684908E+02  0.7546771E-02  0.1310667E+00
         21   -1    0    0  504  501  0.00000000000E+00  0.00000000000E+00  0.16527807654E+03  0.16527807654E+03  0.00000000000E+00 0. -1.
         21   -1    0    0  503  502 -0.00000000000E+00 -0.00000000000E+00 -0.58838267805E+03  0.58838267805E+03  0.00000000000E+00 0. -1.
         21    1    1    2  503  501 -0.20770386969E+02  0.39360142718E+02 -0.80070291376E+02  0.91607212438E+02  0.00000000000E+00 0. -1.
         21    1    1    2  504  505  0.85491027543E+02  0.13416188307E+02  0.13281829480E+03  0.15852258304E+03  0.00000000000E+00 0. -1.
         21    1    1    2  505  506 -0.80538540086E+02 -0.91241634372E+02 -0.32462523275E+03  0.34668867017E+03  0.00000000000E+00 0. -1.
         21    1    1    2  506  502  0.15817899511E+02  0.38465303348E+02 -0.15122737218E+03  0.15684228895E+03  0.00000000000E+00 0. -1.
<scales pt_clust_3="50.16717" pt_clust_4="14000.00000" pt_clust_5="86.84908" pt_clust_6="41.59069"></scales>
<clustering>
<clus scale="   41.591">  2  6  1 -1</clus>
<clus scale="   50.167">  2  3  1 -1</clus>
<clus scale="   86.849">  2  5  1 -1</clus>
<clus scale="   86.849">  1  3  2 -1</clus>
</clustering>
</event>
<event>
 6    0  0.1221518E+003  0.1349199E+03  0.7546771E-02  0.1220333E+00
         21   -1    0    0  503  501  0.00000000000E+00  0.00000000000E+00  0.63038251518E+03  0.63038251518E+03  0.00000000000E+00 0.  1.
         21   -1    0    0  504  502 -0.00000000000E+00 -0.00000000000E+00 -0.29879079333E+03  0.29879079333E+03  0.00000000000E+00 0. -1.
         21    1    1    2  503  505 -0.57041059410E+02  0.46662330743E+02  0.45208662093E+03  0.45805389246E+03  0.00000000000E+00 0.  1.
         21    1    1    2  504  506 -0.56378321618E+01  0.54287804660E+02 -0.43632352728E+02  0.69876556089E+02  0.00000000000E+00 0. -1.
         21    1    1    2  505  502  0.40341959703E+02 -0.19306333183E+03 -0.17581523316E+03  0.26421945428E+03  0.00000000000E+00 0. -1.
         21    1    1    2  506  501  0.22336931869E+02  0.92113196423E+02  0.98952686808E+02  0.13702340569E+03  0.00000000000E+00 0.  1.
<scales pt_clust_3="74.17474" pt_clust_4="54.57977" pt_clust_5="14000.00000" pt_clust_6="134.91986"></scales>
<clustering>
<clus scale="   54.580">  2  4  1 -1</clus>
<clus scale="   74.175">  1  3  2 -1</clus>
<clus scale="  134.920">  1  6  2 -1</clus>
<clus scale="   74.175">  1  3  2 -1</clus>
</clustering>
</event>
<event>
 6    0  0.1221518E+003  0.8700393E+02  0.7546771E-02  0.1310274E+00
         21   -1    0    0  504  501  0.00000000000E+00  0.00000000000E+00  0.52600699826E+03  0.52600699826E+03  0.00000000000E+00 0.  1.
         21   -1    0    0  505  502 -0.00000000000E+00 -0.00000000000E+00 -0.30292855078E+03  0.30292855078E+03  0.00000000000E+00 0. -1.
         21    1    1    2  503  502  0.20128671161E+02  0.12331442821E+03 -0.21222999026E+03  0.24627866406E+03  0.00000000000E+00 0. -1.
         21    1    1    2  504  503 -0.66756749376E+02 -0.77066762927E+02  0.13102382199E+03  0.16602105729E+03  0.00000000000E+00 0.  1.
         21    1    1    2  505  506 -0.15373694973E+02 -0.39694082857E+02 -0.44933992993E+02  0.61895350692E+02  0.00000000000E+00 0. -1.
         21    1    1    2  506  501  0.62001773188E+02 -0.65535824299E+01  0.34921860874E+03  0.35474047699E+03  0.00000000000E+00 0.  1.
<scales pt_clust_3="14000.00000" pt_clust_4="87.00393" pt_clust_5="42.56725" pt_clust_6="62.22583"></scales>
<clustering>
<clus scale="   42.567">  2  5  1 -1</clus>
<clus scale="   62.226">  1  6  2 -1</clus>
<clus scale="   87.004">  1  4  2 -1</clus>
<clus scale="   62.226">  1  3  2 -1</clus>
</clustering>
</event>
<event>
 6    0  0.1221518E+003  0.6515006E+02  0.7546771E-02  0.1377408E+00
         21   -1    0    0  504  501  0.00000000000E+00  0.00000000000E+00  0.10283613155E+04  0.10283613155E+04  0.00000000000E+00 0.  1.
         21   -1    0    0  505  502 -0.00000000000E+00 -0.00000000000E+00 -0.12382571993E+03  0.12382571993E+03  0.00000000000E+00 0. -1.
         21    1    1    2  503  501 -0.45324708229E+01  0.93499729431E+02  0.46639714774E+03  0.47569847815E+03  0.00000000000E+00 0.  1.
         21    1    1    2  504  506  0.17116182774E+02 -0.35669105267E+02  0.49319876850E+03  0.49478305755E+03  0.00000000000E+00 0.  1.
         21    1    1    2  505  503  0.31220769454E+02  0.18759043983E+02 -0.81773761558E+02  0.89518636360E+02  0.00000000000E+00 0. -1.
         21    1    1    2  506  502 -0.43804481405E+02 -0.76589668147E+02  0.26713440916E+02  0.92186863401E+02  0.00000000000E+00 0. -1.
<scales pt_clust_3="65.15006" pt_clust_4="39.49973" pt_clust_5="36.42304" pt_clust_6="14000.00000"></scales>
<clustering>
<clus scale="   36.423">  2  5  1 -1</clus>
<clus scale="   39.500">  1  4  2 -1</clus>
<clus scale="   65.150">  1  3  2 -1</clus>
<clus scale="   39.500">  1  3  2 -1</clus>
</clustering>
</event>
<event>
 6    0  0.1221518E+003  0.9914467E+02  0.7546771E-02  0.1282105E+00
         21   -1    0    0  506  501  0.00000000000E+00  0.00000000000E+00  0.15386942419E+03  0.15386942419E+03  0.00000000000E+00 0. -1.
         21   -1    0    0  505  502 -0.00000000000E+00 -0.00000000000E+00 -0.32632773589E+03  0.32632773589E+03  0.00000000000E+00 0. -1.
         21    1    1    2  503  502 -0.32610094746E+02  0.21419128377E+02 -0.17092265860E+03  0.17531900229E+03  0.00000000000E+00 0. -1.
         21    1    1    2  504  503 -0.30008071971E+02  0.40583334861E+02 -0.90138402244E+02  0.10330741992E+03  0.00000000000E+00 0. -1.
         21    1    1    2  505  501  0.10822082872E+03 -0.57894162748E+02  0.95178032218E+02  0.15531368152E+03  0.00000000000E+00 0. -1.
         21    1    1    2  506  504 -0.45602662003E+02 -0.41083004897E+01 -0.65752830674E+01  0.46257056349E+02  0.00000000000E+00 0. -1.
<scales pt_clust_3="36.40440" pt_clust_4="36.40440" pt_clust_5="90.08440" pt_clust_6="45.78734"></scales>
<clustering>
<clus scale="   36.404">  3  4 -1 -1</clus>
<clus scale="   45.787">  1  6  2 -1</clus>
<clus scale="   90.084">  1  5  2 -1</clus>
<clus scale="   45.787">  1  3  2 -1</clus>
</clustering>
</event>
<event>
 6    0  0.1221518E+003  0.9880202E+02  0.7546771E-02  0.1282835E+00
         21   -1    0    0  506  501  0.00000000000E+00  0.00000000000E+00  0.99690785812E+03  0.99690785812E+03  0.00000000000E+00 0.  1.
         21   -1    0    0  505  502 -0.00000000000E+00 -0.00000000000E+00 -0.16839428477E+03  0.16839428477E+03  0.00000000000E+00 0.  1.
         21    1    1    2  503  504  0.35425821277E+02 -0.11157283056E+03 -0.24421131914E+02  0.11958209321E+03  0.00000000000E+00 0.  1.
         21    1    1    2  504  502 -0.39657872477E+02  0.15287337704E+02 -0.82151651027E+02  0.92495098843E+02  0.00000000000E+00 0.  1.
         21    1    1    2  505  501 -0.28160565167E+02  0.11455436076E+03  0.87238372855E+03  0.88032328655E+03  0.00000000000E+00 0.  1.
         21    1    1    2  506  503  0.32392616367E+02 -0.18268867911E+02  0.62702627747E+02  0.72901664290E+02  0.00000000000E+00 0. -1.
<scales pt_clust_3="98.80202" pt_clust_4="42.29754" pt_clust_5="14000.00000" pt_clust_6="37.18915"></scales>
<clustering>
<clus scale="   37.189">  1  6  2 -1</clus>
<clus scale="   42.298">  2  4  1 -1</clus>
<clus scale="   98.802">  2  3  1 -1</clus>
<clus scale="   37.189">  1  3  2 -1</clus>
</clustering>
</event>
<event>
 6    0  0.1221518E+003  0.9054378E+02  0.7546771E-02  0.1301540E+00
         21   -1    0    0  504  501  0.00000000000E+00  0.00000000000E+00  0.24410094940E+04  0.24410094940E+04  0.00000000000E+00 0.  1.
         21   -1    0    0  506  502 -0.00000000000E+00 -0.00000000000E+00 -0.15524965764E+03  0.15524965764E+03  0.00000000000E+00 0.  1.
         21    1    1    2  503  505 -0.66280160126E+01  0.61236729665E+02  0.11267291286E+03  0.12840970737E+03  0.00000000000E+00 0.  1.
         21    1    1    2  504  503 -0.10775995598E+02 -0.50732634411E+02  0.17220064956E+04  0.17227873616E+04  0.00000000000E+00 0.  1.
         21    1    1    2  505  502 -0.73886284651E+02  0.51491640070E+02 -0.12747409336E+03  0.15607759780E+03  0.00000000000E+00 0.  1.
         21    1    1    2  506  501  0.91290296261E+02 -0.61995735325E+02  0.57855452126E+03  0.58898448490E+03  0.00000000000E+00 0.  1.
<scales pt_clust_3="53.39728" pt_clust_4="51.86446" pt_clust_5="90.54378" pt_clust_6="14000.00000"></scales>
<clustering>
<clus scale="   51.864">  1  4  2 -1</clus>
<clus scale="   53.397">  1  3  2 -1</clus>
<clus scale="   90.544">  2  5  1 -1</clus>
<clus scale="   51.864">  1  3  2 -1</clus>
</clustering>
</event>
<event>
 6    0  0.1221518E+003  0.1964606E+03  0.7546771E-02  0.1152760E+00
         21   -1    0    0  506  501  0.00000000000E+00  0.00000000000E+00  0.29618834348E+03  0.29618834348E+03  0.00000000000E+00 0. -1.
         21   -1    0    0  505  502 -0.00000000000E+00 -0.00000000000E+00 -0.46987415746E+03  0.46987415746E+03  0.00000000000E+00 0. -1.
         21    1    1    2  503  501 -0.80004614848E+02 -0.79963439867E+01  0.10519614636E+03  0.13240433952E+03  0.00000000000E+00 0. -1.
         21    1    1    2  504  503 -0.83852977771E+02  0.89538216907E+02  0.12612368179E+03  0.17594202817E+03  0.00000000000E+00 0. -1.
         21    1    1    2  505  504  0.12365298111E+03 -0.52034915248E+02 -0.16535652367E+03  0.21293302249E+03  0.00000000000E+00 0. -1.
         21    1    1    2  506  502  0.40204611507E+02 -0.29506957671E+02 -0.23964911846E+03  0.24478311076E+03  0.00000000000E+00 0. -1.
<scales pt_clust_3="73.35181" pt_clust_4="73.35181" pt_clust_5="174.71848" pt_clust_6="49.87055"></scales>
<clustering>
<clus scale="   49.871">  2  6  1 -1</clus>
<clus scale="   73.352">  3  4 -1 -1</clus>
<clus scale="  174.718">  2  5  1 -1</clus>
<clus scale="  196.461">  1  3  2 -1</clus>
</clustering>
</event>
<event>
 6    0  0.1221518E+003  0.1454564E+03  0.7546771E-02  0.1206170E+00
         21   -1    0    0  504  501  0.00000000000E+00  0.00000000000E+00  0.37305810048E+03  0.37305810048E+03  0.00000000000E+00 0.  1.
         21   -1    0    0  505  502 -0.00000000000E+00 -0.00000000000E+00 -0.11359459965E+04  0.11359459965E+04  0.00000000000E+00 0.  1.
         21    1    1    2  503  506  0.31401626541E+02  0.14743118801E+03 -0.32534367085E+03  0.35856731796E+03  0.00000000000E+00 0.  1.
         21    1    1    2  504  503 -0.64171011033E+02  0.10303211487E+02  0.78364012118E+01  0.65463608271E+02  0.00000000000E+00 0.  1.
         21    1    1    2  505  501  0.39303448833E+02 -0.13999113174E+02  0.31162971706E+03  0.31441026830E+03  0.00000000000E+00 0.  1.
         21    1    1    2  506  502 -0.65340643409E+01 -0.14373528632E+03 -0.75701034341E+03  0.77056290240E+03  0.00000000000E+00 0.  1.
<scales pt_clust_3="145.45641" pt_clust_4="40.21681" pt_clust_5="41.72213" pt_clust_6="14000.00000"></scales>
<clustering>
<clus scale="   41.722">  1  5  2 -1</clus>
<clus scale="   40.217">  1  4  2 -1</clus>
<clus scale="  145.456">  1  3  2 -1</clus>
<clus scale="   41.722">  1  3  2 -1</clus>
</clustering>
</event>
<event>
 6    0  0.1221518E+003  0.9122977E+02  0.7546771E-02  0.1299901E+00
         21   -1    0    0  506  501  0.00000000000E+00  0.00000000000E+00  0.13263646229E+03  0.13263646229E+03  0.00000000000E+00 0. -1.
         21   -1    0    0  505  502 -0.00000000000E+00 -0.00000000000E+00 -0.76281645814E+03  0.76281645814E+03  0.00000000000E+00 0. -1.
         21    1    1    2  503  504 -0.78442371502E+02  0.76794069329E+02 -0.10855022607E+03  0.15438162556E+03  0.00000000000E+00 0. -1.
         21    1    1    2  504  501 -0.38200083932E+01 -0.64874702849E+02  0.59114663874E+02  0.87851368907E+02  0.00000000000E+00 0. -1.
         21    1    1    2  505  503  0.38444893953E+02  0.16522854917E+02 -0.59703497406E+03  0.59849960306E+03  0.00000000000E+00 0. -1.
         21    1    1    2  506  502  0.43817485942E+02 -0.28442221397E+02  0.16290540414E+02  0.54720322909E+02  0.00000000000E+00 0. -1.
<scales pt_clust_3="14000.00000" pt_clust_4="91.22977" pt_clust_5="41.84513" pt_clust_6="55.09512"></scales>
<clustering>
<clus scale="   41.845">  2  5  1 -1</clus>
<clus scale="   55.095">  1  6  2 -1</clus>
<clus scale="   91.230">  1  4  2 -1</clus>
<clus scale="   55.095">  1  3  2 -1</clus>
</clustering>
</event>
<event>
 6    0  0.1221518E+003  0.6701695E+02  0.7546771E-02  0.1370541E+00
         21   -1    0    0  506  501  0.00000000000E+00  0.00000000000E+00  0.89698061883E+03  0.89698061883E+03  0.00000000000E+00 0. -1.
         21   -1    0    0  504  502 -0.00000000000E+00 -0.00000000000E+00 -0.18848979536E+04  0.18848979536E+04  0.00000000000E+00 0. -1.
         21    1    1    2  503  502  0.27767257861E+02  0.60820179326E+02 -0.17832372745E+04  0.17844902051E+04  0.00000000000E+00 0. -1.
         21    1    1    2  504  505 -0.78189233854E+02 -0.44213190152E+02 -0.57620819536E+02  0.10671701513E+03  0.00000000000E+00 0. -1.
         21    1    1    2  505  501  0.25288867186E+02 -0.57048865995E+02  0.35398512280E+02  0.71743672798E+02  0.00000000000E+00 0.  1.
         21    1    1    2  506  503  0.25133108808E+02  0.40441876821E+02  0.81754224698E+03  0.81892767944E+03  0.00000000000E+00 0. -1.
<scales pt_clust_3="67.01695" pt_clust_4="14000.00000" pt_clust_5="51.66275" pt_clust_6="47.61532"></scales>
<clustering>
<clus scale="   47.615">  1  6  2 -1</clus>
<clus scale="   51.663">  1  5  2 -1</clus>
<clus scale="   67.017">  2  3  1 -1</clus>
<clus scale="   47.615">  1  3  2 -1</clus>
</clustering>
</event>
<event>
 6    0  0.1221518E+003  0.9980755E+02  0.7546771E-02  0.1280701E+00
         21   -1    0    0  505  501  0.00000000000E+00  0.00000000000E+00  0.94899918798E+02  0.94899918798E+02  0.00000000000E+00 0. -1.
         21   -1    0    0  504  502 -0.00000000000E+00 -0.00000000000E+00 -0.69451693446E+03  0.69451693446E+03  0.00000000000E+00 0. -1.
         21    1    1    2  503  502 -0.39879626189E+02 -0.11766619123E+02 -0.55005967902E+02  0.68952841968E+02  0.00000000000E+00 0.  1.
         21    1    1    2  504  506 -0.40289784174E+02 -0.64520685386E+02 -0.51776817852E+03  0.52332597131E+03  0.00000000000E+00 0. -1.
         21    1    1    2  505  503  0.11120674889E+02  0.90775350574E+02  0.40119851051E+02  0.99867092328E+02  0.00000000000E+00 0. -1.
         21    1    1    2  506  501  0.69048735474E+02 -0.14488046065E+02 -0.66962720283E+02  0.97270947652E+02  0.00000000000E+00 0.  1.
<scales pt_clust_3="41.57930" pt_clust_4="14000.00000" pt_clust_5="99.80755" pt_clust_6="65.84884"></scales>
<clustering>
<clus scale="   41.579">  2  3  1 -1</clus>
<clus scale="   65.849">  1  6  2 -1</clus>
<clus scale="   99.808">  1  5  2 -1</clus>
<clus scale="   65.849">  1  3  2 -1</clus>
</clustering>
</event>
<event>
 6    0  0.1221518E+003  0.9266387E+02  0.7546771E-02  0.1296526E+00
         21   -1    0    0  505  501  0.00000000000E+00  0.00000000000E+00  0.10528361569E+03  0.10528361569E+03  0.00000000000E+00 0.  1.
         21   -1    0    0  503  502 -0.00000000000E+00 -0.00000000000E+00 -0.11629672872E+04  0.11629672872E+04  0.00000000000E+00 0.  1.
         21    1    1    2  503  506 -0.57637668348E+02 -0.72026344221E+01 -0.10895997693E+03  0.12347572769E+03  0.00000000000E+00 0.  1.
         21    1    1    2  504  502  0.53702089261E+02  0.33997265051E+02 -0.61594436586E+03  0.61921497904E+03  0.00000000000E+00 0.  1.
         21    1    1    2  505  504  0.29393897394E+02  0.53185199734E+02 -0.40821236363E+03  0.41271055292E+03  0.00000000000E+00 0.  1.
         21    1    1    2  506  501 -0.25458318307E+02 -0.79979830364E+02  0.75433034886E+02  0.11284964328E+03  0.00000000000E+00 0.  1.
<scales pt_clust_3="58.08596" pt_clust_4="37.45818" pt_clust_5="37.45818" pt_clust_6="84.37429"></scales>
<clustering>
<clus scale="   37.458">  4  5 -1 -1</clus>
<clus scale="   58.086">  2  3  1 -1</clus>
<clus scale="   84.374">  1  6  2 -1</clus>
<clus scale="   84.374">  1  3  2 -1</clus>
</clustering>
</event>
<event>
 6    0  0.1221518E+003  0.1055048E+03  0.7546771E-02  0.1269128E+00
         21   -1    0    0  504  501  0.00000000000E+00  0.00000000000E+00  0.61856448159E+03  0.61856448159E+03  0.00000000000E+00 0.  1.
         21   -1    0    0  503  502 -0.00000000000E+00 -0.00000000000E+00 -0.41542305697E+02  0.41542305697E+02  0.00000000000E+00 0.  1.
         21    1    1    2  503  506 -0.62983416168E+02  0.44708473457E+01  0.22487826029E+02  0.67026871535E+02  0.00000000000E+00 0.  1.
         21    1    1    2  504  502 -0.60894966716E+02  0.33669492305E+02  0.14734755614E+03  0.16295132397E+03  0.00000000000E+00 0.  1.
         21    1    1    2  505  501  0.99051074808E+02 -0.78710628207E+01  0.28515350115E+03  0.30196951546E+03  0.00000000000E+00 0.  1.
         21    1    1    2  506  505  0.24827308076E+02 -0.30269276830E+02  0.12203329257E+03  0.12815907631E+03  0.00000000000E+00 0. -1.
<scales pt_clust_3="63.14190" pt_clust_4="93.39313" pt_clust_5="30.80794" pt_clust_6="30.80794"></scales>
<clustering>
<clus scale="   30.808">  5  6 -1 -1</clus>
<clus scale="   63.142">  2  3  1 -1</clus>
<clus scale="   93.393">  1  4  2 -1</clus>
<clus scale="   93.393">  1  3  2 -1</clus>
</clustering>
</event>
<event>
 6    0  0.1221518E+003  0.1369683E+03  0.7546771E-02  0.1217468E+00
         21   -1    0    0  506  501  0.00000000000E+00  0.00000000000E+00  0.20484670142E+03  0.20484670142E+03  0.00000000000E+00 0. -1.
         21   -1    0    0  505  502 -0.00000000000E+00 -0.00000000000E+00 -0.36855954901E+03  0.36855954901E+03  0.00000000000E+00 0. -1.
         21    1    1    2  503  501  0.31985281992E+02 -0.25262386142E+01 -0.75503122690E+01  0.32961300960E+02  0.00000000000E+00 0. -1.
         21    1    1    2  504  502 -0.20179976989E+03 -0.15773614028E+02 -0.59267522096E+02  0.21091371032E+03  0.00000000000E+00 0. -1.
         21    1    1    2  505  503  0.78177035627E+02 -0.28953232069E+02 -0.17917582303E+03  0.19762063178E+03  0.00000000000E+00 0. -1.
         21    1    1    2  506  504  0.91637452266E+02  0.47253084711E+02  0.82280809807E+02  0.13191060736E+03  0.00000000000E+00 0. -1.
<scales pt_clust_3="32.08489" pt_clust_4="14000.00000" pt_clust_5="84.84911" pt_clust_6="136.96825"></scales>
<clustering>
<clus scale="   32.085">  1  3  2 -1</clus>
<clus scale="   84.849">  2  5  1 -1</clus>
<clus scale="  136.968">  1  6  2 -1</clus>
<clus scale="   32.085">  1  3  2 -1</clus>
</clustering>
</event>
<event>
 6    0  0.1221518E+003  0.6945452E+02  0.7546771E-02  0.1361958E+00
         21   -1    0    0  502  501  0.00000000000E+00  0.00000000000E+00  0.21451712125E+03  0.21451712125E+03  0.00000000000E+00 0. -1.
         21   -1    0    0  504  502 -0.00000000000E+00 -0.00000000000E+00 -0.17292428803E+04  0.17292428803E+04  0.00000000000E+00 0.  1.
         21    1    1    2  503  506 -0.59496721705E+02 -0.55068390458E+02 -0.11397090589E+03  0.13986334370E+03  0.00000000000E+00 0.  1.
         21    1    1    2  504  505  0.21687865754E+02 -0.51838430745E+02 -0.14097313570E+04  0.14108508374E+04  0.00000000000E+00 0.  1.
         21    1    1    2  505  503  0.15666018582E+02  0.84454804388E+02 -0.18106489256E+03  0.20040592167E+03  0.00000000000E+00 0. -1.
         21    1    1    2  506  501  0.22142837368E+02  0.22452016815E+02  0.19004139635E+03  0.19263989886E+03  0.00000000000E+00 0. -1.
<scales pt_clust_3="69.45452" pt_clust_4="55.90299" pt_clust_5="14000.00000" pt_clust_6="31.53408"></scales>
<clustering>
<clus scale="   31.534">  1  6  2 -1</clus>
<clus scale="   55.903">  2  4  1 -1</clus>
<clus scale="   69.455">  1  3  2 -1</clus>
<clus scale="   31.534">  1  3  2 -1</clus>
</clustering>
</event>
<event>
 6    0  0.1221518E+003  0.1733492E+03  0.7546771E-02  0.1174399E+00
         21   -1    0    0  506  501  0.00000000000E+00  0.00000000000E+00  0.23322596081E+03  0.23322596081E+03  0.00000000000E+00 0. -1.
         21   -1    0    0  503  502 -0.00000000000E+00 -0.00000000000E+00 -0.33784805106E+03  0.33784805106E+03  0.00000000000E+00 0.  1.
         21    1    1    2  503  504 -0.33629750075E+01 -0.33659452017E+02 -0.89226519156E+02  0.95423477361E+02  0.00000000000E+00 0. -1.
         21    1    1    2  504  501 -0.50541701928E+02 -0.16746791092E+03 -0.11690833211E+03  0.21039848606E+03  0.00000000000E+00 0.  1.
         21    1    1    2  505  502 -0.75459563442E+01  0.39386558377E+02 -0.28184900538E+02  0.49016640606E+02  0.00000000000E+00 0. -1.
         21    1    1    2  506  505  0.61450633280E+02  0.16174080456E+03  0.12969766155E+03  0.21623540783E+03  0.00000000000E+00 0. -1.
<scales pt_clust_3="33.82704" pt_clust_4="173.34920" pt_clust_5="35.03779" pt_clust_6="14000.00000"></scales>
<clustering>
<clus scale="   33.827">  2  3  1 -1</clus>
<clus scale="   35.038">  2  5  1 -1</clus>
<clus scale="  173.349">  2  4  1 -1</clus>
<clus scale="  173.349">  1  3  2 -1</clus>
</clustering>
</event>
<event>
 6    0  0.1221518E+003  0.9092813E+02  0.7546771E-02  0.1300620E+00
         21   -1    0    0  503  501  0.00000000000E+00  0.00000000000E+00  0.18502600821E+04  0.18502600821E+04  0.00000000000E+00 0.  1.
         21   -1    0    0  504  502 -0.00000000000E+00 -0.00000000000E+00 -0.32357653026E+02  0.32357653026E+02  0.00000000000E+00 0.  1.
         21    1    1    2  503  506  0.19795110034E+00  0.47335542324E+02  0.71275359452E+03  0.71432372161E+03  0.00000000000E+00 0.  1.
         21    1    1    2  504  505 -0.30960723492E+02 -0.27564765406E+02  0.48310797687E+02  0.63657802854E+02  0.00000000000E+00 0.  1.
         21    1    1    2  505  501  0.30266370421E+02 -0.12312134023E+03  0.94055518332E+03  0.94906215311E+03  0.00000000000E+00 0.  1.
         21    1    1    2  506  502  0.49640197073E+00  0.10335056331E+03  0.11628285350E+03  0.15557405751E+03  0.00000000000E+00 0.  1.
<scales pt_clust_3="46.46552" pt_clust_4="41.45338" pt_clust_5="90.92813" pt_clust_6="14000.00000"></scales>
<clustering>
<clus scale="   41.453">  2  4  1 -1</clus>
<clus scale="   46.466">  1  3  2 -1</clus>
<clus scale="   90.928">  1  5  2 -1</clus>
<clus scale="   46.466">  1  3  2 -1</clus>
</clustering>
</event>
<event>
 6    0  0.1221518E+003  0.7570270E+02  0.7546771E-02  0.1341709E+00
         21   -1    0    0  504  501  0.00000000000E+00  0.00000000000E+00  0.24771700283E+02  0.24771700283E+02  0.00000000000E+00 0. -1.
         21   -1    0    0  503  502 -0.00000000000E+00 -0.00000000000E+00 -0.18194749469E+04  0.18194749469E+04  0.00000000000E+00 0. -1.
         21    1    1    2  503  506 -0.32399135958E+02 -0.32178093959E+02 -0.10057377007E+04  0.10067737861E+04  0.00000000000E+00 0. -1.
         21    1    1    2  504  502  0.27865840183E+02 -0.41470573182E+02 -0.29385606541E+02  0.57964017812E+02  0.00000000000E+00 0. -1.
         21    1    1    2  505  501 -0.71029877633E+02  0.69616891351E+02 -0.42784957708E+03  0.43925734563E+03  0.00000000000E+00 0.  1.
         21    1    1    2  506  505  0.75563173409E+02  0.40317757902E+01 -0.33173036231E+03  0.34025149768E+03  0.00000000000E+00 0. -1.
<scales pt_clust_3="45.66326" pt_clust_4="50.48454" pt_clust_5="75.70270" pt_clust_6="14000.00000"></scales>
<clustering>
<clus scale="   45.663">  2  3  1 -1</clus>
<clus scale="   50.485">  1  4  2 -1</clus>
<clus scale="   75.703">  1  5  2 -1</clus>
<clus scale="   50.485">  1  3  2 -1</clus>
</clustering>
</event>
<event>
 6    0  0.1221518E+003  0.9127001E+02  0.7546771E-02  0.1299805E+00
         21   -1    0    0  504  501  0.00000000000E+00  0.00000000000E+00  0.85798852438E+03  0.85798852438E+03  0.00000000000E+00 0. -1.
         21   -1    0    0  506  502 -0.00000000000E+00 -0.00000000000E+00 -0.13842758238E+03  0.13842758238E+03  0.00000000000E+00 0.  1.
         21    1    1    2  503  501 -0.58851885649E+02 -0.10455983419E+03  0.71956922412E+03  0.72950405871E+03  0.00000000000E+00 0. -1.
         21    1    1    2  504  505  0.24667343860E+02  0.18761559905E+02  0.75567050953E+02  0.81675291080E+02  0.00000000000E+00 0.  1.
         21    1    1    2  505  502 -0.50973672608E+02  0.58127349323E+02 -0.50161609620E+02  0.92159053371E+02  0.00000000000E+00 0.  1.
         21    1    1    2  506  503  0.85158214397E+02  0.27670924967E+02 -0.25413723454E+02  0.93077703600E+02  0.00000000000E+00 0.  1.
<scales pt_clust_3="91.27001" pt_clust_4="30.99151" pt_clust_5="77.25808" pt_clust_6="14000.00000"></scales>
<clustering>
<clus scale="   30.992">  1  4  2 -1</clus>
<clus scale="   77.258">  2  5  1 -1</clus>
<clus scale="   91.270">  1  3  2 -1</clus>
<clus scale="   30.992">  1  3  2 -1</clus>
</clustering>
</event>
<event>
 6    0  0.1221518E+003  0.1440620E+03  0.7546771E-02  0.1207965E+00
         21   -1    0    0  506  501  0.00000000000E+00  0.00000000000E+00  0.44914095287E+03  0.44914095287E+03  0.00000000000E+00 0.  1.
         21   -1    0    0  504  502 -0.00000000000E+00 -0.00000000000E+00 -0.85641160195E+02  0.85641160195E+02  0.00000000000E+00 0. -1.
         21    1    1    2  503  501 -0.55247152173E+02 -0.11842138894E+02  0.24564385725E+02  0.61610819852E+02  0.00000000000E+00 0. -1.
         21    1    1    2  504  503 -0.76746414069E+02  0.32765191108E+01 -0.25786174669E+02  0.81028849516E+02  0.00000000000E+00 0. -1.
         21    1    1    2  505  502  0.85119874016E+02  0.30637958247E+02  0.26033240988E+03  0.27560304982E+03  0.00000000000E+00 0.  1.
         21    1    1    2  506  505  0.46873692225E+02 -0.22072338464E+02  0.10438917174E+03  0.11653939388E+03  0.00000000000E+00 0.  1.
<scales pt_clust_3="45.77674" pt_clust_4="142.63444" pt_clust_5="43.19714" pt_clust_6="43.19714"></scales>
<clustering>
<clus scale="   43.197">  5  6 -1 -1</clus>
<clus scale="   45.777">  3  4 -1 -1</clus>
<clus scale="  142.634">  2  3  1 -1</clus>
<clus scale="  144.062">  1  3  2 -1</clus>
</clustering>
</event>
<event>
 6    0  0.1221518E+003  0.1566916E+03  0.7546771E-02  0.1192483E+00
         21   -1    0    0  505  501  0.00000000000E+00  0.00000000000E+00  0.14162377003E+03  0.14162377003E+03  0.00000000000E+00 0.  1.
         21   -1    0    0  506  502 -0.00000000000E+00 -0.00000000000E+00 -0.78899323852E+03  0.78899323852E+03  0.00000000000E+00 0. -1.
         21    1    1    2  503  501  0.15112973584E+03  0.51302272982E+02  0.72604181826E+02  0.17533820886E+03  0.00000000000E+00 0.  1.
         21    1    1    2  504  502 -0.15432104151E+02 -0.45270824034E+02 -0.11451115052E+03  0.12409835189E+03  0.00000000000E+00 0. -1.
         21    1    1    2  505  504 -0.11916970054E+03 -0.35981142912E+02 -0.56327866008E+03  0.57686992388E+03  0.00000000000E+00 0. -1.
         21    1    1    2  506  503 -0.16527931153E+02  0.29949693963E+02 -0.42183839709E+02  0.54310523928E+02  0.00000000000E+00 0.  1.
<scales pt_clust_3="14000.00000" pt_clust_4="44.30988" pt_clust_5="156.69164" pt_clust_6="34.20755"></scales>
<clustering>
<clus scale="   34.208">  2  6  1 -1</clus>
<clus scale="   44.310">  2  4  1 -1</clus>
<clus scale="  156.692">  2  5  1 -1</clus>
<clus scale="  156.692">  1  3  2 -1</clus>
</clustering>
</event>
<event>
 6    0  0.1221518E+003  0.2703927E+03  0.7546771E-02  0.1101055E+00
         21   -1    0    0  502  501  0.00000000000E+00  0.00000000000E+00  0.75932089375E+03  0.75932089375E+03  0.00000000000E+00 0.  1.
         21   -1    0    0  506  502 -0.00000000000E+00 -0.00000000000E+00 -0.48061159580E+03  0.48061159580E+03  0.00000000000E+00 0.  1.
         21    1    1    2  503  504  0.17440959251E+03  0.15731389438E+03 -0.31727600125E+01  0.23489664478E+03  0.00000000000E+00 0.  1.
         21    1    1    2  504  505 -0.17058544388E+03 -0.18253359467E+02  0.39530468480E+03  0.43092734030E+03  0.00000000000E+00 0.  1.
         21    1    1    2  505  501 -0.64207996304E+02 -0.82009580663E+02  0.21309599835E+03  0.23718799005E+03  0.00000000000E+00 0. -1.
         21    1    1    2  506  503  0.60383847671E+02 -0.57050954245E+02 -0.32651862519E+03  0.33692051441E+03  0.00000000000E+00 0.  1.
<scales pt_clust_3="249.13069" pt_clust_4="81.89115" pt_clust_5="81.89115" pt_clust_6="83.07238"></scales>
<clustering>
<clus scale="   81.891">  4  5 -1 -1</clus>
<clus scale="   83.072">  2  6  1 -1</clus>
<clus scale="  249.131">  2  3  1 -1</clus>
<clus scale="  270.393">  1  3  2 -1</clus>
</clustering>
</event>
<event>
 6    0  0.1221518E+003  0.1096240E+03  0.7546771E-02  0.1261268E+00
         21   -1    0    0  503  501  0.00000000000E+00  0.00000000000E+00  0.94838164714E+03  0.94838164714E+03  0.00000000000E+00 0. -1.
         21   -1    0    0  504  502 -0.00000000000E+00 -0.00000000000E+00 -0.25581346628E+03  0.25581346628E+03  0.00000000000E+00 0.  1.
         21    1    1    2  503  502 -0.90228965102E+01 -0.87603048531E+02  0.85531947012E+03  0.85984132417E+03  0.00000000000E+00 0. -1.
         21    1    1    2  504  505 -0.35373546111E+02  0.18847693862E+02 -0.16975090179E+03  0.17441872602E+03  0.00000000000E+00 0.  1.
         21    1    1    2  505  506  0.77336202098E+02  0.84432643406E+02 -0.29597582154E+02  0.11826147427E+03  0.00000000000E+00 0. -1.
         21    1    1    2  506  501 -0.32939759476E+02 -0.15677288738E+02  0.36597194689E+02  0.51673588956E+02  0.00000000000E+00 0.  1.
<scales pt_clust_3="14000.00000" pt_clust_4="40.13754" pt_clust_5="109.62403" pt_clust_6="36.48020"></scales>
<clustering>
<clus scale="   36.480">  1  6  2 -1</clus>
<clus scale="   40.138">  2  4  1 -1</clus>
<clus scale="  109.624">  2  5  1 -1</clus>
<clus scale="   36.480">  1  3  2 -1</clus>
</clustering>
</event>
<event>
 6    0  0.1221518E+003  0.1053678E+03  0.7546771E-02  0.1269397E+00
         21   -1    0    0  506  501  0.00000000000E+00  0.00000000000E+00  0.33826150042E+03  0.33826150042E+03  0.00000000000E+00 0. -1.
         21   -1    0    0  504  502 -0.00000000000E+00 -0.00000000000E+00 -0.46352036131E+03  0.46352036131E+03  0.00000000000E+00 0. -1.
         21    1    1    2  503  502 -0.27768491868E+01 -0.34665059371E+02 -0.12889407314E+03  0.13350303114E+03  0.00000000000E+00 0. -1.
         21    1    1    2  504  505 -0.13183537021E+03  0.13644821091E+02 -0.27207627812E+03  0.30264211058E+03  0.00000000000E+00 0. -1.
         21    1    1    2  505  501  0.10452136524E+03  0.33615874216E+01  0.30351384540E+03  0.32102440781E+03  0.00000000000E+00 0. -1.
         21    1    1    2  506  503  0.30090854163E+02  0.17658650859E+02 -0.27802355028E+02  0.44612312197E+02  0.00000000000E+00 0. -1.
<scales pt_clust_3="34.77610" pt_clust_4="105.36775" pt_clust_5="14000.00000" pt_clust_6="32.86408"></scales>
<clustering>
<clus scale="   34.776">  2  3  1 -1</clus>
<clus scale="   32.864">  2  6  1 -1</clus>
<clus scale="  105.368">  2  4  1 -1</clus>
<clus scale="  105.368">  1  3  2 -1</clus>
</clustering>
</event>
<event>
 6    0  0.1221518E+003  0.8372595E+02  0.7546771E-02  0.1318798E+00
         21   -1    0    0  506  501  0.00000000000E+00  0.00000000000E+00  0.20755017449E+03  0.20755017449E+03  0.00000000000E+00 0. -1.
         21   -1    0    0  504  502 -0.00000000000E+00 -0.00000000000E+00 -0.17266698388E+03  0.17266698388E+03  0.00000000000E+00 0. -1.
         21    1    1    2  503  505  0.13655433803E+01  0.45318179387E+02 -0.55375888490E+00  0.45342129864E+02  0.00000000000E+00 0. -1.
         21    1    1    2  504  501 -0.39446598007E+02 -0.11021530324E+03  0.49234229550E+02  0.12699392317E+03  0.00000000000E+00 0. -1.
         21    1    1    2  505  502 -0.27397295237E+02  0.24699039836E+02 -0.91469898609E+02  0.98627565653E+02  0.00000000000E+00 0. -1.
         21    1    1    2  506  503  0.65478349863E+02  0.40198084017E+02  0.77672618559E+02  0.10925353968E+03  0.00000000000E+00 0. -1.
<scales pt_clust_3="53.04968" pt_clust_4="14000.00000" pt_clust_5="36.88705" pt_clust_6="83.72595"></scales>
<clustering>
<clus scale="   36.887">  2  5  1 -1</clus>
<clus scale="   53.050">  2  3  1 -1</clus>
<clus scale="   83.726">  1  6  2 -1</clus>
<clus scale="   83.726">  1  3  2 -1</clus>
</clustering>
</event>
<event>
 6    0  0.1221518E+003  0.1027240E+03  0.7546771E-02  0.1274670E+00
         21   -1    0    0  506  501  0.00000000000E+00  0.00000000000E+00  0.89112655724E+02  0.89112655724E+02  0.00000000000E+00 0.  1.
         21   -1    0    0  505  502 -0.00000000000E+00 -0.00000000000E+00 -0.11133299869E+04  0.11133299869E+04  0.00000000000E+00 0.  1.
         21    1    1    2  503  501 -0.80366831258E+02 -0.66045068855E+02  0.44984697043E+02  0.11333314455E+03  0.00000000000E+00 0.  1.
         21    1    1    2  504  502 -0.32342967476E+02  0.19977510121E+02 -0.20622657683E+03  0.20970114317E+03  0.00000000000E+00 0.  1.
         21    1    1    2  505  503  0.73038018517E+02  0.25273817861E+02 -0.79008205928E+03  0.79385324740E+03  0.00000000000E+00 0.  1.
         21    1    1    2  506  504  0.39671780217E+02  0.20793740873E+02 -0.72893392094E+02  0.85555107481E+02  0.00000000000E+00 0.  1.
<scales pt_clust_3="14000.00000" pt_clust_4="38.01537" pt_clust_5="102.72395" pt_clust_6="43.19074"></scales>
<clustering>
<clus scale="   38.015">  2  4  1 -1</clus>
<clus scale="   43.191">  2  6  1 -1</clus>
<clus scale="  102.724">  2  5  1 -1</clus>
<clus scale="  102.724">  1  3  2 -1</clus>
</clustering>
</event>
<event>
 6    0  0.1221518E+003  0.7888734E+02  0.7546771E-02  0.1332239E+00
         21   -1    0    0  505  501  0.00000000000E+00  0.00000000000E+00  0.16955328174E+04  0.16955328174E+04  0.00000000000E+00 0. -1.
         21   -1    0    0  503  502 -0.00000000000E+00 -0.00000000000E+00 -0.70888731961E+02  0.70888731961E+02  0.00000000000E+00 0. -1.
         21    1    1    2  503  504 -0.76223087717E+02 -0.45049300235E+01  0.69777389457E+00  0.76359284858E+02  0.00000000000E+00 0. -1.
         21    1    1    2  504  501 -0.37306967514E+02  0.14975267680E+02  0.17289814135E+03  0.17751010041E+03  0.00000000000E+00 0. -1.
         21    1    1    2  505  506  0.65695756489E+02 -0.88970449288E+02  0.14057094432E+04  0.14100534430E+04  0.00000000000E+00 0. -1.
         21    1    1    2  506  502  0.47834298742E+02  0.78500111632E+02  0.45338726929E+02  0.10249872107E+03  0.00000000000E+00 0. -1.
<scales pt_clust_3="77.27872" pt_clust_4="40.20035" pt_clust_5="14000.00000" pt_clust_6="78.88734"></scales>
<clustering>
<clus scale="   40.200">  1  4  2 -1</clus>
<clus scale="   77.279">  2  3  1 -1</clus>
<clus scale="   78.887">  2  6  1 -1</clus>
<clus scale="   40.200">  1  3  2 -1</clus>
</clustering>
</event>
<event>
 6    0  0.1221518E+003  0.9426278E+02  0.7546771E-02  0.1292845E+00
         21   -1    0    0  504  501  0.00000000000E+00  0.00000000000E+00  0.15767468389E+03  0.15767468389E+03  0.00000000000E+00 0. -1.
         21   -1    0    0  505  502 -0.00000000000E+00 -0.00000000000E+00 -0.17882866811E+03  0.17882866811E+03  0.00000000000E+00 0. -1.
         21    1    1    2  503  502  0.45035096393E+02  0.11317385054E+02 -0.35927556800E+02  0.58711433718E+02  0.00000000000E+00 0. -1.
         21    1    1    2  504  503 -0.45313908926E+01  0.36283885119E+02  0.14821338002E+01  0.36595772206E+02  0.00000000000E+00 0.  1.
         21    1    1    2  505  506 -0.84689745668E+02 -0.98989816548E+02 -0.58202372003E+02  0.14268445223E+03  0.00000000000E+00 0. -1.
         21    1    1    2  506  501  0.44186040167E+02  0.51388546375E+02  0.71493810786E+02  0.98511693849E+02  0.00000000000E+00 0. -1.
<scales pt_clust_3="46.89583" pt_clust_4="36.56575" pt_clust_5="14000.00000" pt_clust_6="94.26278"></scales>
<clustering>
<clus scale="   36.566">  1  4  2 -1</clus>
<clus scale="   46.896">  2  3  1 -1</clus>
<clus scale="   94.263">  1  6  2 -1</clus>
<clus scale="   36.566">  1  3  2 -1</clus>
</clustering>
</event>
<event>
 6    0  0.1221518E+003  0.7775068E+02  0.7546771E-02  0.1335559E+00
         21   -1    0    0  505  501  0.00000000000E+00  0.00000000000E+00  0.69455711897E+03  0.69455711897E+03  0.00000000000E+00 0.  1.
         21   -1    0    0  504  502 -0.00000000000E+00 -0.00000000000E+00 -0.64603873129E+02  0.64603873129E+02  0.00000000000E+00 0.  1.
         21    1    1    2  503  502 -0.30102562262E+01 -0.72110123031E+02  0.80388773277E+02  0.10803372786E+03  0.00000000000E+00 0.  1.
         21    1    1    2  504  506  0.53027444895E+02  0.66237508725E+02 -0.91590208501E+00  0.84853735043E+02  0.00000000000E+00 0.  1.
         21    1    1    2  505  503 -0.43905483287E+02 -0.53388384962E+02  0.36409723104E+03  0.37060060005E+03  0.00000000000E+00 0.  1.
         21    1    1    2  506  501 -0.61117053820E+01  0.59260999269E+02  0.18638314362E+03  0.19567292915E+03  0.00000000000E+00 0.  1.
<scales pt_clust_3="14000.00000" pt_clust_4="77.75068" pt_clust_5="49.41881" pt_clust_6="59.57532"></scales>
<clustering>
<clus scale="   59.575">  1  6  2 -1</clus>
<clus scale="   49.419">  1  5  2 -1</clus>
<clus scale="   77.751">  2  4  1 -1</clus>
<clus scale="   59.575">  1  3  2 -1</clus>
</clustering>
</event>
<event>
 6    0  0.1221518E+003  0.2030453E+03  0.7546771E-02  0.1147195E+00
         21   -1    0    0  502  501  0.00000000000E+00  0.00000000000E+00  0.13107279117E+04  0.13107279117E+04  0.00000000000E+00 0.  1.
         21   -1    0    0  506  502 -0.00000000000E+00 -0.00000000000E+00 -0.36946111410E+03  0.36946111410E+03  0.00000000000E+00 0. -1.
         21    1    1    2  503  501  0.74494396554E+02  0.11760667350E+02  0.62494707113E+03  0.62948119124E+03  0.00000000000E+00 0.  1.
         21    1    1    2  504  503  0.38057394304E+02 -0.83989826192E+02  0.23921341049E+03  0.25637026334E+03  0.00000000000E+00 0.  1.
         21    1    1    2  505  504 -0.14780115646E+01 -0.86611146299E+02  0.40460904162E+03  0.41377790147E+03  0.00000000000E+00 0.  1.
         21    1    1    2  506  505 -0.11107377929E+03  0.15884030514E+03 -0.32750272561E+03  0.38055966978E+03  0.00000000000E+00 0. -1.
<scales pt_clust_3="75.41703" pt_clust_4="62.42720" pt_clust_5="62.42720" pt_clust_6="192.55886"></scales>
<clustering>
<clus scale="   62.427">  4  5 -1 -1</clus>
<clus scale="   75.417">  1  3  2 -1</clus>
<clus scale="  192.559">  2  6  1 -1</clus>
<clus scale="   75.417">  1  3  2 -1</clus>
</clustering>
</event>
<event>
 6    0  0.1221518E+003  0.1413723E+03  0.7546771E-02  0.1211494E+00
         21   -1    0    0  503  501  0.00000000000E+00  0.00000000000E+00  0.89974311957E+03  0.89974311957E+03  0.00000000000E+00 0. -1.
         21   -1    0    0  504  502 -0.00000000000E+00 -0.00000000000E+00 -0.21484804870E+03  0.21484804870E+03  0.00000000000E+00 0. -1.
         21    1    1    2  503  506  0.14316966515E+03 -0.16422231511E+02  0.83380692208E+03  0.84616855651E+03  0.00000000000E+00 0. -1.
         21    1    1    2  504  505 -0.42950763878E+02 -0.17899025934E+02  0.21738279379E+02  0.51358505016E+02  0.00000000000E+00 0. -1.
         21    1    1    2  505  501 -0.26653539307E+02  0.38927390040E+02 -0.23999000092E+02  0.52931133167E+02  0.00000000000E+00 0. -1.
         21    1    1    2  506  502 -0.73565361967E+02 -0.46061325954E+01 -0.14665113050E+03  0.16413297358E+03  0.00000000000E+00 0. -1.
<scales pt_clust_3="141.37234" pt_clust_4="46.53110" pt_clust_5="49.78062" pt_clust_6="14000.00000"></scales>
<clustering>
<clus scale="   46.531">  2  4  1 -1</clus>
<clus scale="   49.781">  2  5  1 -1</clus>
<clus scale="  141.372">  1  3  2 -1</clus>
<clus scale="  141.372">  1  3  2 -1</clus>
</clustering>
</event>
<event>
 6    0  0.1221518E+003  0.3100408E+03  0.7546771E-02  0.1080326E+00
         21   -1    0    0  505  501  0.00000000000E+00  0.00000000000E+00  0.38909994516E+03  0.38909994516E+03  0.00000000000E+00 0.  1.
         21   -1    0    0  503  502 -0.00000000000E+00 -0.00000000000E+00 -0.63060789943E+03  0.63060789943E+03  0.00000000000E+00 0.  1.
         21    1    1    2  503  504  0.28781808678E+03 -0.46224203704E+02 -0.28264858063E+03  0.40603712665E+03  0.00000000000E+00 0.  1.
         21    1    1    2  504  506 -0.31477241179E+03  0.19153653080E+03 -0.11306146267E+03  0.38542289526E+03  0.00000000000E+00 0.  1.
         21    1    1    2  505  502 -0.28354366796E+02 -0.44512399535E+02  0.40292067749E+02  0.66398603541E+02  0.00000000000E+00 0.  1.
         21    1    1    2  506  501  0.55308691799E+02 -0.10079992756E+03  0.11391002128E+03  0.16184921913E+03  0.00000000000E+00 0.  1.
<scales pt_clust_3="310.04076" pt_clust_4="14000.00000" pt_clust_5="52.77617" pt_clust_6="126.83246"></scales>
<clustering>
<clus scale="   52.776">  1  5  2 -1</clus>
<clus scale="  126.832">  1  6  2 -1</clus>
<clus scale="  310.041">  2  3  1 -1</clus>
<clus scale="   52.776">  1  3  2 -1</clus>
</clustering>
</event>
<event>
 6    0  0.1221518E+003  0.8700184E+02  0.7546771E-02  0.1310279E+00
         21   -1    0    0  506  501  0.00000000000E+00  0.00000000000E+00  0.67488803462E+03  0.67488803462E+03  0.00000000000E+00 0. -1.
         21   -1    0    0  504  502 -0.00000000000E+00 -0.00000000000E+00 -0.14057984306E+03  0.14057984306E+03  0.00000000000E+00 0. -1.
         21    1    1    2  503  505  0.17885835228E+02  0.10110047539E+03  0.25464073601E+03  0.27455985443E+03  0.00000000000E+00 0.  1.
         21    1    1    2  504  503 -0.23592551389E+02 -0.43224641961E+02 -0.94863024212E+02  0.10688298048E+03  0.00000000000E+00 0. -1.
         21    1    1    2  505  501 -0.40229824331E+02 -0.57469599968E+01  0.36094874917E+03  0.36322921943E+03  0.00000000000E+00 0. -1.
         21    1    1    2  506  502  0.45936540491E+02 -0.52128873437E+02  0.13581730584E+02  0.70795823350E+02  0.00000000000E+00 0. -1.
<scales pt_clust_3="87.00184" pt_clust_4="49.71524" pt_clust_5="40.63824" pt_clust_6="14000.00000"></scales>
<clustering>
<clus scale="   40.638">  1  5  2 -1</clus>
<clus scale="   49.715">  2  4  1 -1</clus>
<clus scale="   87.002">  1  3  2 -1</clus>
<clus scale="   40.638">  1  3  2 -1</clus>
</clustering>
</event>
<event>
 6    0  0.1221518E+003  0.8344436E+02  0.7546771E-02  0.1319552E+00
         21   -1    0    0  504  501  0.00000000000E+00  0.00000000000E+00  0.69792596424E+03  0.69792596424E+03  0.00000000000E+00 0. -1.
         21   -1    0    0  505  502 -0.00000000000E+00 -0.00000000000E+00 -0.15009228918E+04  0.15009228918E+04  0.00000000000E+00 0. -1.
         21    1    1    2  503  502  0.43720152939E+02  0.69897642599E+02 -0.12802730565E+04  0.12829248737E+04  0.00000000000E+00 0. -1.
         21    1    1    2  504  503 -0.71939529581E+02  0.48652734098E+02 -0.50964560354E+01  0.86996312081E+02  0.00000000000E+00 0. -1.
         21    1    1    2  505  506 -0.18193127356E+02 -0.99416218428E+02 -0.15747294754E+03  0.18711574914E+03  0.00000000000E+00 0. -1.
         21    1    1    2  506  501  0.46412503997E+02 -0.19134158269E+02  0.63984553257E+03  0.64181192112E+03  0.00000000000E+00 0. -1.
<scales pt_clust_3="83.44436" pt_clust_4="52.09719" pt_clust_5="14000.00000" pt_clust_6="50.20196"></scales>
<clustering>
<clus scale="   50.202">  1  6  2 -1</clus>
<clus scale="   52.097">  1  4  2 -1</clus>
<clus scale="   83.444">  2  3  1 -1</clus>
<clus scale="   50.202">  1  3  2 -1</clus>
</clustering>
</event>
<event>
 6    0  0.1221518E+003  0.8558257E+02  0.7546771E-02  0.1313916E+00
         21   -1    0    0  506  501  0.00000000000E+00  0.00000000000E+00  0.20214956452E+04  0.20214956452E+04  0.00000000000E+00 0.  1.
         21   -1    0    0  503  502 -0.00000000000E+00 -0.00000000000E+00 -0.58323540727E+03  0.58323540727E+03  0.00000000000E+00 0. -1.
         21    1    1    2  503  501 -0.12114130804E+03 -0.14294053374E+02  0.37966340872E+02  0.12775358905E+03  0.00000000000E+00 0. -1.
         21    1    1    2  504  505  0.49470088580E+02  0.81786445232E+02  0.75254903158E+02  0.12165365895E+03  0.00000000000E+00 0. -1.
         21    1    1    2  505  502  0.67572071437E+02 -0.17150334283E+02 -0.51243515524E+03  0.51715559276E+03  0.00000000000E+00 0. -1.
         21    1    1    2  506  504  0.40991480281E+01 -0.50342057575E+02  0.18374741491E+04  0.18381682117E+04  0.00000000000E+00 0.  1.
<scales pt_clust_3="14000.00000" pt_clust_4="85.58257" pt_clust_5="69.92745" pt_clust_6="50.50867"></scales>
<clustering>
<clus scale="   50.509">  1  6  2 -1</clus>
<clus scale="   69.927">  2  5  1 -1</clus>
<clus scale="   85.583">  1  4  2 -1</clus>
<clus scale="   50.509">  1  3  2 -1</clus>
</clustering>
</event>
<event>
 6    0  0.1221518E+003  0.1517400E+03  0.7546771E-02  0.1198351E+00
         21   -1    0    0  505  501  0.00000000000E+00  0.00000000000E+00  0.10004639100E+04  0.10004639100E+04  0.00000000000E+00 0.  1.
         21   -1    0    0  501  502 -0.00000000000E+00 -0.00000000000E+00 -0.99759069983E+03  0.99759069983E+03  0.00000000000E+00 0.  1.
         21    1    1    2  503  502 -0.38535728578E+02 -0.19497921421E+02 -0.30883920634E+03  0.31184423465E+03  0.00000000000E+00 0.  1.
         21    1    1    2  504  506  0.59871077238E+02 -0.93287659930E+02 -0.50326700261E+02  0.12173705329E+03  0.00000000000E+00 0.  1.
         21    1    1    2  505  504 -0.71206411147E+02 -0.78015481496E+02  0.94405905984E+03  0.94994961803E+03  0.00000000000E+00 0.  1.
         21    1    1    2  506  503  0.49871062487E+02  0.19080106285E+03 -0.58201994308E+03  0.61452370385E+03  0.00000000000E+00 0.  1.
<scales pt_clust_3="43.18763" pt_clust_4="14000.00000" pt_clust_5="105.79868" pt_clust_6="151.74003"></scales>
<clustering>
<clus scale="   43.188">  2  3  1 -1</clus>
<clus scale="  105.799">  1  5  2 -1</clus>
<clus scale="  151.740">  2  6  1 -1</clus>
<clus scale="  105.799">  1  3  2 -1</clus>
</clustering>
</event>
<event>
 6    0  0.1221518E+003  0.1234654E+03  0.7546771E-02  0.1237487E+00
         21   -1    0    0  502  501  0.00000000000E+00  0.00000000000E+00  0.16502456029E+03  0.16502456029E+03  0.00000000000E+00 0.  1.
         21   -1    0    0  504  502 -0.00000000000E+00 -0.00000000000E+00 -0.30721797398E+03  0.30721797398E+03  0.00000000000E+00 0. -1.
         21    1    1    2  503  505  0.74146475225E+02  0.13565762180E+02 -0.10613260595E+03  0.13017626411E+03  0.00000000000E+00 0. -1.
         21    1    1    2  504  503 -0.30155147544E+02  0.49532237876E+02 -0.47963994680E+02  0.75255035034E+02  0.00000000000E+00 0.  1.
         21    1    1    2  505  506  0.93414805573E+02 -0.64233675914E+02 -0.39571064830E+02  0.12007564363E+03  0.00000000000E+00 0. -1.
         21    1    1    2  506  501 -0.13740613325E+03  0.11356758576E+01  0.51474251766E+02  0.14673559149E+03  0.00000000000E+00 0.  1.
<scales pt_clust_3="70.39337" pt_clust_4="57.98944" pt_clust_5="123.46537" pt_clust_6="14000.00000"></scales>
<clustering>
<clus scale="   57.989">  2  4  1 -1</clus>
<clus scale="   70.393">  2  3  1 -1</clus>
<clus scale="  123.465">  2  5  1 -1</clus>
<clus scale="  123.465">  1  3  2 -1</clus>
</clustering>
</event>
<event>
 6    0  0.1221518E+003  0.1407250E+03  0.7546771E-02  0.1212357E+00
         21   -1    0    0  506  501  0.00000000000E+00  0.00000000000E+00  0.38761788284E+03  0.38761788284E+03  0.00000000000E+00 0.  1.
         21   -1    0    0  504  502 -0.00000000000E+00 -0.00000000000E+00 -0.60178579564E+03  0.60178579564E+03  0.00000000000E+00 0. -1.
         21    1    1    2  503  505  0.10193538731E+03  0.16723261630E+02 -0.45947786650E+03  0.47094628194E+03  0.00000000000E+00 0. -1.
         21    1    1    2  504  501 -0.10095630622E+03 -0.67804990769E+02  0.88360245396E+02  0.15032373567E+03  0.00000000000E+00 0. -1.
         21    1    1    2  505  502  0.46610015200E+01  0.92514013901E+02 -0.83115642035E+02  0.12445391779E+03  0.00000000000E+00 0. -1.
         21    1    1    2  506  503 -0.56400826074E+01 -0.41432284762E+02  0.24006535034E+03  0.24367974308E+03  0.00000000000E+00 0.  1.
<scales pt_clust_3="140.72496" pt_clust_4="14000.00000" pt_clust_5="86.72422" pt_clust_6="41.81441"></scales>
<clustering>
<clus scale="   41.814">  1  6  2 -1</clus>
<clus scale="   86.724">  2  5  1 -1</clus>
<clus scale="  140.725">  2  3  1 -1</clus>
<clus scale="   41.814">  1  3  2 -1</clus>
</clustering>
</event>
<event>
 6    0  0.1221518E+003  0.1098250E+03  0.7546771E-02  0.1260894E+00
         21   -1    0    0  503  501  0.00000000000E+00  0.00000000000E+00  0.31131149225E+03  0.31131149225E+03  0.00000000000E+00 0. -1.
         21   -1    0    0  506  502 -0.00000000000E+00 -0.00000000000E+00 -0.58511682602E+03  0.58511682602E+03  0.00000000000E+00 0. -1.
         21    1    1    2  503  504  0.31289672998E+01 -0.30394276655E+02  0.24884270086E+02  0.39405956244E+02  0.00000000000E+00 0.  1.
         21    1    1    2  504  505  0.96500797363E+02 -0.17931776221E+02  0.25670939309E+03  0.27483388618E+03  0.00000000000E+00 0. -1.
         21    1    1    2  505  502  0.15927692008E+02  0.40617502636E+02 -0.28074856815E+03  0.28411834050E+03  0.00000000000E+00 0. -1.
         21    1    1    2  506  501 -0.11555745667E+03  0.77085502396E+01 -0.27465042880E+03  0.29807013533E+03  0.00000000000E+00 0. -1.
<scales pt_clust_3="30.55491" pt_clust_4="109.82503" pt_clust_5="43.46500" pt_clust_6="14000.00000"></scales>
<clustering>
<clus scale="   30.555">  1  3  2 -1</clus>
<clus scale="   43.465">  2  5  1 -1</clus>
<clus scale="  109.825">  1  4  2 -1</clus>
<clus scale="   30.555">  1  3  2 -1</clus>
</clustering>
</event>
<event>
 6    0  0.1221518E+003  0.1165956E+03  0.7546771E-02  0.1248821E+00
         21   -1    0    0  505  501  0.00000000000E+00  0.00000000000E+00  0.88835502043E+02  0.88835502043E+02  0.00000000000E+00 0. -1.
         21   -1    0    0  503  502 -0.00000000000E+00 -0.00000000000E+00 -0.59936232846E+03  0.59936232846E+03  0.00000000000E+00 0. -1.
         21    1    1    2  503  504 -0.48947317146E+02  0.20249176901E+02 -0.21751967831E+03  0.22387648263E+03  0.00000000000E+00 0. -1.
         21    1    1    2  504  501  0.50757855261E+02  0.14156133450E+02 -0.32434556791E+02  0.61876946104E+02  0.00000000000E+00 0.  1.
         21    1    1    2  505  506  0.62602133843E+02  0.54826436806E+02  0.32540533109E+02  0.89352401364E+02  0.00000000000E+00 0. -1.
         21    1    1    2  506  502 -0.64412671957E+02 -0.89231747157E+02 -0.29311312443E+03  0.31309200041E+03  0.00000000000E+00 0. -1.
<scales pt_clust_3="51.21005" pt_clust_4="52.69493" pt_clust_5="14000.00000" pt_clust_6="116.59563"></scales>
<clustering>
<clus scale="   52.695">  1  4  2 -1</clus>
<clus scale="   51.210">  2  3  1 -1</clus>
<clus scale="  116.596">  2  6  1 -1</clus>
<clus scale="   52.695">  1  3  2 -1</clus>
</clustering>
</event>
<event>
 6    0  0.1221518E+003  0.8930891E+02  0.7546771E-02  0.1304534E+00
         21   -1    0    0  506  501  0.00000000000E+00  0.00000000000E+00  0.19869412159E+03  0.19869412159E+03  0.00000000000E+00 0.  1.
         21   -1    0    0  504  502 -0.00000000000E+00 -0.00000000000E+00 -0.26162238869E+03  0.26162238869E+03  0.00000000000E+00 0.  1.
         21    1    1    2  503  502  0.75230140149E+02  0.59524582747E+02 -0.14878596119E+03  0.17703110514E+03  0.00000000000E+00 0.  1.
         21    1    1    2  504  505 -0.35491099133E+02  0.16750171436E+02 -0.57437523418E+02  0.69564757292E+02  0.00000000000E+00 0. -1.
         21    1    1    2  505  501 -0.40117572780E+02 -0.10793743864E+03  0.14089460584E+03  0.18196483248E+03  0.00000000000E+00 0.  1.
         21    1    1    2  506  503  0.37853176301E+00  0.31662684454E+02  0.24006116752E+01  0.31755815366E+02  0.00000000000E+00 0.  1.
<scales pt_clust_3="89.30891" pt_clust_4="39.69661" pt_clust_5="14000.00000" pt_clust_6="31.66495"></scales>
<clustering>
<clus scale="   31.665">  1  6  2 -1</clus>
<clus scale="   39.697">  2  4  1 -1</clus>
<clus scale="   89.309">  2  3  1 -1</clus>
<clus scale="   31.665">  1  3  2 -1</clus>
</clustering>
</event>
<event>
 6    0  0.1221518E+003  0.1301348E+03  0.7546771E-02  0.1227256E+00
         21   -1    0    0  504  501  0.00000000000E+00  0.00000000000E+00  0.74609629550E+03  0.74609629550E+03  0.00000000000E+00 0. -1.
         21   -1    0    0  503  502 -0.00000000000E+00 -0.00000000000E+00 -0.15100297808E+03  0.15100297808E+03  0.00000000000E+00 0. -1.
         21    1    1    2  503  501  0.11779095097E+03 -0.83776441625E+02  0.10597357601E+03  0.17923057528E+03  0.00000000000E+00 0. -1.
         21    1    1    2  504  506  0.62025324079E+02  0.76733078449E+02  0.32736819380E+03  0.34191379099E+03  0.00000000000E+00 0. -1.
         21    1    1    2  505  502 -0.32376115458E+02  0.43284355574E+01 -0.83567962380E+02  0.89724871373E+02  0.00000000000E+00 0. -1.
         21    1    1    2  506  505 -0.14744015959E+03  0.27149276182E+01  0.24531951000E+03  0.28623003594E+03  0.00000000000E+00 0. -1.
<scales pt_clust_3="130.13483" pt_clust_4="96.79839" pt_clust_5="32.66417" pt_clust_6="14000.00000"></scales>
<clustering>
<clus scale="   32.664">  2  5  1 -1</clus>
<clus scale="   96.798">  1  4  2 -1</clus>
<clus scale="  130.135">  2  3  1 -1</clus>
<clus scale="   96.798">  1  3  2 -1</clus>
</clustering>
</event>
<event>
 6    0  0.1221518E+003  0.1005600E+03  0.7546771E-02  0.1279123E+00
         21   -1    0    0  505  501  0.00000000000E+00  0.00000000000E+00  0.40293882724E+03  0.40293882724E+03  0.00000000000E+00 0. -1.
         21   -1    0    0  503  502 -0.00000000000E+00 -0.00000000000E+00 -0.21086246996E+03  0.21086246996E+03  0.00000000000E+00 0. -1.
         21    1    1    2  503  506  0.33290314982E+02  0.47838776678E+02 -0.13876293786E+03  0.15050563627E+03  0.00000000000E+00 0. -1.
         21    1    1    2  504  501 -0.88920372058E+02 -0.86138853938E+02  0.12309537491E+03  0.17458294890E+03  0.00000000000E+00 0. -1.
         21    1    1    2  505  502  0.25468556401E+02  0.23511212336E+02  0.23979265246E+03  0.24228483370E+03  0.00000000000E+00 0. -1.
         21    1    1    2  506  504  0.30161500675E+02  0.14788864924E+02 -0.32048732219E+02  0.46427878323E+02  0.00000000000E+00 0.  1.
<scales pt_clust_3="30.91155" pt_clust_4="91.94828" pt_clust_5="34.66157" pt_clust_6="30.91155"></scales>
<clustering>
<clus scale="   30.912">  3  6 -1 -1</clus>
<clus scale="   34.662">  1  5  2 -1</clus>
<clus scale="   91.948">  1  4  2 -1</clus>
<clus scale="   34.662">  1  3  2 -1</clus>
</clustering>
</event>
<event>
 6    0  0.1221518E+003  0.9210619E+02  0.7546771E-02  0.1297830E+00
         21   -1    0    0  503  501  0.00000000000E+00  0.00000000000E+00  0.19177387811E+04  0.19177387811E+04  0.00000000000E+00 0. -1.
         21   -1    0    0  506  502 -0.00000000000E+00 -0.00000000000E+00 -0.12693034462E+03  0.12693034462E+03  0.00000000000E+00 0. -1.
         21    1    1    2  503  504  0.33959160798E+01  0.61370152504E+02 -0.56266038254E+01  0.61721038026E+02  0.00000000000E+00 0. -1.
         21    1    1    2  504  502 -0.42622243189E+02 -0.52293669772E+01  0.26570156797E+02  0.50497278398E+02  0.00000000000E+00 0.  1.
         21    1    1    2  505  501  0.80939952025E+02  0.44173894299E+02  0.18131575625E+04  0.18155007450E+04  0.00000000000E+00 0. -1.
         21    1    1    2  506  505 -0.41713624917E+02 -0.10031467983E+03 -0.43292678941E+02  0.11695006431E+03  0.00000000000E+00 0. -1.
<scales pt_clust_3="60.52468" pt_clust_4="42.94184" pt_clust_5="92.10619" pt_clust_6="14000.00000"></scales>
<clustering>
<clus scale="   42.942">  2  4  1 -1</clus>
<clus scale="   60.525">  2  3  1 -1</clus>
<clus scale="   92.106">  1  5  2 -1</clus>
<clus scale="   92.106">  1  3  2 -1</clus>
</clustering>
</event>
<event>
 6    0  0.1221518E+003  0.1280314E+03  0.7546771E-02  0.1230406E+00
         21   -1    0    0  506  501  0.00000000000E+00  0.00000000000E+00  0.11670718601E+03  0.11670718601E+03  0.00000000000E+00 0. -1.
         21   -1    0    0  503  502 -0.00000000000E+00 -0.00000000000E+00 -0.10819495457E+04  0.10819495457E+04  0.00000000000E+00 0. -1.
         21    1    1    2  503  501 -0.58007414557E+02 -0.29016803813E+02 -0.48314086767E+03  0.48747505891E+03  0.00000000000E+00 0. -1.
         21    1    1    2  504  505  0.11877214178E+03 -0.10856468492E+02 -0.99153490175E+02  0.15510028751E+03  0.00000000000E+00 0. -1.
         21    1    1    2  505  502 -0.82140543203E+02  0.83880958100E+02 -0.45449111710E+03  0.46940947955E+03  0.00000000000E+00 0. -1.
         21    1    1    2  506  504  0.21375815977E+02 -0.44007685794E+02  0.71543115210E+02  0.86671905780E+02  0.00000000000E+00 0. -1.
<scales pt_clust_3="64.95423" pt_clust_4="14000.00000" pt_clust_5="128.03137" pt_clust_6="48.92445"></scales>
<clustering>
<clus scale="   48.924">  1  6  2 -1</clus>
<clus scale="   64.954">  2  3  1 -1</clus>
<clus scale="  128.031">  2  5  1 -1</clus>
<clus scale="   48.924">  1  3  2 -1</clus>
</clustering>
</event>
<event>
 6    0  0.1221518E+003  0.7232435E+02  0.7546771E-02  0.1352363E+00
         21   -1    0    0  505  501  0.00000000000E+00  0.00000000000E+00  0.48142308267E+03  0.48142308267E+03  0.00000000000E+00 0.  1.
         21   -1    0    0  504  502 -0.00000000000E+00 -0.00000000000E+00 -0.28873367293E+03  0.28873367293E+03  0.00000000000E+00 0. -1.
         21    1    1    2  503  506 -0.55357530891E+02  0.29916198828E+02  0.77655584531E+02  0.99949111990E+02  0.00000000000E+00 0.  1.
         21    1    1    2  504  503 -0.14641017873E+02  0.32355463215E+02 -0.25737969995E+03  0.25981829295E+03  0.00000000000E+00 0. -1.
         21    1    1    2  505  502  0.77496403390E+02  0.27161367457E+02  0.16160863049E+03  0.18127543096E+03  0.00000000000E+00 0.  1.
         21    1    1    2  506  501 -0.74978546258E+01 -0.89433029500E+02  0.21080489467E+03  0.22911391971E+03  0.00000000000E+00 0.  1.
<scales pt_clust_3="73.80846" pt_clust_4="35.51388" pt_clust_5="72.32435" pt_clust_6="14000.00000"></scales>
<clustering>
<clus scale="   35.514">  2  4  1 -1</clus>
<clus scale="   73.808">  2  3  1 -1</clus>
<clus scale="   72.324">  2  5  1 -1</clus>
<clus scale="   72.324">  1  3  2 -1</clus>
</clustering>
</event>
<event>
 6    0  0.1221518E+003  0.9098618E+02  0.7546771E-02  0.1300481E+00
         21   -1    0    0  504  501  0.00000000000E+00  0.00000000000E+00  0.54600474739E+02  0.54600474739E+02  0.00000000000E+00 0. -1.
         21   -1    0    0  506  502 -0.00000000000E+00 -0.00000000000E+00 -0.69426589846E+03  0.69426589846E+03  0.00000000000E+00 0.  1.
         21    1    1    2  503  502 -0.21381066933E+02  0.60797995657E+02 -0.25622958203E+03  0.26421041805E+03  0.00000000000E+00 0. -1.
         21    1    1    2  504  503  0.60735306089E+02  0.63556767904E+02 -0.17035950207E+02  0.89545875123E+02  0.00000000000E+00 0. -1.
         21    1    1    2  505  501 -0.52934035948E+02 -0.92669678726E+02 -0.21750798397E+03  0.24227960006E+03  0.00000000000E+00 0.  1.
         21    1    1    2  506  505  0.13579796791E+02 -0.31685084835E+02 -0.14889190752E+03  0.15283047996E+03  0.00000000000E+00 0.  1.
<scales pt_clust_3="47.98954" pt_clust_4="90.98618" pt_clust_5="14000.00000" pt_clust_6="34.47253"></scales>
<clustering>
<clus scale="   34.473">  2  6  1 -1</clus>
<clus scale="   47.990">  2  3  1 -1</clus>
<clus scale="   90.986">  1  4  2 -1</clus>
<clus scale="   90.986">  1  3  2 -1</clus>
</clustering>
</event>
<event>
 6    0  0.1221518E+003  0.1459922E+03  0.7546771E-02  0.1205486E+00
         21   -1    0    0  506  501  0.00000000000E+00  0.00000000000E+00  0.34861566197E+03  0.34861566197E+03  0.00000000000E+00 0. -1.
         21   -1    0    0  505  502 -0.00000000000E+00 -0.00000000000E+00 -0.31239455431E+03  0.31239455431E+03  0.00000000000E+00 0. -1.
         21    1    1    2  503  504  0.10648161502E+03  0.69897034848E+02 -0.12824015830E+03  0.18074697236E+03  0.00000000000E+00 0. -1.
         21    1    1    2  504  502  0.16182632445E+02  0.37169298318E+02 -0.12724361458E+03  0.13354539222E+03  0.00000000000E+00 0. -1.
         21    1    1    2  505  501 -0.68293667999E+02 -0.35579687549E+02  0.58168769189E+02  0.96506709424E+02  0.00000000000E+00 0.  1.
         21    1    1    2  506  503 -0.54370579463E+02 -0.71486645617E+02  0.23353611135E+03  0.25021114227E+03  0.00000000000E+00 0. -1.
<scales pt_clust_3="145.99222" pt_clust_4="40.53929" pt_clust_5="73.73461" pt_clust_6="14000.00000"></scales>
<clustering>
<clus scale="   40.539">  2  4  1 -1</clus>
<clus scale="   73.735">  1  5  2 -1</clus>
<clus scale="  145.992">  2  3  1 -1</clus>
<clus scale="   73.735">  1  3  2 -1</clus>
</clustering>
</event>
<event>
 6    0  0.1221518E+003  0.9281446E+02  0.7546771E-02  0.1296176E+00
         21   -1    0    0  503  501  0.00000000000E+00  0.00000000000E+00  0.52011781787E+03  0.52011781787E+03  0.00000000000E+00 0. -1.
         21   -1    0    0  504  502 -0.00000000000E+00 -0.00000000000E+00 -0.14806955261E+03  0.14806955261E+03  0.00000000000E+00 0. -1.
         21    1    1    2  503  506 -0.34435747565E+02  0.24492323607E+01  0.58427214436E+02  0.67864267743E+02  0.00000000000E+00 0. -1.
         21    1    1    2  504  505  0.58618665603E+02 -0.74350905446E+02 -0.10503618114E+03  0.14141005780E+03  0.00000000000E+00 0. -1.
         21    1    1    2  505  501 -0.37452725033E+02 -0.32528311221E+02  0.28242071805E+03  0.28674424079E+03  0.00000000000E+00 0. -1.
         21    1    1    2  506  502  0.13269806994E+02  0.10442998431E+03  0.13623651392E+03  0.17216880415E+03  0.00000000000E+00 0. -1.
<scales pt_clust_3="34.52274" pt_clust_4="14000.00000" pt_clust_5="66.55931" pt_clust_6="92.81446"></scales>
<clustering>
<clus scale="   34.523">  1  3  2 -1</clus>
<clus scale="   66.559">  1  5  2 -1</clus>
<clus scale="   92.814">  1  6  2 -1</clus>
<clus scale="   34.523">  1  3  2 -1</clus>
</clustering>
</event>
<event>
 6    0  0.1221518E+003  0.1049626E+03  0.7546771E-02  0.1270193E+00
         21   -1    0    0  503  501  0.00000000000E+00  0.00000000000E+00  0.27588090789E+03  0.27588090789E+03  0.00000000000E+00 0.  1.
         21   -1    0    0  505  502 -0.00000000000E+00 -0.00000000000E+00 -0.51293013980E+03  0.51293013980E+03  0.00000000000E+00 0. -1.
         21    1    1    2  503  506  0.36538403393E+02  0.22311459713E+02  0.19517922823E+03  0.19981938667E+03  0.00000000000E+00 0.  1.
         21    1    1    2  504  502 -0.30687185694E+02  0.52257067475E+02 -0.38850918150E+03  0.39320718276E+03  0.00000000000E+00 0. -1.
         21    1    1    2  505  501 -0.24127484534E+02  0.43722817257E+02 -0.56503682447E+02  0.75408795169E+02  0.00000000000E+00 0. -1.
         21    1    1    2  506  504  0.18276266835E+02 -0.11829134445E+03  0.12784403808E+02  0.12037568310E+03  0.00000000000E+00 0.  1.
<scales pt_clust_3="42.81187" pt_clust_4="104.96258" pt_clust_5="50.42950" pt_clust_6="14000.00000"></scales>
<clustering>
<clus scale="   42.812">  1  3  2 -1</clus>
<clus scale="   50.429">  2  5  1 -1</clus>
<clus scale="  104.963">  2  4  1 -1</clus>
<clus scale="   42.812">  1  3  2 -1</clus>
</clustering>
</event>
<event>
 6    0  0.1221518E+003  0.8370038E+02  0.7546771E-02  0.1318867E+00
         21   -1    0    0  504  501  0.00000000000E+00  0.00000000000E+00  0.29760748831E+02  0.29760748831E+02  0.00000000000E+00 0.  1.
         21   -1    0    0  505  502 -0.00000000000E+00 -0.00000000000E+00 -0.31694041012E+04  0.31694041012E+04  0.00000000000E+00 0. -1.
         21    1    1    2  503  502  0.98393750826E+02  0.26556624425E+02 -0.17893257510E+04  0.17922257748E+04  0.00000000000E+00 0.  1.
         21    1    1    2  504  503 -0.93660440332E+02 -0.25096870263E+02 -0.26312036399E+03  0.28041836054E+03  0.00000000000E+00 0.  1.
         21    1    1    2  505  506 -0.31368232477E+02  0.15648907330E+02 -0.10936514314E+04  0.10942130997E+04  0.00000000000E+00 0. -1.
         21    1    1    2  506  501  0.26634921984E+02 -0.17108661492E+02  0.64541939863E+01  0.32307615003E+02  0.00000000000E+00 0.  1.
<scales pt_clust_3="14000.00000" pt_clust_4="83.70038" pt_clust_5="34.20367" pt_clust_6="31.65636"></scales>
<clustering>
<clus scale="   31.656">  1  6  2 -1</clus>
<clus scale="   34.204">  2  5  1 -1</clus>
<clus scale="   83.700">  1  4  2 -1</clus>
<clus scale="   31.656">  1  3  2 -1</clus>
</clustering>
</event>
<event>
 6    0  0.1221518E+003  0.1519199E+03  0.7546771E-02  0.1198134E+00
         21   -1    0    0  506  501  0.00000000000E+00  0.00000000000E+00  0.18419467012E+04  0.18419467012E+04  0.00000000000E+00 0. -1.
         21   -1    0    0  503  502 -0.00000000000E+00 -0.00000000000E+00 -0.30768086780E+04  0.30768086780E+04  0.00000000000E+00 0.  1.
         21    1    1    2  503  505 -0.47400441107E+02 -0.12988381079E+02 -0.24612108653E+03  0.25098025638E+03  0.00000000000E+00 0.  1.
         21    1    1    2  504  501  0.53022374028E+02  0.23975707504E+02  0.14796492843E+04  0.14807931021E+04  0.00000000000E+00 0. -1.
         21    1    1    2  505  504  0.91566206209E+02  0.25406759933E+02  0.35204183286E+03  0.36464136581E+03  0.00000000000E+00 0. -1.
         21    1    1    2  506  502 -0.97188139130E+02 -0.36394086358E+02 -0.28204320074E+04  0.28223406549E+04  0.00000000000E+00 0.  1.
<scales pt_clust_3="49.14774" pt_clust_4="58.18131" pt_clust_5="14000.00000" pt_clust_6="151.91987"></scales>
<clustering>
<clus scale="   49.148">  2  3  1 -1</clus>
<clus scale="   58.181">  1  4  2 -1</clus>
<clus scale="  151.920">  2  6  1 -1</clus>
<clus scale="   58.181">  1  3  2 -1</clus>
</clustering>
</event>
<event>
 6    0  0.1221518E+003  0.1519469E+03  0.7546771E-02  0.1198101E+00
         21   -1    0    0  504  501  0.00000000000E+00  0.00000000000E+00  0.69460363623E+03  0.69460363623E+03  0.00000000000E+00 0. -1.
         21   -1    0    0  503  502 -0.00000000000E+00 -0.00000000000E+00 -0.69622532151E+03  0.69622532151E+03  0.00000000000E+00 0.  1.
         21    1    1    2  503  506 -0.34789449560E+02  0.10185237683E+03  0.30026645976E+03  0.31897360286E+03  0.00000000000E+00 0. -1.
         21    1    1    2  504  505  0.12509203251E+03 -0.11736018290E+03 -0.26627358320E+03  0.31673814143E+03  0.00000000000E+00 0.  1.
         21    1    1    2  505  502 -0.56062667100E+02 -0.21969953198E+02 -0.39126043736E+03  0.39586668379E+03  0.00000000000E+00 0.  1.
         21    1    1    2  506  501 -0.34239915848E+02  0.37477759271E+02  0.35564587553E+03  0.35925052966E+03  0.00000000000E+00 0. -1.
<scales pt_clust_3="151.94693" pt_clust_4="14000.00000" pt_clust_5="60.33903" pt_clust_6="50.76371"></scales>
<clustering>
<clus scale="   50.764">  1  6  2 -1</clus>
<clus scale="   60.339">  2  5  1 -1</clus>
<clus scale="  151.947">  1  3  2 -1</clus>
<clus scale="   50.764">  1  3  2 -1</clus>
</clustering>
</event>
<event>
 6    0  0.1221518E+003  0.7572796E+02  0.7546771E-02  0.1341631E+00
         21   -1    0    0  504  501  0.00000000000E+00  0.00000000000E+00  0.41412494768E+03  0.41412494768E+03  0.00000000000E+00 0.  1.
         21   -1    0    0  503  502 -0.00000000000E+00 -0.00000000000E+00 -0.18339589410E+04  0.18339589410E+04  0.00000000000E+00 0.  1.
         21    1    1    2  503  501 -0.38195548749E+02  0.35338621670E+02  0.25155583547E+02  0.57797244826E+02  0.00000000000E+00 0. -1.
         21    1    1    2  504  505 -0.34993289832E+02 -0.11847264804E+02  0.36449165287E+03  0.36635918581E+03  0.00000000000E+00 0.  1.
         21    1    1    2  505  506  0.11214777978E+03 -0.43172633691E+02 -0.51989103271E+03  0.53359880688E+03  0.00000000000E+00 0.  1.
         21    1    1    2  506  502 -0.38958941196E+02  0.19681276824E+02 -0.12895901970E+04  0.12903286512E+04  0.00000000000E+00 0.  1.
<scales pt_clust_3="14000.00000" pt_clust_4="36.94439" pt_clust_5="75.72796" pt_clust_6="43.84481"></scales>
<clustering>
<clus scale="   36.944">  1  4  2 -1</clus>
<clus scale="   43.845">  2  6  1 -1</clus>
<clus scale="   75.728">  2  5  1 -1</clus>
<clus scale="   36.944">  1  3  2 -1</clus>
</clustering>
</event>
<event>
 6    0  0.1221518E+003  0.9306459E+02  0.7546771E-02  0.1295596E+00
         21   -1    0    0  506  501  0.00000000000E+00  0.00000000000E+00  0.18538323529E+03  0.18538323529E+03  0.00000000000E+00 0.  1.
         21   -1    0    0  505  502 -0.00000000000E+00 -0.00000000000E+00 -0.70168803581E+03  0.70168803581E+03  0.00000000000E+00 0.  1.
         21    1    1    2  503  504 -0.60239946915E+02 -0.73545999408E+02 -0.20299223959E+03  0.22415109762E+03  0.00000000000E+00 0.  1.
         21    1    1    2  504  502  0.28533845755E+02 -0.13405681850E+02 -0.44987979199E+03  0.45098305943E+03  0.00000000000E+00 0.  1.
         21    1    1    2  505  501  0.64520114430E+02  0.79121875981E+02  0.40005367732E+02  0.10965193054E+03  0.00000000000E+00 0.  1.
         21    1    1    2  506  503 -0.32814013270E+02  0.78298052767E+01  0.96561863318E+02  0.10228518351E+03  0.00000000000E+00 0.  1.
<scales pt_clust_3="14000.00000" pt_clust_4="31.52606" pt_clust_5="93.06459" pt_clust_6="33.38376"></scales>
<clustering>
<clus scale="   31.526">  2  4  1 -1</clus>
<clus scale="   33.384">  1  6  2 -1</clus>
<clus scale="   93.065">  1  5  2 -1</clus>
<clus scale="   33.384">  1  3  2 -1</clus>
</clustering>
</event>
<event>
 6    0  0.1221518E+003  0.8143166E+02  0.7546771E-02  0.1325037E+00
         21   -1    0    0  505  501  0.00000000000E+00  0.00000000000E+00  0.47484768946E+03  0.47484768946E+03  0.00000000000E+00 0. -1.
         21   -1    0    0  503  502 -0.00000000000E+00 -0.00000000000E+00 -0.33206133365E+03  0.33206133365E+03  0.00000000000E+00 0. -1.
         21    1    1    2  503  506 -0.19798493083E+02  0.59267197283E+02 -0.28900496442E+03  0.29568302363E+03  0.00000000000E+00 0. -1.
         21    1    1    2  504  502 -0.62702885980E+02 -0.16829491888E+02  0.12545727035E+02  0.66123210556E+02  0.00000000000E+00 0.  1.
         21    1    1    2  505  504  0.92181721758E+01  0.37457313015E+02  0.77441352351E+02  0.86516981285E+02  0.00000000000E+00 0. -1.
         21    1    1    2  506  501  0.73283206887E+02 -0.79895018410E+02  0.34180424085E+03  0.35858580764E+03  0.00000000000E+00 0. -1.
<scales pt_clust_3="62.76402" pt_clust_4="14000.00000" pt_clust_5="38.57493" pt_clust_6="81.43166"></scales>
<clustering>
<clus scale="   38.575">  1  5  2 -1</clus>
<clus scale="   62.764">  2  3  1 -1</clus>
<clus scale="   81.432">  1  6  2 -1</clus>
<clus scale="   38.575">  1  3  2 -1</clus>
</clustering>
</event>
<event>
 6    0  0.1221518E+003  0.8082704E+02  0.7546771E-02  0.1326721E+00
         21   -1    0    0  506  501  0.00000000000E+00  0.00000000000E+00  0.13668840164E+03  0.13668840164E+03  0.00000000000E+00 0. -1.
         21   -1    0    0  501  502 -0.00000000000E+00 -0.00000000000E+00 -0.20928281078E+04  0.20928281078E+04  0.00000000000E+00 0. -1.
         21    1    1    2  503  502 -0.34882903615E+02 -0.13336744272E+02 -0.13287422227E+04  0.13292669334E+04  0.00000000000E+00 0. -1.
         21    1    1    2  504  505 -0.61652695196E+02 -0.50238458674E+02 -0.55710805245E+02  0.97101242917E+02  0.00000000000E+00 0. -1.
         21    1    1    2  505  503  0.11940805633E+02  0.83759309918E+02 -0.66802476166E+03  0.67336118616E+03  0.00000000000E+00 0. -1.
         21    1    1    2  506  504  0.84594793179E+02 -0.20184106973E+02  0.96338083449E+02  0.12978714701E+03  0.00000000000E+00 0. -1.
<scales pt_clust_3="37.34549" pt_clust_4="80.82704" pt_clust_5="74.43311" pt_clust_6="14000.00000"></scales>
<clustering>
<clus scale="   37.345">  2  3  1 -1</clus>
<clus scale="   74.433">  2  5  1 -1</clus>
<clus scale="   80.827">  2  4  1 -1</clus>
<clus scale="   80.827">  1  3  2 -1</clus>
</clustering>
</event>
<event>
 6    0  0.1221518E+003  0.1199564E+03  0.7546771E-02  0.1243169E+00
         21   -1    0    0  503  501  0.00000000000E+00  0.00000000000E+00  0.12779557526E+03  0.12779557526E+03  0.00000000000E+00 0. -1.
         21   -1    0    0  505  502 -0.00000000000E+00 -0.00000000000E+00 -0.64347990576E+03  0.64347990576E+03  0.00000000000E+00 0.  1.
         21    1    1    2  503  506 -0.10472622291E+03  0.78527376885E+02  0.47291825047E+02  0.13917847320E+03  0.00000000000E+00 0. -1.
         21    1    1    2  504  501  0.10291506613E+03 -0.19844853779E+02 -0.67405242562E+02  0.12461458896E+03  0.00000000000E+00 0. -1.
         21    1    1    2  505  504  0.17468605087E+02 -0.32121043136E+02 -0.45528834256E+03  0.45675418821E+03  0.00000000000E+00 0.  1.
         21    1    1    2  506  502 -0.15657448300E+02 -0.26561479970E+02 -0.40282570413E+02  0.50728230646E+02  0.00000000000E+00 0.  1.
<scales pt_clust_3="119.95637" pt_clust_4="14000.00000" pt_clust_5="52.66801" pt_clust_6="30.83290"></scales>
<clustering>
<clus scale="   30.833">  2  6  1 -1</clus>
<clus scale="   52.668">  2  5  1 -1</clus>
<clus scale="  119.956">  1  3  2 -1</clus>
<clus scale="  119.956">  1  3  2 -1</clus>
</clustering>
</event>
<event>
 6    0  0.1221518E+003  0.1182397E+03  0.7546771E-02  0.1246029E+00
         21   -1    0    0  504  501  0.00000000000E+00  0.00000000000E+00  0.32902961401E+02  0.32902961401E+02  0.00000000000E+00 0. -1.
         21   -1    0    0  503  502 -0.00000000000E+00 -0.00000000000E+00 -0.91189336168E+03  0.91189336168E+03  0.00000000000E+00 0. -1.
         21    1    1    2  503  506 -0.12932445630E+02  0.29271298834E+02 -0.47965559423E+02  0.57660662294E+02  0.00000000000E+00 0. -1.
         21    1    1    2  504  502  0.38779298437E+02 -0.32402439058E+02 -0.30420102529E+03  0.30836993341E+03  0.00000000000E+00 0. -1.
         21    1    1    2  505  501  0.56870510698E+02 -0.74412455984E+02 -0.99450835175E+02  0.13660870108E+03  0.00000000000E+00 0. -1.
         21    1    1    2  506  505 -0.82717363505E+02  0.77543596208E+02 -0.42737298038E+03  0.44215702629E+03  0.00000000000E+00 0. -1.
<scales pt_clust_3="30.57748" pt_clust_4="50.53466" pt_clust_5="103.28577" pt_clust_6="30.57748"></scales>
<clustering>
<clus scale="   30.577">  3  6 -1 -1</clus>
<clus scale="   50.535">  2  4  1 -1</clus>
<clus scale="  103.286">  1  5  2 -1</clus>
<clus scale="  103.286">  1  3  2 -1</clus>
</clustering>
</event>
<event>
 6    0  0.1221518E+003  0.8881735E+02  0.7546771E-02  0.1305741E+00
         21   -1    0    0  505  501  0.00000000000E+00  0.00000000000E+00  0.10268392733E+04  0.10268392733E+04  0.00000000000E+00 0.  1.
         21   -1    0    0  506  502 -0.00000000000E+00 -0.00000000000E+00 -0.29331144633E+03  0.29331144633E+03  0.00000000000E+00 0.  1.
         21    1    1    2  503  502  0.47662506818E+01 -0.13170926593E+03 -0.17452915921E+03  0.21870179536E+03  0.00000000000E+00 0.  1.
         21    1    1    2  504  501  0.13953785550E+02  0.31017481272E+02  0.45724057247E+02  0.56986679906E+02  0.00000000000E+00 0. -1.
         21    1    1    2  505  503 -0.20572131091E+02  0.56695745771E+02  0.94705827825E+03  0.94897681878E+03  0.00000000000E+00 0.  1.
         21    1    1    2  506  504  0.18520948584E+01  0.43996038888E+02 -0.84725349292E+02  0.95485425620E+02  0.00000000000E+00 0.  1.
<scales pt_clust_3="88.81735" pt_clust_4="34.01165" pt_clust_5="14000.00000" pt_clust_6="44.20921"></scales>
<clustering>
<clus scale="   34.012">  1  4  2 -1</clus>
<clus scale="   44.209">  2  6  1 -1</clus>
<clus scale="   88.817">  2  3  1 -1</clus>
<clus scale="   34.012">  1  3  2 -1</clus>
</clustering>
</event>
<event>
 6    0  0.1221518E+003  0.1802545E+03  0.7546771E-02  0.1167557E+00
         21   -1    0    0  505  501  0.00000000000E+00  0.00000000000E+00  0.15852207112E+03  0.15852207112E+03  0.00000000000E+00 0. -1.
         21   -1    0    0  504  502 -0.00000000000E+00 -0.00000000000E+00 -0.52308701026E+03  0.52308701026E+03  0.00000000000E+00 0. -1.
         21    1    1    2  503  501  0.19897625695E+02  0.19504369739E+03  0.38703596682E+02  0.19983975529E+03  0.00000000000E+00 0. -1.
         21    1    1    2  504  503  0.61549059340E+02 -0.12443704141E+03 -0.28763575162E+03  0.31938564399E+03  0.00000000000E+00 0. -1.
         21    1    1    2  505  506 -0.46087714324E+02 -0.19385257508E+02 -0.37545579651E+02  0.62526283846E+02  0.00000000000E+00 0. -1.
         21    1    1    2  506  502 -0.35358970711E+02 -0.51221398475E+02 -0.78087204555E+02  0.99857398257E+02  0.00000000000E+00 0. -1.
<scales pt_clust_3="14000.00000" pt_clust_4="180.25451" pt_clust_5="33.27902" pt_clust_6="114.00666"></scales>
<clustering>
<clus scale="   33.279">  5  6 -1 -1</clus>
<clus scale="  114.007">  2  5  1 -1</clus>
<clus scale="  180.255">  2  4  1 -1</clus>
<clus scale="  180.255">  1  3  2 -1</clus>
</clustering>
</event>
<event>
 6    0  0.1221518E+003  0.7623042E+02  0.7546771E-02  0.1340103E+00
         21   -1    0    0  504  501  0.00000000000E+00  0.00000000000E+00  0.37249205257E+03  0.37249205257E+03  0.00000000000E+00 0. -1.
         21   -1    0    0  503  502 -0.00000000000E+00 -0.00000000000E+00 -0.46526952880E+03  0.46526952880E+03  0.00000000000E+00 0. -1.
         21    1    1    2  503  506 -0.96654869990E+02 -0.44019584680E+02 -0.85118860484E+02  0.13610697314E+03  0.00000000000E+00 0. -1.
         21    1    1    2  504  505  0.15555034131E+02  0.52854605744E+02  0.61654154838E+02  0.82684963833E+02  0.00000000000E+00 0. -1.
         21    1    1    2  505  502  0.22565811161E+02  0.36943287343E+02 -0.33771115383E+03  0.34047444211E+03  0.00000000000E+00 0. -1.
         21    1    1    2  506  501  0.58534024698E+02 -0.45778308408E+02  0.26839838324E+03  0.27849520228E+03  0.00000000000E+00 0. -1.
<scales pt_clust_3="14000.00000" pt_clust_4="58.58795" pt_clust_5="43.28998" pt_clust_6="76.23042"></scales>
<clustering>
<clus scale="   43.290">  2  5  1 -1</clus>
<clus scale="   58.588">  1  4  2 -1</clus>
<clus scale="   76.230">  1  6  2 -1</clus>
<clus scale="   58.588">  1  3  2 -1</clus>
</clustering>
</event>
<event>
 6    0  0.1221518E+003  0.1760291E+03  0.7546771E-02  0.1171702E+00
         21   -1    0    0  504  501  0.00000000000E+00  0.00000000000E+00  0.18212022558E+04  0.18212022558E+04  0.00000000000E+00 0. -1.
         21   -1    0    0  503  502 -0.00000000000E+00 -0.00000000000E+00 -0.41037657456E+02  0.41037657456E+02  0.00000000000E+00 0. -1.
         21    1    1    2  503  501 -0.15525232108E+03  0.12424617185E+03  0.10966786389E+04  0.11145601964E+04  0.00000000000E+00 0. -1.
         21    1    1    2  504  506 -0.19618091941E+02 -0.25268732326E+02  0.11921540553E+03  0.12343294245E+03  0.00000000000E+00 0. -1.
         21    1    1    2  505  502  0.37890783059E+02 -0.32313902494E+02  0.11827133570E+02  0.51183794542E+02  0.00000000000E+00 0. -1.
         21    1    1    2  506  505  0.13697962996E+03 -0.66663537025E+02  0.55244342030E+03  0.57306297981E+03  0.00000000000E+00 0. -1.
<scales pt_clust_3="176.02910" pt_clust_4="31.99029" pt_clust_5="49.82935" pt_clust_6="14000.00000"></scales>
<clustering>
<clus scale="   31.990">  1  4  2 -1</clus>
<clus scale="   49.829">  2  5  1 -1</clus>
<clus scale="  176.029">  1  3  2 -1</clus>
<clus scale="   31.990">  1  3  2 -1</clus>
</clustering>
</event>
<event>
 6    0  0.1221518E+003  0.1803901E+03  0.7546771E-02  0.1167426E+00
         21   -1    0    0  505  501  0.00000000000E+00  0.00000000000E+00  0.39615913796E+03  0.39615913796E+03  0.00000000000E+00 0.  1.
         21   -1    0    0  503  502 -0.00000000000E+00 -0.00000000000E+00 -0.20178951255E+03  0.20178951255E+03  0.00000000000E+00 0. -1.
         21    1    1    2  503  504  0.14931032291E+02 -0.37168062376E+02 -0.16420663284E+01  0.40088613943E+02  0.00000000000E+00 0.  1.
         21    1    1    2  504  506 -0.18000830914E+03  0.15690076708E+02  0.12480082886E+03  0.21960058459E+03  0.00000000000E+00 0.  1.
         21    1    1    2  505  502  0.16811066827E+03 -0.12592042750E+02 -0.77588417254E+02  0.18557941378E+03  0.00000000000E+00 0. -1.
         21    1    1    2  506  501 -0.30333914142E+01  0.34070028418E+02  0.14879928013E+03  0.15268003821E+03  0.00000000000E+00 0. -1.
<scales pt_clust_3="37.49809" pt_clust_4="180.39013" pt_clust_5="14000.00000" pt_clust_6="34.20480"></scales>
<clustering>
<clus scale="   34.205">  1  6  2 -1</clus>
<clus scale="   37.498">  2  3  1 -1</clus>
<clus scale="  180.390">  1  4  2 -1</clus>
<clus scale="   34.205">  1  3  2 -1</clus>
</clustering>
</event>
<event>
 6    0  0.1221518E+003  0.1002126E+03  0.7546771E-02  0.1279849E+00
         21   -1    0    0  502  501  0.00000000000E+00  0.00000000000E+00  0.27544512634E+04  0.27544512634E+04  0.00000000000E+00 0.  1.
         21   -1    0    0  505  502 -0.00000000000E+00 -0.00000000000E+00 -0.46695466229E+02  0.46695466229E+02  0.00000000000E+00 0.  1.
         21    1    1    2  503  506 -0.53177581644E+02  0.20779258262E+02  0.57330776682E+02  0.80910139775E+02  0.00000000000E+00 0.  1.
         21    1    1    2  504  501 -0.19556248874E+02  0.23011367850E+02  0.14871836408E+04  0.14874902189E+04  0.00000000000E+00 0.  1.
         21    1    1    2  505  503 -0.47763516632E+02  0.16948202230E+02 -0.10094277476E+02  0.51676779289E+02  0.00000000000E+00 0.  1.
         21    1    1    2  506  504  0.12049734715E+03 -0.60738828341E+02  0.11733356572E+04  0.11810695917E+04  0.00000000000E+00 0.  1.
<scales pt_clust_3="14000.00000" pt_clust_4="30.19884" pt_clust_5="51.11059" pt_clust_6="100.21261"></scales>
<clustering>
<clus scale="   30.199">  1  4  2 -1</clus>
<clus scale="   51.111">  2  5  1 -1</clus>
<clus scale="  100.213">  1  6  2 -1</clus>
<clus scale="   30.199">  1  3  2 -1</clus>
</clustering>
</event>
<event>
 6    0  0.1221518E+003  0.7647895E+02  0.7546771E-02  0.1339351E+00
         21   -1    0    0  506  501  0.00000000000E+00  0.00000000000E+00  0.33598965335E+03  0.33598965335E+03  0.00000000000E+00 0. -1.
         21   -1    0    0  504  502 -0.00000000000E+00 -0.00000000000E+00 -0.25544710608E+03  0.25544710608E+03  0.00000000000E+00 0. -1.
         21    1    1    2  503  505  0.93665322303E+02  0.73136989655E+02  0.89702883925E+02  0.14889197172E+03  0.00000000000E+00 0. -1.
         21    1    1    2  504  501 -0.60133463642E+02  0.11183936914E+01  0.10364878558E+01  0.60152793461E+02  0.00000000000E+00 0. -1.
         21    1    1    2  505  502 -0.26428081065E+01 -0.43127143186E+02 -0.19126720323E+03  0.19608691427E+03  0.00000000000E+00 0. -1.
         21    1    1    2  506  503 -0.30889050554E+02 -0.31128240161E+02  0.18107037872E+03  0.18630507998E+03  0.00000000000E+00 0. -1.
<scales pt_clust_3="14000.00000" pt_clust_4="76.47895" pt_clust_5="43.20804" pt_clust_6="45.24532"></scales>
<clustering>
<clus scale="   43.208">  2  5  1 -1</clus>
<clus scale="   45.245">  1  6  2 -1</clus>
<clus scale="   76.479">  2  4  1 -1</clus>
<clus scale="   45.245">  1  3  2 -1</clus>
</clustering>
</event>
<event>
 6    0  0.1221518E+003  0.1952177E+03  0.7546771E-02  0.1153838E+00
         21   -1    0    0  504  501  0.00000000000E+00  0.00000000000E+00  0.93786472150E+03  0.93786472150E+03  0.00000000000E+00 0. -1.
         21   -1    0    0  503  502 -0.00000000000E+00 -0.00000000000E+00 -0.12047333968E+03  0.12047333968E+03  0.00000000000E+00 0.  1.
         21    1    1    2  503  501 -0.33252561475E+02 -0.16520667194E+03  0.24133595430E+03  0.29435016585E+03  0.00000000000E+00 0. -1.
         21    1    1    2  504  505 -0.58105121115E+01 -0.32072724552E+02  0.17600227305E+03  0.17899503297E+03  0.00000000000E+00 0. -1.
         21    1    1    2  505  506  0.70219931596E+02  0.21682798090E+03  0.46073990540E+03  0.51402964168E+03  0.00000000000E+00 0. -1.
         21    1    1    2  506  502 -0.31156858009E+02 -0.19548584404E+02 -0.60686750918E+02  0.70963220686E+02  0.00000000000E+00 0.  1.
<scales pt_clust_3="14000.00000" pt_clust_4="32.59481" pt_clust_5="195.21773" pt_clust_6="36.93056"></scales>
<clustering>
<clus scale="   32.595">  1  4  2 -1</clus>
<clus scale="   36.931">  2  6  1 -1</clus>
<clus scale="  195.218">  1  5  2 -1</clus>
<clus scale="   32.595">  1  3  2 -1</clus>
</clustering>
</event>
<event>
 6    0  0.1221518E+003  0.1161194E+03  0.7546771E-02  0.1249640E+00
         21   -1    0    0  505  501  0.00000000000E+00  0.00000000000E+00  0.10683180114E+04  0.10683180114E+04  0.00000000000E+00 0.  1.
         21   -1    0    0  506  502 -0.00000000000E+00 -0.00000000000E+00 -0.10260561496E+03  0.10260561496E+03  0.00000000000E+00 0. -1.
         21    1    1    2  503  502  0.82086943342E+02  0.72633491743E+01  0.19162712705E+02  0.84606335855E+02  0.00000000000E+00 0. -1.
         21    1    1    2  504  501 -0.11738292487E+02  0.48010861564E+02  0.40932938026E+03  0.41230252471E+03  0.00000000000E+00 0.  1.
         21    1    1    2  505  503 -0.10432271622E+03 -0.94659267037E+02  0.58600773123E+03  0.60270114238E+03  0.00000000000E+00 0.  1.
         21    1    1    2  506  504  0.33974065369E+02  0.39385056298E+02 -0.48787427755E+02  0.71313623412E+02  0.00000000000E+00 0. -1.
<scales pt_clust_3="116.11943" pt_clust_4="49.42500" pt_clust_5="14000.00000" pt_clust_6="52.50959"></scales>
<clustering>
<clus scale="   49.425">  1  4  2 -1</clus>
<clus scale="   52.510">  2  6  1 -1</clus>
<clus scale="  116.119">  2  3  1 -1</clus>
<clus scale="   49.425">  1  3  2 -1</clus>
</clustering>
</event>
<event>
 6    0  0.1221518E+003  0.2176692E+03  0.7546771E-02  0.1135633E+00
         21   -1    0    0  503  501  0.00000000000E+00  0.00000000000E+00  0.24886781854E+04  0.24886781854E+04  0.00000000000E+00 0. -1.
         21   -1    0    0  504  502 -0.00000000000E+00 -0.00000000000E+00 -0.51494957588E+03  0.51494957588E+03  0.00000000000E+00 0.  1.
         21    1    1    2  503  505  0.11532152794E+02  0.49122299201E+02  0.22124114305E+04  0.22129867438E+04  0.00000000000E+00 0. -1.
         21    1    1    2  504  506 -0.18999311595E+02 -0.16860826928E+03 -0.30158097918E+03  0.34603584975E+03  0.00000000000E+00 0.  1.
         21    1    1    2  505  502 -0.12374606996E+02  0.15867862128E+03  0.22559112927E+03  0.27608584417E+03  0.00000000000E+00 0.  1.
         21    1    1    2  506  501  0.19841765798E+02 -0.39192651203E+02 -0.16269297102E+03  0.16851932351E+03  0.00000000000E+00 0.  1.
<scales pt_clust_3="50.45781" pt_clust_4="39.52734" pt_clust_5="203.33488" pt_clust_6="39.52734"></scales>
<clustering>
<clus scale="   39.527">  4  6 -1 -1</clus>
<clus scale="   50.458">  1  3  2 -1</clus>
<clus scale="  203.335">  1  5  2 -1</clus>
<clus scale="   50.458">  1  3  2 -1</clus>
</clustering>
</event>
<event>
 6    0  0.1221518E+003  0.2469362E+03  0.7546771E-02  0.1115257E+00
         21   -1    0    0  503  501  0.00000000000E+00  0.00000000000E+00  0.70844847813E+03  0.70844847813E+03  0.00000000000E+00 0.  1.
         21   -1    0    0  501  502 -0.00000000000E+00 -0.00000000000E+00 -0.41005624076E+03  0.41005624076E+03  0.00000000000E+00 0.  1.
         21    1    1    2  503  505  0.74203376228E+02  0.31401847358E+02  0.31497187011E+03  0.32511458906E+03  0.00000000000E+00 0.  1.
         21    1    1    2  504  502  0.30074700130E+02 -0.11491682103E+01 -0.23882775056E+03  0.24071664382E+03  0.00000000000E+00 0.  1.
         21    1    1    2  505  506  0.25686794937E+02  0.21922911972E+03  0.13228741081E+03  0.25733475752E+03  0.00000000000E+00 0.  1.
         21    1    1    2  506  504 -0.12996487129E+03 -0.24948179887E+03  0.89960707015E+02  0.29533872849E+03  0.00000000000E+00 0.  1.
<scales pt_clust_3="81.38670" pt_clust_4="30.09665" pt_clust_5="246.93616" pt_clust_6="14000.00000"></scales>
<clustering>
<clus scale="   30.097">  2  4  1 -1</clus>
<clus scale="   81.387">  1  3  2 -1</clus>
<clus scale="  246.936">  1  5  2 -1</clus>
<clus scale="   81.387">  1  3  2 -1</clus>
</clustering>
</event>
<event>
 6    0  0.1221518E+003  0.9015268E+02  0.7546771E-02  0.1302482E+00
         21   -1    0    0  506  501  0.00000000000E+00  0.00000000000E+00  0.51681741745E+03  0.51681741745E+03  0.00000000000E+00 0. -1.
         21   -1    0    0  505  502 -0.00000000000E+00 -0.00000000000E+00 -0.94315893040E+02  0.94315893040E+02  0.00000000000E+00 0. -1.
         21    1    1    2  503  501  0.70096164323E+02  0.45518118874E+02  0.34450285995E+03  0.35449625092E+03  0.00000000000E+00 0. -1.
         21    1    1    2  504  502 -0.11617830436E+03  0.58193151597E+01 -0.78541228370E+01  0.11658880769E+03  0.00000000000E+00 0. -1.
         21    1    1    2  505  503  0.29568224559E+02  0.87421650398E+01 -0.35906190597E+01  0.31041873306E+02  0.00000000000E+00 0.  1.
         21    1    1    2  506  504  0.16513915483E+02 -0.60079599073E+02  0.89443406359E+02  0.10900637858E+03  0.00000000000E+00 0. -1.
<scales pt_clust_3="90.15268" pt_clust_4="14000.00000" pt_clust_5="30.83351" pt_clust_6="62.35563"></scales>
<clustering>
<clus scale="   30.834">  2  5  1 -1</clus>
<clus scale="   62.356">  1  6  2 -1</clus>
<clus scale="   90.153">  1  3  2 -1</clus>
<clus scale="   62.356">  1  3  2 -1</clus>
</clustering>
</event>
<event>
 6    0  0.1221518E+003  0.1051463E+03  0.7546771E-02  0.1269832E+00
         21   -1    0    0  504  501  0.00000000000E+00  0.00000000000E+00  0.18976070801E+03  0.18976070801E+03  0.00000000000E+00 0. -1.
         21   -1    0    0  506  502 -0.00000000000E+00 -0.00000000000E+00 -0.20353957154E+03  0.20353957154E+03  0.00000000000E+00 0. -1.
         21    1    1    2  503  505 -0.77656107994E+02 -0.58383476464E+02 -0.54497269707E+01  0.97307764114E+02  0.00000000000E+00 0. -1.
         21    1    1    2  504  503 -0.22251214123E+02  0.22134392990E+02  0.76862085147E+02  0.83023057136E+02  0.00000000000E+00 0. -1.
         21    1    1    2  505  502  0.13342359619E+03 -0.12423913886E+02 -0.73121077307E+02  0.15265287944E+03  0.00000000000E+00 0. -1.
         21    1    1    2  506  501 -0.33516274071E+02  0.48672997359E+02 -0.12070144394E+02  0.60316578859E+02  0.00000000000E+00 0. -1.
<scales pt_clust_3="105.14631" pt_clust_4="31.38547" pt_clust_5="14000.00000" pt_clust_6="65.88541"></scales>
<clustering>
<clus scale="   31.385">  1  4  2 -1</clus>
<clus scale="   65.885">  2  6  1 -1</clus>
<clus scale="  105.146">  1  3  2 -1</clus>
<clus scale="   31.385">  1  3  2 -1</clus>
</clustering>
</event>
<event>
 6    0  0.1221518E+003  0.1843396E+03  0.7546771E-02  0.1163668E+00
         21   -1    0    0  505  501  0.00000000000E+00  0.00000000000E+00  0.83973403037E+03  0.83973403037E+03  0.00000000000E+00 0.  1.
         21   -1    0    0  503  502 -0.00000000000E+00 -0.00000000000E+00 -0.72054679397E+02  0.72054679397E+02  0.00000000000E+00 0.  1.
         21    1    1    2  503  504 -0.30812239351E+02 -0.13757115027E+03  0.18203846445E+03  0.23024599458E+03  0.00000000000E+00 0.  1.
         21    1    1    2  504  501  0.27565017897E+02 -0.64831227208E+02  0.36649533209E+03  0.37320469809E+03  0.00000000000E+00 0.  1.
         21    1    1    2  505  506 -0.25229056400E+02  0.36525403051E+02  0.72999252193E+02  0.85437118255E+02  0.00000000000E+00 0.  1.
         21    1    1    2  506  502  0.28476277854E+02  0.16587697443E+03  0.14614630224E+03  0.22290089884E+03  0.00000000000E+00 0.  1.
<scales pt_clust_3="167.06521" pt_clust_4="70.44798" pt_clust_5="40.01367" pt_clust_6="40.01367"></scales>
<clustering>
<clus scale="   40.014">  5  6 -1 -1</clus>
<clus scale="   70.448">  1  4  2 -1</clus>
<clus scale="  167.065">  2  3  1 -1</clus>
<clus scale="   70.448">  1  3  2 -1</clus>
</clustering>
</event>
<event>
 6    0  0.1221518E+003  0.1016222E+03  0.7546771E-02  0.1276921E+00
         21   -1    0    0  503  501  0.00000000000E+00  0.00000000000E+00  0.47216321110E+03  0.47216321110E+03  0.00000000000E+00 0. -1.
         21   -1    0    0  505  502 -0.00000000000E+00 -0.00000000000E+00 -0.98061855195E+03  0.98061855195E+03  0.00000000000E+00 0.  1.
         21    1    1    2  503  506  0.93760952222E+02  0.13444610816E+02  0.35207669627E+03  0.36459549336E+03  0.00000000000E+00 0. -1.
         21    1    1    2  504  501 -0.61662818258E+02  0.87649096546E+02 -0.34513526722E+02  0.11258708100E+03  0.00000000000E+00 0.  1.
         21    1    1    2  505  504 -0.32174319589E+02 -0.42952693646E+01 -0.86905775389E+03  0.86966373719E+03  0.00000000000E+00 0.  1.
         21    1    1    2  506  502  0.76185624251E-01 -0.96798437997E+02  0.43039243494E+02  0.10593545149E+03  0.00000000000E+00 0. -1.
<scales pt_clust_3="92.89387" pt_clust_4="14000.00000" pt_clust_5="32.45976" pt_clust_6="101.62217"></scales>
<clustering>
<clus scale="   32.460">  2  5  1 -1</clus>
<clus scale="   92.894">  1  3  2 -1</clus>
<clus scale="  101.622">  1  6  2 -1</clus>
<clus scale="   92.894">  1  3  2 -1</clus>
</clustering>
</event>
<event>
 6    0  0.1221518E+003  0.9508148E+02  0.7546771E-02  0.1290993E+00
         21   -1    0    0  503  501  0.00000000000E+00  0.00000000000E+00  0.80246999221E+03  0.80246999221E+03  0.00000000000E+00 0.  1.
         21   -1    0    0  504  502 -0.00000000000E+00 -0.00000000000E+00 -0.47309307750E+02  0.47309307750E+02  0.00000000000E+00 0.  1.
         21    1    1    2  503  506  0.73008267568E+02 -0.81740888366E+02  0.36367230975E+03  0.37982802536E+03  0.00000000000E+00 0.  1.
         21    1    1    2  504  505  0.26453405848E+02  0.51622721384E+02  0.26535355072E+02  0.63787248827E+02  0.00000000000E+00 0.  1.
         21    1    1    2  505  501 -0.20379781639E+02  0.81438195513E+02  0.17627105836E+03  0.19524087995E+03  0.00000000000E+00 0.  1.
         21    1    1    2  506  502 -0.79081891777E+02 -0.51320028531E+02  0.18868196127E+03  0.21092314582E+03  0.00000000000E+00 0.  1.
<scales pt_clust_3="14000.00000" pt_clust_4="58.00593" pt_clust_5="95.08148" pt_clust_6="75.61119"></scales>
<clustering>
<clus scale="   58.006">  2  4  1 -1</clus>
<clus scale="   75.611">  2  6  1 -1</clus>
<clus scale="   95.081">  2  5  1 -1</clus>
<clus scale="   95.081">  1  3  2 -1</clus>
</clustering>
</event>
<event>
 6    0  0.1221518E+003  0.1142761E+03  0.7546771E-02  0.1252850E+00
         21   -1    0    0  503  501  0.00000000000E+00  0.00000000000E+00  0.19296286501E+03  0.19296286501E+03  0.00000000000E+00 0.  1.
         21   -1    0    0  505  502 -0.00000000000E+00 -0.00000000000E+00 -0.55407061799E+03  0.55407061799E+03  0.00000000000E+00 0.  1.
         21    1    1    2  503  502 -0.10591005049E+03  0.76279497552E+02  0.90957833757E+02  0.15908748557E+03  0.00000000000E+00 0.  1.
         21    1    1    2  504  501  0.54634207529E+02 -0.10855784383E+02  0.37603966188E+01  0.55829071903E+02  0.00000000000E+00 0.  1.
         21    1    1    2  505  506  0.11032924055E+03 -0.28041899521E+02 -0.44747629662E+03  0.46172927727E+03  0.00000000000E+00 0.  1.
         21    1    1    2  506  504 -0.59053397591E+02 -0.37381813648E+02 -0.83496867428E+01  0.70387648259E+02  0.00000000000E+00 0.  1.
<scales pt_clust_3="114.27607" pt_clust_4="55.70229" pt_clust_5="14000.00000" pt_clust_6="62.64541"></scales>
<clustering>
<clus scale="   55.702">  1  4  2 -1</clus>
<clus scale="   62.645">  1  6  2 -1</clus>
<clus scale="  114.276">  1  3  2 -1</clus>
<clus scale="   55.702">  1  3  2 -1</clus>
</clustering>
</event>
<event>
 6    0  0.1221518E+003  0.9239640E+02  0.7546771E-02  0.1297150E+00
         21   -1    0    0  503  501  0.00000000000E+00  0.00000000000E+00  0.49093261847E+03  0.49093261847E+03  0.00000000000E+00 0. -1.
         21   -1    0    0  506  502 -0.00000000000E+00 -0.00000000000E+00 -0.55083053314E+02  0.55083053314E+02  0.00000000000E+00 0.  1.
         21    1    1    2  503  504  0.30014311162E+02  0.29803507658E+02  0.14008153411E+03  0.14632820692E+03  0.00000000000E+00 0. -1.
         21    1    1    2  504  502  0.31614589552E+02  0.10919726926E+02  0.43933540966E+02  0.55216652656E+02  0.00000000000E+00 0.  1.
         21    1    1    2  505  501 -0.60686731032E+02  0.59760336931E+02  0.22482353344E+03  0.24041588629E+03  0.00000000000E+00 0. -1.
         21    1    1    2  506  505 -0.94216968096E+00 -0.10048357152E+03  0.27010956645E+02  0.10405492592E+03  0.00000000000E+00 0.  1.
<scales pt_clust_3="82.21182" pt_clust_4="32.09028" pt_clust_5="92.39640" pt_clust_6="14000.00000"></scales>
<clustering>
<clus scale="   32.090">  3  4 -1 -1</clus>
<clus scale="   82.212">  1  3  2 -1</clus>
<clus scale="   92.396">  1  5  2 -1</clus>
<clus scale="   82.212">  1  3  2 -1</clus>
</clustering>
</event>
<event>
 6    0  0.1221518E+003  0.7587240E+02  0.7546771E-02  0.1341191E+00
         21   -1    0    0  506  501  0.00000000000E+00  0.00000000000E+00  0.12380620114E+04  0.12380620114E+04  0.00000000000E+00 0. -1.
         21   -1    0    0  504  502 -0.00000000000E+00 -0.00000000000E+00 -0.35868562570E+02  0.35868562570E+02  0.00000000000E+00 0. -1.
         21    1    1    2  503  501  0.44118719026E+02 -0.56393711173E+02  0.19558299775E+03  0.20827726961E+03  0.00000000000E+00 0. -1.
         21    1    1    2  504  503  0.13311105390E+02 -0.68687556367E+02  0.45617136365E+02  0.83522985199E+02  0.00000000000E+00 0. -1.
         21    1    1    2  505  502 -0.32567372268E+02  0.51198078309E+02  0.95585803323E+02  0.11321891519E+03  0.00000000000E+00 0. -1.
         21    1    1    2  506  505 -0.24862452148E+02  0.73883189232E+02  0.86540751136E+03  0.86891140393E+03  0.00000000000E+00 0. -1.
<scales pt_clust_3="75.87240" pt_clust_4="34.16665" pt_clust_5="60.67847" pt_clust_6="14000.00000"></scales>
<clustering>
<clus scale="   60.678">  2  5  1 -1</clus>
<clus scale="   34.167">  2  4  1 -1</clus>
<clus scale="   75.872">  2  3  1 -1</clus>
<clus scale="   75.872">  1  3  2 -1</clus>
</clustering>
</event>
<event>
 6    0  0.1221518E+003  0.9992735E+02  0.7546771E-02  0.1280449E+00
         21   -1    0    0  503  501  0.00000000000E+00  0.00000000000E+00  0.14917982687E+04  0.14917982687E+04  0.00000000000E+00 0. -1.
         21   -1    0    0  504  502 -0.00000000000E+00 -0.00000000000E+00 -0.99071655986E+02  0.99071655986E+02  0.00000000000E+00 0.  1.
         21    1    1    2  503  506 -0.18857493983E+02 -0.97896743401E+02  0.13285616406E+04  0.13322970428E+04  0.00000000000E+00 0. -1.
         21    1    1    2  504  505  0.37660554355E+02 -0.19781591468E+02  0.45173508648E+01  0.42778910391E+02  0.00000000000E+00 0. -1.
         21    1    1    2  505  501 -0.48232006394E+02  0.12576307119E+02  0.89672928410E+02  0.10259495129E+03  0.00000000000E+00 0. -1.
         21    1    1    2  506  502  0.29428946021E+02  0.10510202775E+03 -0.30025307152E+02  0.11319902018E+03  0.00000000000E+00 0.  1.
<scales pt_clust_3="99.92735" pt_clust_4="42.53973" pt_clust_5="46.50246" pt_clust_6="14000.00000"></scales>
<clustering>
<clus scale="   42.540">  2  4  1 -1</clus>
<clus scale="   46.502">  2  5  1 -1</clus>
<clus scale="   99.927">  1  3  2 -1</clus>
<clus scale="   99.927">  1  3  2 -1</clus>
</clustering>
</event>
<event>
 6    0  0.1221518E+003  0.1687209E+03  0.7546771E-02  0.1179188E+00
         21   -1    0    0  505  501  0.00000000000E+00  0.00000000000E+00  0.15697846087E+04  0.15697846087E+04  0.00000000000E+00 0. -1.
         21   -1    0    0  503  502 -0.00000000000E+00 -0.00000000000E+00 -0.78630151583E+02  0.78630151583E+02  0.00000000000E+00 0. -1.
         21    1    1    2  503  504  0.15733077727E+03  0.23011971707E+02  0.98039118943E+02  0.18679987463E+03  0.00000000000E+00 0. -1.
         21    1    1    2  504  501 -0.16025911107E+02 -0.53788858512E+02  0.12281952007E+04  0.12294769303E+04  0.00000000000E+00 0. -1.
         21    1    1    2  505  506 -0.70537967985E+02  0.53850458204E+02  0.84078425812E+02  0.12224834749E+03  0.00000000000E+00 0. -1.
         21    1    1    2  506  502 -0.70766898181E+02 -0.23073571399E+02  0.80841711729E+02  0.10988960793E+03  0.00000000000E+00 0. -1.
<scales pt_clust_3="150.63749" pt_clust_4="56.12549" pt_clust_5="75.93949" pt_clust_6="75.93949"></scales>
<clustering>
<clus scale="   56.125">  1  4  2 -1</clus>
<clus scale="   75.939">  5  6 -1 -1</clus>
<clus scale="  150.637">  2  3  1 -1</clus>
<clus scale="   56.125">  1  3  2 -1</clus>
</clustering>
</event>
<event>
 6    0  0.1221518E+003  0.1442244E+03  0.7546771E-02  0.1207755E+00
         21   -1    0    0  505  501  0.00000000000E+00  0.00000000000E+00  0.17060247969E+04  0.17060247969E+04  0.00000000000E+00 0.  1.
         21   -1    0    0  504  502 -0.00000000000E+00 -0.00000000000E+00 -0.55148653801E+02  0.55148653801E+02  0.00000000000E+00 0.  1.
         21    1    1    2  503  501 -0.16682744553E+02 -0.16659029887E+03  0.64097536361E+03  0.66248023246E+03  0.00000000000E+00 0.  1.
         21    1    1    2  504  503  0.90085927990E+02  0.51355475080E+02  0.63463762713E+02  0.12157511431E+03  0.00000000000E+00 0.  1.
         21    1    1    2  505  506 -0.40464411434E+02  0.10555348836E+01  0.72224327825E+03  0.72337669006E+03  0.00000000000E+00 0.  1.
         21    1    1    2  506  502 -0.32938772003E+02  0.11417928890E+03  0.22419373849E+03  0.25374141383E+03  0.00000000000E+00 0.  1.
<scales pt_clust_3="144.22442" pt_clust_4="100.45664" pt_clust_5="40.47818" pt_clust_6="14000.00000"></scales>
<clustering>
<clus scale="   40.478">  1  5  2 -1</clus>
<clus scale="  100.457">  2  4  1 -1</clus>
<clus scale="  144.224">  1  3  2 -1</clus>
<clus scale="   40.478">  1  3  2 -1</clus>
</clustering>
</event>
<event>
 6    0  0.1221518E+003  0.6457513E+02  0.7546771E-02  0.1379577E+00
         21   -1    0    0  504  501  0.00000000000E+00  0.00000000000E+00  0.55564060651E+03  0.55564060651E+03  0.00000000000E+00 0. -1.
         21   -1    0    0  505  502 -0.00000000000E+00 -0.00000000000E+00 -0.63482002898E+03  0.63482002898E+03  0.00000000000E+00 0. -1.
         21    1    1    2  503  506  0.59772395127E+02  0.12800410739E+03 -0.22832685685E+03  0.26849756849E+03  0.00000000000E+00 0. -1.
         21    1    1    2  504  503 -0.36175688655E+01 -0.43805155862E+02  0.52527750773E+03  0.52711330718E+03  0.00000000000E+00 0. -1.
         21    1    1    2  505  501 -0.28036426751E+02 -0.36700920953E+02 -0.70536601736E+02  0.84311393110E+02  0.00000000000E+00 0. -1.
         21    1    1    2  506  502 -0.28118399511E+02 -0.47498030575E+02 -0.30559347161E+03  0.31053836670E+03  0.00000000000E+00 0. -1.
<scales pt_clust_3="14000.00000" pt_clust_4="43.95428" pt_clust_5="55.12026" pt_clust_6="64.57513"></scales>
<clustering>
<clus scale="   43.954">  1  4  2 -1</clus>
<clus scale="   55.120">  1  5  2 -1</clus>
<clus scale="   64.575">  2  6  1 -1</clus>
<clus scale="   43.954">  1  3  2 -1</clus>
</clustering>
</event>
<event>
 6    0  0.1221518E+003  0.1150676E+03  0.7546771E-02  0.1251463E+00
         21   -1    0    0  504  501  0.00000000000E+00  0.00000000000E+00  0.42290194372E+03  0.42290194372E+03  0.00000000000E+00 0.  1.
         21   -1    0    0  506  502 -0.00000000000E+00 -0.00000000000E+00 -0.23621746293E+03  0.23621746293E+03  0.00000000000E+00 0. -1.
         21    1    1    2  503  502 -0.24714402785E+02 -0.56503788605E+02 -0.10787688447E+02  0.62608737839E+02  0.00000000000E+00 0. -1.
         21    1    1    2  504  505 -0.48119960557E+01  0.32453621685E+02  0.41177871699E+02  0.52649881141E+02  0.00000000000E+00 0.  1.
         21    1    1    2  505  503  0.10405893234E+03  0.35561343607E+02  0.33355989851E+03  0.35121941354E+03  0.00000000000E+00 0.  1.
         21    1    1    2  506  501 -0.74532533495E+02 -0.11511176687E+02 -0.17726560097E+03  0.19264137412E+03  0.00000000000E+00 0. -1.
<scales pt_clust_3="59.76825" pt_clust_4="32.80843" pt_clust_5="115.06762" pt_clust_6="14000.00000"></scales>
<clustering>
<clus scale="   32.808">  1  4  2 -1</clus>
<clus scale="   59.768">  2  3  1 -1</clus>
<clus scale="  115.068">  1  5  2 -1</clus>
<clus scale="   32.808">  1  3  2 -1</clus>
</clustering>
</event>
<event>
 6    0  0.1361680E+003  0.1685047E+03  0.7546771E-02  0.1179416E+00
         21   -1    0    0  506  501  0.00000000000E+00  0.00000000000E+00  0.24812427191E+04  0.24812427191E+04  0.00000000000E+00 0.  1.
         21   -1    0    0  503  502 -0.00000000000E+00 -0.00000000000E+00 -0.39021069624E+03  0.39021069624E+03  0.00000000000E+00 0.  1.
         21    1    1    2  503  505  0.52431934281E+02  0.93162378980E+01  0.53461898339E+02  0.75459092196E+02  0.00000000000E+00 0. -1.
         21    1    1    2  504  502  0.77747231995E+02  0.91927544701E+02 -0.31856786735E+03  0.34055952735E+03  0.00000000000E+00 0.  1.
         21    1    1    2  505  501 -0.23197720370E+03 -0.29587199386E+02  0.23808446654E+03  0.33372599331E+03  0.00000000000E+00 0.  1.
         21    1    1    2  506  504  0.10179803743E+03 -0.71656583213E+02  0.21180535254E+04  0.21217088025E+04  0.00000000000E+00 0.  1.
<scales pt_clust_3="53.25317" pt_clust_4="14000.00000" pt_clust_5="168.50471" pt_clust_6="124.66991"></scales>
<clustering>
<clus scale="   53.253">  2  3  1 -1</clus>
<clus scale="  124.670">  1  6  2 -1</clus>
<clus scale="  168.505">  1  5  2 -1</clus>
<clus scale="  124.670">  1  3  2 -1</clus>
</clustering>
</event>
<event>
 6    0  0.1221518E+003  0.1106651E+03  0.7546771E-02  0.1259343E+00
         21   -1    0    0  506  501  0.00000000000E+00  0.00000000000E+00  0.24249116540E+04  0.24249116540E+04  0.00000000000E+00 0. -1.
         21   -1    0    0  505  502 -0.00000000000E+00 -0.00000000000E+00 -0.43442652946E+03  0.43442652946E+03  0.00000000000E+00 0. -1.
         21    1    1    2  503  504 -0.13377897545E+02 -0.82347181009E+02  0.14647720417E+03  0.16856926678E+03  0.00000000000E+00 0. -1.
         21    1    1    2  504  501  0.92723509856E+02  0.71804907570E+02  0.22536022651E+04  0.22566516708E+04  0.00000000000E+00 0. -1.
         21    1    1    2  505  503 -0.73358966192E+02  0.56831109933E+02 -0.21818023847E+03  0.23709476889E+03  0.00000000000E+00 0. -1.
         21    1    1    2  506  502 -0.59866461199E+01 -0.46288836494E+02 -0.19141410632E+03  0.19702247692E+03  0.00000000000E+00 0. -1.
<scales pt_clust_3="14000.00000" pt_clust_4="110.66512" pt_clust_5="80.08864" pt_clust_6="46.67436"></scales>
<clustering>
<clus scale="   46.674">  2  6  1 -1</clus>
<clus scale="   80.089">  2  5  1 -1</clus>
<clus scale="  110.665">  1  4  2 -1</clus>
<clus scale="  110.665">  1  3  2 -1</clus>
</clustering>
</event>
<event>
 6    0  0.1221518E+003  0.8163359E+02  0.7546771E-02  0.1324478E+00
         21   -1    0    0  506  501  0.00000000000E+00  0.00000000000E+00  0.89321096506E+02  0.89321096506E+02  0.00000000000E+00 0. -1.
         21   -1    0    0  504  502 -0.00000000000E+00 -0.00000000000E+00 -0.13593311289E+04  0.13593311289E+04  0.00000000000E+00 0. -1.
         21    1    1    2  503  505  0.38368894039E+02  0.45880106008E+02 -0.73727977537E+03  0.73970171240E+03  0.00000000000E+00 0. -1.
         21    1    1    2  504  501  0.66906711629E+02 -0.16244065758E+01 -0.71366150488E+02  0.97837999741E+02  0.00000000000E+00 0.  1.
         21    1    1    2  505  502 -0.38510997015E+02  0.19096943379E+02 -0.50669590718E+03  0.50851601007E+03  0.00000000000E+00 0. -1.
         21    1    1    2  506  503 -0.66764608654E+02 -0.63352642811E+02  0.45331800644E+02  0.10259650320E+03  0.00000000000E+00 0. -1.
<scales pt_clust_3="62.63628" pt_clust_4="14000.00000" pt_clust_5="42.98593" pt_clust_6="81.63359"></scales>
<clustering>
<clus scale="   42.986">  2  5  1 -1</clus>
<clus scale="   62.636">  2  3  1 -1</clus>
<clus scale="   81.634">  1  6  2 -1</clus>
<clus scale="   81.634">  1  3  2 -1</clus>
</clustering>
</event>
<event>
 6    0  0.1221518E+003  0.1096661E+03  0.7546771E-02  0.1261189E+00
         21   -1    0    0  504  501  0.00000000000E+00  0.00000000000E+00  0.46570830170E+03  0.46570830170E+03  0.00000000000E+00 0. -1.
         21   -1    0    0  503  502 -0.00000000000E+00 -0.00000000000E+00 -0.31050700245E+03  0.31050700245E+03  0.00000000000E+00 0. -1.
         21    1    1    2  503  501 -0.51500732996E+02  0.25322006098E+02 -0.39515566192E+02  0.69677897955E+02  0.00000000000E+00 0.  1.
         21    1    1    2  504  506 -0.44310567357E+02  0.99880372140E+01  0.10167365377E+03  0.11135851624E+03  0.00000000000E+00 0. -1.
         21    1    1    2  505  502 -0.21018514119E+02  0.58675616108E+02 -0.23039438744E+03  0.23867588823E+03  0.00000000000E+00 0. -1.
         21    1    1    2  506  505  0.11682981447E+03 -0.93985659421E+02  0.32343759911E+03  0.35650300173E+03  0.00000000000E+00 0. -1.
<scales pt_clust_3="59.24553" pt_clust_4="45.42232" pt_clust_5="109.66610" pt_clust_6="14000.00000"></scales>
<clustering>
<clus scale="   45.422">  1  4  2 -1</clus>
<clus scale="   59.246">  2  3  1 -1</clus>
<clus scale="  109.666">  2  5  1 -1</clus>
<clus scale="   45.422">  1  3  2 -1</clus>
</clustering>
</event>
<event>
 6    0  0.1221518E+003  0.1024701E+03  0.7546771E-02  0.1275186E+00
         21   -1    0    0  503  501  0.00000000000E+00  0.00000000000E+00  0.10326062484E+03  0.10326062484E+03  0.00000000000E+00 0. -1.
         21   -1    0    0  505  502 -0.00000000000E+00 -0.00000000000E+00 -0.67527356646E+03  0.67527356646E+03  0.00000000000E+00 0. -1.
         21    1    1    2  503  504  0.35252025091E+02 -0.17664526500E+03 -0.44257894154E+02  0.18548589196E+03  0.00000000000E+00 0. -1.
         21    1    1    2  504  502  0.23182107518E+02  0.43122524565E+02 -0.26789858535E+03  0.27233548110E+03  0.00000000000E+00 0. -1.
         21    1    1    2  505  506 -0.41534606698E+02  0.61036977965E+02 -0.22817358439E+03  0.23982039289E+03  0.00000000000E+00 0. -1.
         21    1    1    2  506  501 -0.16899525911E+02  0.72485762474E+02 -0.31682877725E+02  0.80892425346E+02  0.00000000000E+00 0. -1.
<scales pt_clust_3="102.47010" pt_clust_4="48.95878" pt_clust_5="14000.00000" pt_clust_6="79.65992"></scales>
<clustering>
<clus scale="   48.959">  2  4  1 -1</clus>
<clus scale="   79.660">  1  6  2 -1</clus>
<clus scale="  102.470">  1  3  2 -1</clus>
<clus scale="   79.660">  1  3  2 -1</clus>
</clustering>
</event>
<event>
 6    0  0.1221518E+003  0.1041907E+03  0.7546771E-02  0.1271722E+00
         21   -1    0    0  506  501  0.00000000000E+00  0.00000000000E+00  0.67992556843E+03  0.67992556843E+03  0.00000000000E+00 0. -1.
         21   -1    0    0  504  502 -0.00000000000E+00 -0.00000000000E+00 -0.16919664084E+03  0.16919664084E+03  0.00000000000E+00 0. -1.
         21    1    1    2  503  505  0.11762785672E+03 -0.48580157627E+02  0.39942978046E+02  0.13338585340E+03  0.00000000000E+00 0. -1.
         21    1    1    2  504  503 -0.99077370394E+02  0.51336884475E+01 -0.76483693820E+02  0.12526945159E+03  0.00000000000E+00 0. -1.
         21    1    1    2  505  501  0.30832916832E+02 -0.31502113303E+02  0.46991361482E+03  0.47197654316E+03  0.00000000000E+00 0. -1.
         21    1    1    2  506  502 -0.49383403161E+02  0.74948582483E+02  0.77356028544E+02  0.11849036111E+03  0.00000000000E+00 0. -1.
<scales pt_clust_3="14000.00000" pt_clust_4="104.19068" pt_clust_5="44.08006" pt_clust_6="69.59198"></scales>
<clustering>
<clus scale="   44.080">  1  5  2 -1</clus>
<clus scale="   69.592">  1  6  2 -1</clus>
<clus scale="  104.191">  2  4  1 -1</clus>
<clus scale="   44.080">  1  3  2 -1</clus>
</clustering>
</event>
<event>
 6    0  0.1221518E+003  0.1063094E+03  0.7546771E-02  0.1267561E+00
         21   -1    0    0  504  501  0.00000000000E+00  0.00000000000E+00  0.25750208929E+03  0.25750208929E+03  0.00000000000E+00 0.  1.
         21   -1    0    0  505  502 -0.00000000000E+00 -0.00000000000E+00 -0.37571818665E+03  0.37571818665E+03  0.00000000000E+00 0.  1.
         21    1    1    2  503  506 -0.30179504129E+02  0.26273739529E+02  0.30082058623E+02  0.50060384630E+02  0.00000000000E+00 0.  1.
         21    1    1    2  504  503 -0.66223692420E+02  0.18745837723E+02  0.12940819718E+03  0.14657238951E+03  0.00000000000E+00 0.  1.
         21    1    1    2  505  501  0.70397933170E+02  0.56316487005E+02 -0.31335145569E+03  0.32606218807E+03  0.00000000000E+00 0.  1.
         21    1    1    2  506  502  0.26005263378E+02 -0.10133606426E+03  0.35645102527E+02  0.11052531374E+03  0.00000000000E+00 0. -1.
<scales pt_clust_3="33.29673" pt_clust_4="33.29673" pt_clust_5="90.15218" pt_clust_6="96.92632"></scales>
<clustering>
<clus scale="   33.297">  3  4 -1 -1</clus>
<clus scale="   90.152">  2  5  1 -1</clus>
<clus scale="   96.926">  2  6  1 -1</clus>
<clus scale="  106.309">  1  3  2 -1</clus>
</clustering>
</event>
<event>
 6    0  0.1221518E+003  0.1445521E+03  0.7546771E-02  0.1207332E+00
         21   -1    0    0  504  501  0.00000000000E+00  0.00000000000E+00  0.17667982586E+03  0.17667982586E+03  0.00000000000E+00 0.  1.
         21   -1    0    0  503  502 -0.00000000000E+00 -0.00000000000E+00 -0.26919590361E+03  0.26919590361E+03  0.00000000000E+00 0. -1.
         21    1    1    2  503  506 -0.35529604451E+02  0.16516131069E+02 -0.71842872762E+02  0.81832351455E+02  0.00000000000E+00 0. -1.
         21    1    1    2  504  502  0.18180728165E+03 -0.15054940672E+02 -0.35952109224E+02  0.18593841200E+03  0.00000000000E+00 0.  1.
         21    1    1    2  505  501 -0.32169838892E+02 -0.92334074008E+01  0.48571239490E+02  0.58985758045E+02  0.00000000000E+00 0. -1.
         21    1    1    2  506  505 -0.11410783831E+03  0.77722170039E+01 -0.33292335263E+02  0.11911920797E+03  0.00000000000E+00 0. -1.
<scales pt_clust_3="40.21806" pt_clust_4="144.55209" pt_clust_5="33.46871" pt_clust_6="14000.00000"></scales>
<clustering>
<clus scale="   33.469">  1  5  2 -1</clus>
<clus scale="   40.218">  2  3  1 -1</clus>
<clus scale="  144.552">  1  4  2 -1</clus>
<clus scale="   33.469">  1  3  2 -1</clus>
</clustering>
</event>
<event>
 6    0  0.1221518E+003  0.1290108E+03  0.7546771E-02  0.1228931E+00
         21   -1    0    0  506  501  0.00000000000E+00  0.00000000000E+00  0.36375937907E+03  0.36375937907E+03  0.00000000000E+00 0.  1.
         21   -1    0    0  503  502 -0.00000000000E+00 -0.00000000000E+00 -0.56509267796E+03  0.56509267796E+03  0.00000000000E+00 0.  1.
         21    1    1    2  503  505 -0.58040903267E+02 -0.27621647936E+02 -0.51460048362E+02  0.82339774496E+02  0.00000000000E+00 0.  1.
         21    1    1    2  504  501  0.10584585591E+02 -0.35645239703E+02  0.12816281418E+03  0.13344783064E+03  0.00000000000E+00 0.  1.
         21    1    1    2  505  504  0.10952787988E+03  0.89699736470E+02  0.19181094086E+03  0.23839848201E+03  0.00000000000E+00 0.  1.
         21    1    1    2  506  502 -0.62071562200E+02 -0.26432848832E+02 -0.46984700556E+03  0.47466596988E+03  0.00000000000E+00 0.  1.
<scales pt_clust_3="64.70590" pt_clust_4="37.18355" pt_clust_5="129.01083" pt_clust_6="14000.00000"></scales>
<clustering>
<clus scale="   37.184">  1  4  2 -1</clus>
<clus scale="   64.706">  2  3  1 -1</clus>
<clus scale="  129.011">  1  5  2 -1</clus>
<clus scale="   37.184">  1  3  2 -1</clus>
</clustering>
</event>
<event>
 6    0  0.1221518E+003  0.3074160E+03  0.7546771E-02  0.1081591E+00
         21   -1    0    0  502  501  0.00000000000E+00  0.00000000000E+00  0.29015158165E+03  0.29015158165E+03  0.00000000000E+00 0. -1.
         21   -1    0    0  503  502 -0.00000000000E+00 -0.00000000000E+00 -0.14096733083E+04  0.14096733083E+04  0.00000000000E+00 0. -1.
         21    1    1    2  503  506  0.55728680944E+02 -0.11549481269E+02 -0.11617001378E+03  0.12936208293E+03  0.00000000000E+00 0.  1.
         21    1    1    2  504  501 -0.25239668828E+02 -0.22158462770E+02  0.19018320563E+03  0.19312609885E+03  0.00000000000E+00 0. -1.
         21    1    1    2  505  504 -0.17941471317E+03 -0.22876185852E+03 -0.23937771238E+03  0.37659436586E+03  0.00000000000E+00 0. -1.
         21    1    1    2  506  505  0.14892570105E+03  0.26246980256E+03 -0.95415720614E+03  0.10007423423E+04  0.00000000000E+00 0. -1.
<scales pt_clust_3="55.58798" pt_clust_4="33.58628" pt_clust_5="307.41603" pt_clust_6="14000.00000"></scales>
<clustering>
<clus scale="   33.586">  1  4  2 -1</clus>
<clus scale="   55.588">  2  3  1 -1</clus>
<clus scale="  307.416">  1  5  2 -1</clus>
<clus scale="   33.586">  1  3  2 -1</clus>
</clustering>
</event>
<event>
 6    0  0.1221518E+003  0.1013401E+03  0.7546771E-02  0.1277503E+00
         21   -1    0    0  506  501  0.00000000000E+00  0.00000000000E+00  0.12272285274E+03  0.12272285274E+03  0.00000000000E+00 0.  1.
         21   -1    0    0  504  502 -0.00000000000E+00 -0.00000000000E+00 -0.58058276735E+03  0.58058276735E+03  0.00000000000E+00 0.  1.
         21    1    1    2  503  502 -0.30011864147E+02 -0.49883429600E+01 -0.10723928741E+03  0.11147134304E+03  0.00000000000E+00 0.  1.
         21    1    1    2  504  505  0.10962297623E+03 -0.81170369358E+02 -0.37603218293E+03  0.40000753541E+03  0.00000000000E+00 0.  1.
         21    1    1    2  505  501 -0.40446701258E+02  0.29187494464E+02  0.86316252729E+02  0.99691228104E+02  0.00000000000E+00 0.  1.
         21    1    1    2  506  503 -0.39164410828E+02  0.56971217854E+02 -0.60904696989E+02  0.92135513536E+02  0.00000000000E+00 0.  1.
<scales pt_clust_3="30.42360" pt_clust_4="101.34013" pt_clust_5="50.18320" pt_clust_6="14000.00000"></scales>
<clustering>
<clus scale="   30.424">  2  3  1 -1</clus>
<clus scale="   50.183">  1  5  2 -1</clus>
<clus scale="  101.340">  2  4  1 -1</clus>
<clus scale="   50.183">  1  3  2 -1</clus>
</clustering>
</event>
<event>
 6    0  0.1221518E+003  0.1438051E+03  0.7546771E-02  0.1208299E+00
         21   -1    0    0  503  501  0.00000000000E+00  0.00000000000E+00  0.23197513131E+03  0.23197513131E+03  0.00000000000E+00 0.  1.
         21   -1    0    0  504  502 -0.00000000000E+00 -0.00000000000E+00 -0.14906224452E+03  0.14906224452E+03  0.00000000000E+00 0.  1.
         21    1    1    2  503  506  0.15288940836E+01 -0.40212645754E+02  0.17068609267E+02  0.43711918489E+02  0.00000000000E+00 0. -1.
         21    1    1    2  504  505  0.13743709105E+03 -0.90521315385E+01  0.15675543698E+02  0.13862401578E+03  0.00000000000E+00 0.  1.
         21    1    1    2  505  501  0.11959397652E+02  0.38866276193E+02  0.15332428147E+02  0.43459152893E+02  0.00000000000E+00 0.  1.
         21    1    1    2  506  502 -0.15092538278E+03  0.10398501100E+02  0.34836305678E+02  0.15524228866E+03  0.00000000000E+00 0.  1.
<scales pt_clust_3="40.24170" pt_clust_4="14000.00000" pt_clust_5="35.17902" pt_clust_6="143.80506"></scales>
<clustering>
<clus scale="   40.242">  1  3  2 -1</clus>
<clus scale="   35.179">  1  5  2 -1</clus>
<clus scale="  143.805">  1  6  2 -1</clus>
<clus scale="   40.242">  1  3  2 -1</clus>
</clustering>
</event>
<event>
 6    0  0.1221518E+003  0.1028980E+03  0.7546771E-02  0.1274317E+00
         21   -1    0    0  504  501  0.00000000000E+00  0.00000000000E+00  0.19118009680E+04  0.19118009680E+04  0.00000000000E+00 0. -1.
         21   -1    0    0  505  502 -0.00000000000E+00 -0.00000000000E+00 -0.29139836282E+03  0.29139836282E+03  0.00000000000E+00 0. -1.
         21    1    1    2  503  502 -0.35329006663E+02  0.17329018674E+02 -0.12190138494E+03  0.12809520386E+03  0.00000000000E+00 0. -1.
         21    1    1    2  504  503  0.58843366894E+01  0.81660470505E+02 -0.14154389859E+03  0.16351676700E+03  0.00000000000E+00 0. -1.
         21    1    1    2  505  506  0.58198584273E+02 -0.11978509897E+03  0.31069032693E+03  0.33802962059E+03  0.00000000000E+00 0. -1.
         21    1    1    2  506  501 -0.28753914299E+02  0.20795609794E+02  0.15731575618E+04  0.15735577394E+04  0.00000000000E+00 0. -1.
<scales pt_clust_3="39.67020" pt_clust_4="102.89804" pt_clust_5="14000.00000" pt_clust_6="35.48584"></scales>
<clustering>
<clus scale="   35.486">  1  6  2 -1</clus>
<clus scale="   39.670">  2  3  1 -1</clus>
<clus scale="  102.898">  2  4  1 -1</clus>
<clus scale="   35.486">  1  3  2 -1</clus>
</clustering>
</event>
<event>
 6    0  0.1221518E+003  0.6995166E+02  0.7546771E-02  0.1360258E+00
         21   -1    0    0  505  501  0.00000000000E+00  0.00000000000E+00  0.17801907942E+03  0.17801907942E+03  0.00000000000E+00 0. -1.
         21   -1    0    0  503  502 -0.00000000000E+00 -0.00000000000E+00 -0.18812661968E+03  0.18812661968E+03  0.00000000000E+00 0. -1.
         21    1    1    2  503  501 -0.69273717210E+02 -0.66291456267E+01  0.11695114352E+02  0.70566062435E+02  0.00000000000E+00 0. -1.
         21    1    1    2  504  502 -0.59027312992E+02 -0.20441322638E+02 -0.98095995859E+02  0.11629658531E+03  0.00000000000E+00 0. -1.
         21    1    1    2  505  506  0.70215297872E+02 -0.93404316800E+00  0.89195856928E+02  0.11352075310E+03  0.00000000000E+00 0. -1.
         21    1    1    2  506  504  0.58085732330E+02  0.28004511433E+02 -0.12902515686E+02  0.65762298256E+02  0.00000000000E+00 0. -1.
<scales pt_clust_3="14000.00000" pt_clust_4="62.46656" pt_clust_5="69.95166" pt_clust_6="34.50770"></scales>
<clustering>
<clus scale="   62.467">  2  4  1 -1</clus>
<clus scale="   34.508">  2  6  1 -1</clus>
<clus scale="   69.952">  1  5  2 -1</clus>
<clus scale="   69.952">  1  3  2 -1</clus>
</clustering>
</event>
<event>
 6    0  0.1221518E+003  0.6914866E+02  0.7546771E-02  0.1363012E+00
         21   -1    0    0  504  501  0.00000000000E+00  0.00000000000E+00  0.31891352323E+02  0.31891352323E+02  0.00000000000E+00 0.  1.
         21   -1    0    0  505  502 -0.00000000000E+00 -0.00000000000E+00 -0.10076985159E+04  0.10076985159E+04  0.00000000000E+00 0.  1.
         21    1    1    2  503  501  0.12081460507E+02  0.27531725060E+02 -0.53697435967E+02  0.61541629831E+02  0.00000000000E+00 0.  1.
         21    1    1    2  504  506 -0.75657658900E+02 -0.16985830003E+02 -0.49310434743E+02  0.91891886180E+02  0.00000000000E+00 0.  1.
         21    1    1    2  505  503  0.75336432047E+02 -0.63500424304E+02 -0.59649602772E+03  0.60457869047E+03  0.00000000000E+00 0.  1.
         21    1    1    2  506  502 -0.11760233654E+02  0.52954529247E+02 -0.27630326511E+03  0.28157766171E+03  0.00000000000E+00 0.  1.
<scales pt_clust_3="30.06589" pt_clust_4="69.14866" pt_clust_5="14000.00000" pt_clust_6="56.55672"></scales>
<clustering>
<clus scale="   30.066">  1  3  2 -1</clus>
<clus scale="   56.557">  2  6  1 -1</clus>
<clus scale="   69.149">  1  4  2 -1</clus>
<clus scale="   30.066">  1  3  2 -1</clus>
</clustering>
</event>
<event>
 6    0  0.1221518E+003  0.8255725E+02  0.7546771E-02  0.1321947E+00
         21   -1    0    0  504  501  0.00000000000E+00  0.00000000000E+00  0.71508287486E+02  0.71508287486E+02  0.00000000000E+00 0.  1.
         21   -1    0    0  503  502 -0.00000000000E+00 -0.00000000000E+00 -0.53795206475E+03  0.53795206475E+03  0.00000000000E+00 0.  1.
         21    1    1    2  503  501  0.77647756665E+02  0.18980205727E+02 -0.61406803781E+02  0.10079790611E+03  0.00000000000E+00 0.  1.
         21    1    1    2  504  506  0.12969859020E+02  0.29657725106E+02  0.28554641081E+02  0.43164400016E+02  0.00000000000E+00 0.  1.
         21    1    1    2  505  502 -0.55419870699E+02  0.40205006273E+02 -0.24046140648E+03  0.25001898449E+03  0.00000000000E+00 0.  1.
         21    1    1    2  506  505 -0.35197744986E+02 -0.88842937106E+02 -0.19313020808E+03  0.21547906162E+03  0.00000000000E+00 0.  1.
<scales pt_clust_3="14000.00000" pt_clust_4="32.36971" pt_clust_5="69.52415" pt_clust_6="82.55725"></scales>
<clustering>
<clus scale="   32.370">  1  4  2 -1</clus>
<clus scale="   69.524">  2  5  1 -1</clus>
<clus scale="   82.557">  2  6  1 -1</clus>
<clus scale="   32.370">  1  3  2 -1</clus>
</clustering>
</event>
<event>
 6    0  0.1221518E+003  0.7910518E+02  0.7546771E-02  0.1331610E+00
         21   -1    0    0  505  501  0.00000000000E+00  0.00000000000E+00  0.76157202209E+03  0.76157202209E+03  0.00000000000E+00 0.  1.
         21   -1    0    0  503  502 -0.00000000000E+00 -0.00000000000E+00 -0.28618747330E+02  0.28618747330E+02  0.00000000000E+00 0.  1.
         21    1    1    2  503  504  0.78495562274E+01  0.32799437104E+02  0.42637021736E+02  0.54362985844E+02  0.00000000000E+00 0. -1.
         21    1    1    2  504  501 -0.46231244141E+02 -0.77116235484E+01  0.31799361605E+03  0.32142920981E+03  0.00000000000E+00 0.  1.
         21    1    1    2  505  506  0.10277308474E+03 -0.36627536889E+02  0.28588620264E+03  0.30599804618E+03  0.00000000000E+00 0.  1.
         21    1    1    2  506  502 -0.64391396828E+02  0.11539723333E+02  0.86436434331E+02  0.10840052758E+03  0.00000000000E+00 0.  1.
<scales pt_clust_3="33.72564" pt_clust_4="45.93803" pt_clust_5="79.10518" pt_clust_6="14000.00000"></scales>
<clustering>
<clus scale="   33.726">  2  3  1 -1</clus>
<clus scale="   45.938">  1  4  2 -1</clus>
<clus scale="   79.105">  1  5  2 -1</clus>
<clus scale="   45.938">  1  3  2 -1</clus>
</clustering>
</event>
<event>
 6    0  0.1221518E+003  0.1294767E+03  0.7546771E-02  0.1228234E+00
         21   -1    0    0  506  501  0.00000000000E+00  0.00000000000E+00  0.30973222178E+03  0.30973222178E+03  0.00000000000E+00 0. -1.
         21   -1    0    0  503  502 -0.00000000000E+00 -0.00000000000E+00 -0.34029844541E+03  0.34029844541E+03  0.00000000000E+00 0.  1.
         21    1    1    2  503  504  0.19774142678E+02 -0.37567328504E+02 -0.44810398046E+02  0.61727568093E+02  0.00000000000E+00 0. -1.
         21    1    1    2  504  501 -0.45748092681E+02 -0.10424524728E+03  0.12253320446E+03  0.16725533103E+03  0.00000000000E+00 0. -1.
         21    1    1    2  505  502 -0.44754044016E+02  0.69770619905E+00 -0.22202552317E+03  0.22649226077E+03  0.00000000000E+00 0.  1.
         21    1    1    2  506  505  0.70727994018E+02  0.14111486958E+03  0.11373649312E+03  0.19455550730E+03  0.00000000000E+00 0. -1.
<scales pt_clust_3="42.45375" pt_clust_4="129.47671" pt_clust_5="40.98530" pt_clust_6="14000.00000"></scales>
<clustering>
<clus scale="   42.454">  2  3  1 -1</clus>
<clus scale="   40.985">  2  5  1 -1</clus>
<clus scale="  129.477">  1  4  2 -1</clus>
<clus scale="  129.477">  1  3  2 -1</clus>
</clustering>
</event>
<event>
 6    0  0.1221518E+003  0.2585675E+03  0.7546771E-02  0.1108007E+00
         21   -1    0    0  506  501  0.00000000000E+00  0.00000000000E+00  0.82770798695E+03  0.82770798695E+03  0.00000000000E+00 0. -1.
         21   -1    0    0  505  502 -0.00000000000E+00 -0.00000000000E+00 -0.29201584333E+03  0.29201584333E+03  0.00000000000E+00 0. -1.
         21    1    1    2  503  502  0.98073370960E+01 -0.63256939669E+02 -0.82390679172E+02  0.10433526869E+03  0.00000000000E+00 0. -1.
         21    1    1    2  504  503 -0.41434908560E+02 -0.10097600078E+03 -0.27045049521E+02  0.11244749479E+03  0.00000000000E+00 0. -1.
         21    1    1    2  505  501  0.27181753969E+02 -0.21910582363E+03  0.37072966533E+03  0.43149356247E+03  0.00000000000E+00 0. -1.
         21    1    1    2  506  504  0.44458174950E+01  0.38333876408E+03  0.27439820699E+03  0.47144750433E+03  0.00000000000E+00 0. -1.
<scales pt_clust_3="64.01269" pt_clust_4="128.91072" pt_clust_5="14000.00000" pt_clust_6="258.56748"></scales>
<clustering>
<clus scale="   64.013">  2  3  1 -1</clus>
<clus scale="  128.911">  2  4  1 -1</clus>
<clus scale="  258.567">  2  6  1 -1</clus>
<clus scale="  258.567">  1  3  2 -1</clus>
</clustering>
</event>
<event>
 6    0  0.1221518E+003  0.1868938E+03  0.7546771E-02  0.1161293E+00
         21   -1    0    0  504  501  0.00000000000E+00  0.00000000000E+00  0.66420366656E+03  0.66420366656E+03  0.00000000000E+00 0.  1.
         21   -1    0    0  505  502 -0.00000000000E+00 -0.00000000000E+00 -0.21070594536E+03  0.21070594536E+03  0.00000000000E+00 0.  1.
         21    1    1    2  503  501  0.30742318294E+02 -0.24641736663E+02  0.73746830550E+02  0.83611604076E+02  0.00000000000E+00 0. -1.
         21    1    1    2  504  506 -0.18632768412E+03  0.10477541551E+03  0.32428357758E+03  0.38840150907E+03  0.00000000000E+00 0.  1.
         21    1    1    2  505  503  0.21246098095E+03  0.81096301978E+02  0.43289302359E+02  0.23149566372E+03  0.00000000000E+00 0.  1.
         21    1    1    2  506  502 -0.56875615127E+02 -0.16122998083E+03  0.12178010713E+02  0.17140083506E+03  0.00000000000E+00 0.  1.
<scales pt_clust_3="39.39931" pt_clust_4="14000.00000" pt_clust_5="186.89379" pt_clust_6="173.10556"></scales>
<clustering>
<clus scale="   39.399">  1  3  2 -1</clus>
<clus scale="  173.106">  2  6  1 -1</clus>
<clus scale="  186.894">  2  5  1 -1</clus>
<clus scale="   39.399">  1  3  2 -1</clus>
</clustering>
</event>
<event>
 6    0  0.1221518E+003  0.1293334E+03  0.7546771E-02  0.1228448E+00
         21   -1    0    0  506  501  0.00000000000E+00  0.00000000000E+00  0.61105786176E+03  0.61105786176E+03  0.00000000000E+00 0. -1.
         21   -1    0    0  505  502 -0.00000000000E+00 -0.00000000000E+00 -0.69928042288E+03  0.69928042288E+03  0.00000000000E+00 0. -1.
         21    1    1    2  503  504  0.49679231907E+02 -0.12955953191E+03  0.70743979204E+02  0.15575111231E+03  0.00000000000E+00 0. -1.
         21    1    1    2  504  501 -0.43407778704E+02  0.11495361865E+03  0.18599066276E+03  0.22291499798E+03  0.00000000000E+00 0. -1.
         21    1    1    2  505  503  0.26221550274E+02  0.24152649839E+02 -0.63683707491E+03  0.63783413218E+03  0.00000000000E+00 0. -1.
         21    1    1    2  506  502 -0.32493003477E+02 -0.95467365786E+01  0.29187987182E+03  0.29383804217E+03  0.00000000000E+00 0. -1.
<scales pt_clust_3="129.33338" pt_clust_4="14000.00000" pt_clust_5="35.60240" pt_clust_6="33.86644"></scales>
<clustering>
<clus scale="   33.866">  1  6  2 -1</clus>
<clus scale="   35.602">  2  5  1 -1</clus>
<clus scale="  129.333">  2  3  1 -1</clus>
<clus scale="   33.866">  1  3  2 -1</clus>
</clustering>
</event>
<event>
 6    0  0.1221518E+003  0.1100845E+03  0.7546771E-02  0.1260414E+00
         21   -1    0    0  503  501  0.00000000000E+00  0.00000000000E+00  0.77001990888E+02  0.77001990888E+02  0.00000000000E+00 0. -1.
         21   -1    0    0  505  502 -0.00000000000E+00 -0.00000000000E+00 -0.66239677137E+03  0.66239677137E+03  0.00000000000E+00 0. -1.
         21    1    1    2  503  504  0.15860599218E+02 -0.57368709280E+02  0.15097630959E+02  0.61405747879E+02  0.00000000000E+00 0. -1.
         21    1    1    2  504  502 -0.46681847491E+02 -0.79330215945E+02 -0.47887329511E+02  0.10375776778E+03  0.00000000000E+00 0. -1.
         21    1    1    2  505  506  0.11428754584E+02  0.36469945669E+02 -0.28961506788E+03  0.29212593331E+03  0.00000000000E+00 0. -1.
         21    1    1    2  506  501  0.19392493688E+02  0.10022897956E+03 -0.26299001405E+03  0.28210931329E+03  0.00000000000E+00 0. -1.
<scales pt_clust_3="57.53444" pt_clust_4="110.08445" pt_clust_5="38.21876" pt_clust_6="14000.00000"></scales>
<clustering>
<clus scale="   38.219">  2  5  1 -1</clus>
<clus scale="   57.534">  1  3  2 -1</clus>
<clus scale="  110.084">  1  4  2 -1</clus>
<clus scale="   57.534">  1  3  2 -1</clus>
</clustering>
</event>
<event>
 6    0  0.1221518E+003  0.1886475E+03  0.7546771E-02  0.1159687E+00
         21   -1    0    0  506  501  0.00000000000E+00  0.00000000000E+00  0.24651995858E+04  0.24651995858E+04  0.00000000000E+00 0.  1.
         21   -1    0    0  503  502 -0.00000000000E+00 -0.00000000000E+00 -0.45208046365E+02  0.45208046365E+02  0.00000000000E+00 0.  1.
         21    1    1    2  503  504 -0.72335774150E+01  0.44258433430E+02  0.59542948298E+02  0.74541909447E+02  0.00000000000E+00 0. -1.
         21    1    1    2  504  505  0.70540064616E+02 -0.21623957601E+03  0.37454979181E+03  0.43820429196E+03  0.00000000000E+00 0.  1.
         21    1    1    2  505  501 -0.90023748187E+02  0.15374338578E+03  0.14714279256E+04  0.14821745660E+04  0.00000000000E+00 0.  1.
         21    1    1    2  506  502  0.26717260986E+02  0.18237756804E+02  0.51447087380E+03  0.51548686481E+03  0.00000000000E+00 0.  1.
<scales pt_clust_3="45.32746" pt_clust_4="188.64754" pt_clust_5="14000.00000" pt_clust_6="32.34854"></scales>
<clustering>
<clus scale="   32.349">  1  6  2 -1</clus>
<clus scale="   45.327">  2  3  1 -1</clus>
<clus scale="  188.648">  2  4  1 -1</clus>
<clus scale="   32.349">  1  3  2 -1</clus>
</clustering>
</event>
<event>
 6    0  0.1221518E+003  0.1028753E+03  0.7546771E-02  0.1274363E+00
         21   -1    0    0  505  501  0.00000000000E+00  0.00000000000E+00  0.29954930377E+02  0.29954930377E+02  0.00000000000E+00 0. -1.
         21   -1    0    0  504  502 -0.00000000000E+00 -0.00000000000E+00 -0.11505221472E+04  0.11505221472E+04  0.00000000000E+00 0.  1.
         21    1    1    2  503  502 -0.59647573702E+01  0.62486606801E+02 -0.26926660286E+03  0.27648627050E+03  0.00000000000E+00 0.  1.
         21    1    1    2  504  501 -0.30301247193E+02 -0.12787078895E+02 -0.18177742053E+03  0.18472873513E+03  0.00000000000E+00 0.  1.
         21    1    1    2  505  506 -0.81234802785E+02 -0.62370070567E+02 -0.12275999896E+03  0.15987224972E+03  0.00000000000E+00 0. -1.
         21    1    1    2  506  503  0.11750080735E+03  0.12670542661E+02 -0.54676319446E+03  0.55938982222E+03  0.00000000000E+00 0.  1.
<scales pt_clust_3="60.64152" pt_clust_4="32.88883" pt_clust_5="102.87532" pt_clust_6="14000.00000"></scales>
<clustering>
<clus scale="   32.889">  2  4  1 -1</clus>
<clus scale="   60.642">  2  3  1 -1</clus>
<clus scale="  102.875">  1  5  2 -1</clus>
<clus scale="  102.875">  1  3  2 -1</clus>
</clustering>
</event>
<event>
 6    0  0.1221518E+003  0.1022827E+03  0.7546771E-02  0.1275568E+00
         21   -1    0    0  505  501  0.00000000000E+00  0.00000000000E+00  0.29834288183E+03  0.29834288183E+03  0.00000000000E+00 0. -1.
         21   -1    0    0  504  502 -0.00000000000E+00 -0.00000000000E+00 -0.36352532213E+03  0.36352532213E+03  0.00000000000E+00 0. -1.
         21    1    1    2  503  501 -0.16030073919E+02 -0.31888689454E+02  0.11935999401E+03  0.12458194073E+03  0.00000000000E+00 0.  1.
         21    1    1    2  504  503  0.25169248784E+02 -0.26038108303E+02 -0.22353176046E+03  0.22644628967E+03  0.00000000000E+00 0. -1.
         21    1    1    2  505  506 -0.91693817064E+02  0.31061377185E+02  0.14466848799E+03  0.17407336574E+03  0.00000000000E+00 0. -1.
         21    1    1    2  506  502  0.82554642198E+02  0.26865420572E+02 -0.10567916183E+03  0.13676660783E+03  0.00000000000E+00 0. -1.
<scales pt_clust_3="35.69106" pt_clust_4="36.31274" pt_clust_5="102.28270" pt_clust_6="14000.00000"></scales>
<clustering>
<clus scale="   35.691">  1  3  2 -1</clus>
<clus scale="   36.313">  2  4  1 -1</clus>
<clus scale="  102.283">  1  5  2 -1</clus>
<clus scale="   35.691">  1  3  2 -1</clus>
</clustering>
</event>
<event>
 6    0  0.1221518E+003  0.8315086E+02  0.7546771E-02  0.1320340E+00
         21   -1    0    0  503  501  0.00000000000E+00  0.00000000000E+00  0.10729055197E+03  0.10729055197E+03  0.00000000000E+00 0.  1.
         21   -1    0    0  504  502 -0.00000000000E+00 -0.00000000000E+00 -0.11590180278E+04  0.11590180278E+04  0.00000000000E+00 0. -1.
         21    1    1    2  503  505  0.30179723065E+02 -0.21463583623E+02  0.32552967796E+02  0.49307168024E+02  0.00000000000E+00 0.  1.
         21    1    1    2  504  506  0.29835285645E+02 -0.11479730475E+03 -0.77917402080E+03  0.78815018882E+03  0.00000000000E+00 0. -1.
         21    1    1    2  505  502 -0.71298716153E+02  0.43997681502E+02 -0.32343562862E+03  0.33411062354E+03  0.00000000000E+00 0. -1.
         21    1    1    2  506  501  0.11283707443E+02  0.92263206870E+02  0.18329205757E+02  0.94740599424E+02  0.00000000000E+00 0. -1.
<scales pt_clust_3="37.03378" pt_clust_4="83.15086" pt_clust_5="80.80917" pt_clust_6="14000.00000"></scales>
<clustering>
<clus scale="   37.034">  1  3  2 -1</clus>
<clus scale="   80.809">  2  5  1 -1</clus>
<clus scale="   83.151">  2  4  1 -1</clus>
<clus scale="   37.034">  1  3  2 -1</clus>
</clustering>
</event>
<event>
 6    0  0.1221518E+003  0.1099777E+03  0.7546771E-02  0.1260611E+00
         21   -1    0    0  505  501  0.00000000000E+00  0.00000000000E+00  0.67393967072E+02  0.67393967072E+02  0.00000000000E+00 0. -1.
         21   -1    0    0  501  502 -0.00000000000E+00 -0.00000000000E+00 -0.14683376777E+04  0.14683376777E+04  0.00000000000E+00 0.  1.
         21    1    1    2  503  504 -0.26578079875E+02 -0.94132159524E+02 -0.29891308808E+02  0.10227779881E+03  0.00000000000E+00 0. -1.
         21    1    1    2  504  502  0.46975645312E+02  0.79572247955E+02 -0.13077378281E+04  0.13109983528E+04  0.00000000000E+00 0.  1.
         21    1    1    2  505  506  0.27339590422E+02  0.39719060245E+02 -0.43593399500E+02  0.65003395536E+02  0.00000000000E+00 0. -1.
         21    1    1    2  506  503 -0.47737155859E+02 -0.25159148676E+02 -0.19721174191E+02  0.57452097639E+02  0.00000000000E+00 0. -1.
<scales pt_clust_3="42.66189" pt_clust_4="93.78713" pt_clust_5="48.21884" pt_clust_6="42.66189"></scales>
<clustering>
<clus scale="   42.662">  3  6 -1 -1</clus>
<clus scale="   48.219">  1  5  2 -1</clus>
<clus scale="   93.787">  2  4  1 -1</clus>
<clus scale="   48.219">  1  3  2 -1</clus>
</clustering>
</event>
<event>
 6    0  0.1221518E+003  0.1166919E+03  0.7546771E-02  0.1248656E+00
         21   -1    0    0  505  501  0.00000000000E+00  0.00000000000E+00  0.17759036506E+04  0.17759036506E+04  0.00000000000E+00 0. -1.
         21   -1    0    0  506  502 -0.00000000000E+00 -0.00000000000E+00 -0.13492220666E+02  0.13492220666E+02  0.00000000000E+00 0.  1.
         21    1    1    2  503  502 -0.11092815218E+02  0.62242713680E+02  0.29705576118E+03  0.30370928732E+03  0.00000000000E+00 0. -1.
         21    1    1    2  504  501  0.32837090709E+02 -0.93105491484E+02  0.84410579440E+03  0.84985969384E+03  0.00000000000E+00 0. -1.
         21    1    1    2  505  503 -0.10541401962E+02  0.59717164956E+02  0.58510836216E+03  0.58824234497E+03  0.00000000000E+00 0. -1.
         21    1    1    2  506  504 -0.11202873529E+02 -0.28854387152E+02  0.36141512241E+02  0.47584545183E+02  0.00000000000E+00 0.  1.
<scales pt_clust_3="43.71504" pt_clust_4="107.68049" pt_clust_5="43.71504" pt_clust_6="30.95287"></scales>
<clustering>
<clus scale="   30.953">  2  6  1 -1</clus>
<clus scale="   43.715">  3  5 -1 -1</clus>
<clus scale="  107.680">  1  4  2 -1</clus>
<clus scale="  107.680">  1  3  2 -1</clus>
</clustering>
</event>
<event>
 6    0  0.1221518E+003  0.7030727E+02  0.7546771E-02  0.1359051E+00
         21   -1    0    0  505  501  0.00000000000E+00  0.00000000000E+00  0.19267921991E+04  0.19267921991E+04  0.00000000000E+00 0.  1.
         21   -1    0    0  506  502 -0.00000000000E+00 -0.00000000000E+00 -0.42296715001E+02  0.42296715001E+02  0.00000000000E+00 0.  1.
         21    1    1    2  503  502  0.46033435116E+02  0.82540179381E+01 -0.87405758033E+01  0.47577343621E+02  0.00000000000E+00 0.  1.
         21    1    1    2  504  501 -0.41067205277E+02  0.34085565000E+02  0.14479776981E+04  0.14489609226E+04  0.00000000000E+00 0.  1.
         21    1    1    2  505  503 -0.68731131025E+01 -0.96018088944E+02  0.35204759527E+03  0.36497153646E+03  0.00000000000E+00 0.  1.
         21    1    1    2  506  504  0.19068832633E+01  0.53678506006E+02  0.93210766485E+02  0.10757911135E+03  0.00000000000E+00 0. -1.
<scales pt_clust_3="46.76757" pt_clust_4="52.33620" pt_clust_5="14000.00000" pt_clust_6="70.30727"></scales>
<clustering>
<clus scale="   46.768">  2  3  1 -1</clus>
<clus scale="   52.336">  1  4  2 -1</clus>
<clus scale="   70.307">  2  6  1 -1</clus>
<clus scale="   52.336">  1  3  2 -1</clus>
</clustering>
</event>
<event>
 6    0  0.1221518E+003  0.3181604E+03  0.7546771E-02  0.1076499E+00
         21   -1    0    0  502  501  0.00000000000E+00  0.00000000000E+00  0.35056792418E+03  0.35056792418E+03  0.00000000000E+00 0.  1.
         21   -1    0    0  505  502 -0.00000000000E+00 -0.00000000000E+00 -0.98065679432E+03  0.98065679432E+03  0.00000000000E+00 0.  1.
         21    1    1    2  503  501 -0.67350591856E+02 -0.32098255483E+03  0.22099113472E+03  0.39547817177E+03  0.00000000000E+00 0.  1.
         21    1    1    2  504  506 -0.85337179322E+01  0.54686489446E+02 -0.34007231077E+03  0.34454696780E+03  0.00000000000E+00 0.  1.
         21    1    1    2  505  504  0.29612950034E+02  0.51885747022E+01 -0.76116671504E+02  0.81838840400E+02  0.00000000000E+00 0.  1.
         21    1    1    2  506  503  0.46271359754E+02  0.26110749068E+03 -0.43489102259E+03  0.50936073852E+03  0.00000000000E+00 0.  1.
<scales pt_clust_3="14000.00000" pt_clust_4="56.72096" pt_clust_5="30.06407" pt_clust_6="318.16038"></scales>
<clustering>
<clus scale="   30.064">  2  5  1 -1</clus>
<clus scale="   56.721">  2  4  1 -1</clus>
<clus scale="  318.160">  2  6  1 -1</clus>
<clus scale="  318.160">  1  3  2 -1</clus>
</clustering>
</event>
<event>
 6    0  0.1221518E+003  0.1452959E+03  0.7546771E-02  0.1206375E+00
         21   -1    0    0  504  501  0.00000000000E+00  0.00000000000E+00  0.30007508205E+03  0.30007508205E+03  0.00000000000E+00 0. -1.
         21   -1    0    0  506  502 -0.00000000000E+00 -0.00000000000E+00 -0.59002460265E+03  0.59002460265E+03  0.00000000000E+00 0.  1.
         21    1    1    2  503  501 -0.27717933250E+01 -0.41812242677E+02  0.76719903627E+02  0.87417904851E+02  0.00000000000E+00 0. -1.
         21    1    1    2  504  505 -0.30605763866E+02  0.20645105055E+02  0.86387450066E+02  0.93945328109E+02  0.00000000000E+00 0.  1.
         21    1    1    2  505  502  0.10693158499E+03  0.80543891366E+02 -0.55429183719E+03  0.57022900933E+03  0.00000000000E+00 0.  1.
         21    1    1    2  506  503 -0.73554027802E+02 -0.59376753744E+02  0.10123496289E+03  0.13850744241E+03  0.00000000000E+00 0. -1.
<scales pt_clust_3="34.44201" pt_clust_4="36.91792" pt_clust_5="133.42195" pt_clust_6="34.44201"></scales>
<clustering>
<clus scale="   36.918">  1  4  2 -1</clus>
<clus scale="   34.442">  3  6 -1 -1</clus>
<clus scale="  133.422">  2  5  1 -1</clus>
<clus scale="   36.918">  1  3  2 -1</clus>
</clustering>
</event>
<event>
 6    0  0.1221518E+003  0.3158814E+03  0.7546771E-02  0.1077561E+00
         21   -1    0    0  502  501  0.00000000000E+00  0.00000000000E+00  0.11468917573E+04  0.11468917573E+04  0.00000000000E+00 0. -1.
         21   -1    0    0  506  502 -0.00000000000E+00 -0.00000000000E+00 -0.66158601869E+03  0.66158601869E+03  0.00000000000E+00 0. -1.
         21    1    1    2  503  505  0.31351384109E+02  0.21877157124E+02  0.16683783765E+01  0.38266209321E+02  0.00000000000E+00 0. -1.
         21    1    1    2  504  501  0.10504934611E+03 -0.29020157081E+03  0.64401876567E+03  0.71415158569E+03  0.00000000000E+00 0. -1.
         21    1    1    2  505  504 -0.15745781004E+03  0.29091325638E+03  0.38625986687E+03  0.50854711624E+03  0.00000000000E+00 0. -1.
         21    1    1    2  506  503  0.21057079818E+02 -0.22588842695E+02 -0.54664127233E+03  0.54751286472E+03  0.00000000000E+00 0. -1.
<scales pt_clust_3="39.22912" pt_clust_4="315.88140" pt_clust_5="14000.00000" pt_clust_6="30.88133"></scales>
<clustering>
<clus scale="   30.881">  2  6  1 -1</clus>
<clus scale="   39.229">  2  3  1 -1</clus>
<clus scale="  315.881">  1  4  2 -1</clus>
<clus scale="  315.881">  1  3  2 -1</clus>
</clustering>
</event>
<event>
 6    0  0.1221518E+003  0.1072744E+03  0.7546771E-02  0.1265702E+00
         21   -1    0    0  506  501  0.00000000000E+00  0.00000000000E+00  0.47309443392E+03  0.47309443392E+03  0.00000000000E+00 0. -1.
         21   -1    0    0  505  502 -0.00000000000E+00 -0.00000000000E+00 -0.35258935385E+02  0.35258935385E+02  0.00000000000E+00 0. -1.
         21    1    1    2  503  501  0.25836125572E+02 -0.36304471147E+02  0.10095378523E+03  0.11035029117E+03  0.00000000000E+00 0. -1.
         21    1    1    2  504  502 -0.68889269472E+02 -0.28147184124E+02  0.10601561880E+03  0.12952724367E+03  0.00000000000E+00 0. -1.
         21    1    1    2  505  503  0.79530550458E+02  0.54212328892E+02  0.13868460504E+03  0.16881203966E+03  0.00000000000E+00 0. -1.
         21    1    1    2  506  504 -0.36477406559E+02  0.10239326380E+02  0.92181489473E+02  0.99663794808E+02  0.00000000000E+00 0. -1.
<scales pt_clust_3="44.55917" pt_clust_4="30.47015" pt_clust_5="98.40831" pt_clust_6="30.47015"></scales>
<clustering>
<clus scale="   30.470">  4  6 -1 -1</clus>
<clus scale="   44.559">  1  3  2 -1</clus>
<clus scale="   98.408">  2  5  1 -1</clus>
<clus scale="   44.559">  1  3  2 -1</clus>
</clustering>
</event>
<event>
 6    0  0.1221518E+003  0.1959978E+03  0.7546771E-02  0.1153160E+00
         21   -1    0    0  505  501  0.00000000000E+00  0.00000000000E+00  0.61429387548E+03  0.61429387548E+03  0.00000000000E+00 0. -1.
         21   -1    0    0  506  502 -0.00000000000E+00 -0.00000000000E+00 -0.40267000323E+03  0.40267000323E+03  0.00000000000E+00 0. -1.
         21    1    1    2  503  501  0.21511832862E+03 -0.10538606220E+03  0.21426324726E+03  0.32138894900E+03  0.00000000000E+00 0. -1.
         21    1    1    2  504  502  0.32509002218E+02  0.15969452378E+02 -0.16947557185E+03  0.17330270652E+03  0.00000000000E+00 0. -1.
         21    1    1    2  505  504 -0.14439282339E+03  0.10296205169E+03  0.30286654567E+03  0.35096811254E+03  0.00000000000E+00 0. -1.
         21    1    1    2  506  503 -0.10323450745E+03 -0.13545441874E+02 -0.13603034883E+03  0.17130411065E+03  0.00000000000E+00 0. -1.
<scales pt_clust_3="195.99784" pt_clust_4="36.21959" pt_clust_5="14000.00000" pt_clust_6="81.68768"></scales>
<clustering>
<clus scale="   36.220">  2  4  1 -1</clus>
<clus scale="   81.688">  2  6  1 -1</clus>
<clus scale="  195.998">  2  3  1 -1</clus>
<clus scale="  195.998">  1  3  2 -1</clus>
</clustering>
</event>
<event>
 6    0  0.1221518E+003  0.1363382E+03  0.7546771E-02  0.1218343E+00
         21   -1    0    0  506  501  0.00000000000E+00  0.00000000000E+00  0.49178343884E+03  0.49178343884E+03  0.00000000000E+00 0.  1.
         21   -1    0    0  504  502 -0.00000000000E+00 -0.00000000000E+00 -0.14469962296E+03  0.14469962296E+03  0.00000000000E+00 0. -1.
         21    1    1    2  503  505 -0.24162501643E+02 -0.15373261548E+03  0.15992985311E+03  0.22314816034E+03  0.00000000000E+00 0. -1.
         21    1    1    2  504  503 -0.21475436221E+02  0.21207822188E+02 -0.29984095873E+02  0.42544236839E+02  0.00000000000E+00 0. -1.
         21    1    1    2  505  501  0.27178456574E+02  0.15487301096E+02  0.24669907728E+03  0.24867440505E+03  0.00000000000E+00 0.  1.
         21    1    1    2  506  502  0.18459481290E+02  0.11703749219E+03 -0.29561018630E+02  0.12211625957E+03  0.00000000000E+00 0. -1.
<scales pt_clust_3="136.33822" pt_clust_4="30.18221" pt_clust_5="31.20819" pt_clust_6="14000.00000"></scales>
<clustering>
<clus scale="   30.182">  2  4  1 -1</clus>
<clus scale="   31.208">  1  5  2 -1</clus>
<clus scale="  136.338">  1  3  2 -1</clus>
<clus scale="   31.208">  1  3  2 -1</clus>
</clustering>
</event>
<event>
 6    0  0.1221518E+003  0.8235390E+02  0.7546771E-02  0.1322501E+00
         21   -1    0    0  505  501  0.00000000000E+00  0.00000000000E+00  0.10763268047E+03  0.10763268047E+03  0.00000000000E+00 0.  1.
         21   -1    0    0  503  502 -0.00000000000E+00 -0.00000000000E+00 -0.58841504932E+03  0.58841504932E+03  0.00000000000E+00 0.  1.
         21    1    1    2  503  501  0.10345338655E+03 -0.16007683781E+02 -0.48823534070E+02  0.11551011474E+03  0.00000000000E+00 0.  1.
         21    1    1    2  504  506 -0.48739269167E+02  0.46890083045E+02 -0.68572811266E+02  0.96314208151E+02  0.00000000000E+00 0.  1.
         21    1    1    2  505  504 -0.18269882012E+02 -0.61423380566E+02  0.41635194480E+02  0.76420610363E+02  0.00000000000E+00 0.  1.
         21    1    1    2  506  502 -0.36444235372E+02  0.30540981301E+02 -0.40502121800E+03  0.40780279653E+03  0.00000000000E+00 0.  1.
<scales pt_clust_3="14000.00000" pt_clust_4="82.35390" pt_clust_5="62.41784" pt_clust_6="47.54928"></scales>
<clustering>
<clus scale="   47.549">  2  6  1 -1</clus>
<clus scale="   62.418">  1  5  2 -1</clus>
<clus scale="   82.354">  1  4  2 -1</clus>
<clus scale="   62.418">  1  3  2 -1</clus>
</clustering>
</event>
<event>
 6    0  0.1221518E+003  0.6481169E+02  0.7546771E-02  0.1378681E+00
         21   -1    0    0  504  501  0.00000000000E+00  0.00000000000E+00  0.11468257361E+02  0.11468257361E+02  0.00000000000E+00 0. -1.
         21   -1    0    0  506  502 -0.00000000000E+00 -0.00000000000E+00 -0.19562263010E+04  0.19562263010E+04  0.00000000000E+00 0. -1.
         21    1    1    2  503  505 -0.66064741425E+02 -0.36937878452E+02 -0.23386047997E+03  0.24580415175E+03  0.00000000000E+00 0. -1.
         21    1    1    2  504  503  0.50953677468E+02 -0.84252270155E+01 -0.28725242314E+03  0.29185821266E+03  0.00000000000E+00 0.  1.
         21    1    1    2  505  502 -0.23212071945E+02 -0.37141728547E+02 -0.50317413894E+03  0.50507674900E+03  0.00000000000E+00 0.  1.
         21    1    1    2  506  501  0.38323135902E+02  0.82504834014E+02 -0.92047100164E+03  0.92495544500E+03  0.00000000000E+00 0. -1.
<scales pt_clust_3="14000.00000" pt_clust_4="48.95558" pt_clust_5="43.79850" pt_clust_6="64.81169"></scales>
<clustering>
<clus scale="   43.798">  2  5  1 -1</clus>
<clus scale="   48.956">  1  4  2 -1</clus>
<clus scale="   64.812">  2  6  1 -1</clus>
<clus scale="   48.956">  1  3  2 -1</clus>
</clustering>
</event>
<event>
 6    0  0.1221518E+003  0.1089942E+03  0.7546771E-02  0.1262444E+00
         21   -1    0    0  504  501  0.00000000000E+00  0.00000000000E+00  0.61557697505E+03  0.61557697505E+03  0.00000000000E+00 0. -1.
         21   -1    0    0  506  502 -0.00000000000E+00 -0.00000000000E+00 -0.98629267759E+03  0.98629267759E+03  0.00000000000E+00 0.  1.
         21    1    1    2  503  505 -0.78490850100E+02  0.35372718573E+00  0.11753626901E+03  0.14133546337E+03  0.00000000000E+00 0. -1.
         21    1    1    2  504  502  0.14743437153E+03  0.63936608099E+02  0.60596715291E+01  0.16081512175E+03  0.00000000000E+00 0. -1.
         21    1    1    2  505  501 -0.89662721055E+01 -0.76502759834E+02  0.39796237809E+03  0.40534814749E+03  0.00000000000E+00 0. -1.
         21    1    1    2  506  503 -0.59977249327E+02  0.12212424550E+02 -0.89227402116E+03  0.89437092003E+03  0.00000000000E+00 0.  1.
<scales pt_clust_3="14000.00000" pt_clust_4="108.99423" pt_clust_5="76.86012" pt_clust_6="61.20795"></scales>
<clustering>
<clus scale="   61.208">  2  6  1 -1</clus>
<clus scale="   76.860">  1  5  2 -1</clus>
<clus scale="  108.994">  2  4  1 -1</clus>
<clus scale="   76.860">  1  3  2 -1</clus>
</clustering>
</event>
<event>
 6    0  0.1221518E+003  0.2091011E+03  0.7546771E-02  0.1142280E+00
         21   -1    0    0  504  501  0.00000000000E+00  0.00000000000E+00  0.41270528442E+03  0.41270528442E+03  0.00000000000E+00 0.  1.
         21   -1    0    0  505  502 -0.00000000000E+00 -0.00000000000E+00 -0.33214167245E+03  0.33214167245E+03  0.00000000000E+00 0.  1.
         21    1    1    2  503  501 -0.94294924091E+02  0.22587632308E+03 -0.15355207847E+03  0.28894616599E+03  0.00000000000E+00 0.  1.
         21    1    1    2  504  502  0.87835702476E+02 -0.18321189384E+03  0.24178736126E+03  0.31582089345E+03  0.00000000000E+00 0.  1.
         21    1    1    2  505  506  0.26503311190E+02  0.43735850394E+02 -0.43221389451E+01  0.51321837446E+02  0.00000000000E+00 0.  1.
         21    1    1    2  506  503 -0.20044089575E+02 -0.86400279639E+02 -0.33495318711E+01  0.88758059985E+02  0.00000000000E+00 0. -1.
<scales pt_clust_3="209.10112" pt_clust_4="14000.00000" pt_clust_5="51.13952" pt_clust_6="81.37668"></scales>
<clustering>
<clus scale="   51.140">  2  5  1 -1</clus>
<clus scale="   81.377">  2  6  1 -1</clus>
<clus scale="  209.101">  2  3  1 -1</clus>
<clus scale="  209.101">  1  3  2 -1</clus>
</clustering>
</event>
<event>
 6    0  0.1221518E+003  0.1130558E+03  0.7546771E-02  0.1255013E+00
         21   -1    0    0  504  501  0.00000000000E+00  0.00000000000E+00  0.44008798974E+03  0.44008798974E+03  0.00000000000E+00 0. -1.
         21   -1    0    0  503  502 -0.00000000000E+00 -0.00000000000E+00 -0.16239746136E+03  0.16239746136E+03  0.00000000000E+00 0. -1.
         21    1    1    2  503  505 -0.10643701191E+03  0.78688717569E+02 -0.37352215560E+02  0.13753523106E+03  0.00000000000E+00 0. -1.
         21    1    1    2  504  506  0.10192754118E+03 -0.55187202874E+02  0.20724680657E+03  0.23745755378E+03  0.00000000000E+00 0. -1.
         21    1    1    2  505  501 -0.27173130776E+02 -0.24348235377E+02  0.16126235396E+03  0.16533832710E+03  0.00000000000E+00 0. -1.
         21    1    1    2  506  502  0.31682601499E+02  0.84672068171E+00 -0.53466416592E+02  0.62154339164E+02  0.00000000000E+00 0.  1.
<scales pt_clust_3="113.05579" pt_clust_4="14000.00000" pt_clust_5="36.01724" pt_clust_6="31.69391"></scales>
<clustering>
<clus scale="   31.694">  2  6  1 -1</clus>
<clus scale="   36.017">  1  5  2 -1</clus>
<clus scale="  113.056">  2  3  1 -1</clus>
<clus scale="   36.017">  1  3  2 -1</clus>
</clustering>
</event>
<event>
 6    0  0.1221518E+003  0.1004839E+03  0.7546771E-02  0.1279282E+00
         21   -1    0    0  503  501  0.00000000000E+00  0.00000000000E+00  0.37741125900E+03  0.37741125900E+03  0.00000000000E+00 0. -1.
         21   -1    0    0  506  502 -0.00000000000E+00 -0.00000000000E+00 -0.25034559786E+03  0.25034559786E+03  0.00000000000E+00 0. -1.
         21    1    1    2  503  504  0.23084162938E+02  0.27926656443E+02  0.20086410892E+03  0.20410577397E+03  0.00000000000E+00 0. -1.
         21    1    1    2  504  502  0.64291185605E+02  0.47703292884E+02  0.47075597350E+02  0.92871268777E+02  0.00000000000E+00 0. -1.
         21    1    1    2  505  501 -0.12389228839E+03 -0.37734038652E+02  0.59761271137E+02  0.14263437988E+03  0.00000000000E+00 0. -1.
         21    1    1    2  506  505  0.36516939849E+02 -0.37895910676E+02 -0.18063531626E+03  0.18814543423E+03  0.00000000000E+00 0. -1.
<scales pt_clust_3="36.23226" pt_clust_4="100.48394" pt_clust_5="14000.00000" pt_clust_6="52.54471"></scales>
<clustering>
<clus scale="   36.232">  1  3  2 -1</clus>
<clus scale="   52.545">  2  6  1 -1</clus>
<clus scale="  100.484">  2  4  1 -1</clus>
<clus scale="   36.232">  1  3  2 -1</clus>
</clustering>
</event>
<event>
 6    0  0.1221518E+003  0.9594815E+02  0.7546771E-02  0.1289055E+00
         21   -1    0    0  503  501  0.00000000000E+00  0.00000000000E+00  0.51092557842E+03  0.51092557842E+03  0.00000000000E+00 0.  1.
         21   -1    0    0  501  502 -0.00000000000E+00 -0.00000000000E+00 -0.55566992649E+03  0.55566992649E+03  0.00000000000E+00 0.  1.
         21    1    1    2  503  505  0.15555933046E+02  0.28334430010E+02  0.30174489374E+03  0.30347126367E+03  0.00000000000E+00 0.  1.
         21    1    1    2  504  506  0.84788831890E+02 -0.46146446280E+02 -0.95061475984E+02  0.13548182437E+03  0.00000000000E+00 0.  1.
         21    1    1    2  505  504 -0.65641899338E+02 -0.77619013919E+02  0.16785590129E+03  0.19623754450E+03  0.00000000000E+00 0.  1.
         21    1    1    2  506  502 -0.34702865597E+02  0.95431030188E+02 -0.41928366712E+03  0.43140487238E+03  0.00000000000E+00 0.  1.
<scales pt_clust_3="32.32378" pt_clust_4="14000.00000" pt_clust_5="74.18163" pt_clust_6="95.94815"></scales>
<clustering>
<clus scale="   32.324">  1  3  2 -1</clus>
<clus scale="   74.182">  1  5  2 -1</clus>
<clus scale="   95.948">  2  6  1 -1</clus>
<clus scale="   32.324">  1  3  2 -1</clus>
</clustering>
</event>
<event>
 6    0  0.1221518E+003  0.8035565E+02  0.7546771E-02  0.1328045E+00
         21   -1    0    0  505  501  0.00000000000E+00  0.00000000000E+00  0.15529911864E+03  0.15529911864E+03  0.00000000000E+00 0. -1.
         21   -1    0    0  504  502 -0.00000000000E+00 -0.00000000000E+00 -0.95782336987E+03  0.95782336987E+03  0.00000000000E+00 0.  1.
         21    1    1    2  503  502 -0.15599867015E+02 -0.98933984358E+02 -0.55213616231E+03  0.56114671062E+03  0.00000000000E+00 0.  1.
         21    1    1    2  504  506  0.32306265931E+02  0.60418939956E+02 -0.37139303935E+03  0.37765981094E+03  0.00000000000E+00 0.  1.
         21    1    1    2  505  503 -0.24905235608E+02  0.77621588677E+02  0.10050024172E+03  0.12940510181E+03  0.00000000000E+00 0. -1.
         21    1    1    2  506  501  0.81988366924E+01 -0.39106544275E+02  0.20504708712E+02  0.44910865140E+02  0.00000000000E+00 0. -1.
<scales pt_clust_3="80.35565" pt_clust_4="14000.00000" pt_clust_5="44.42389" pt_clust_6="39.95676"></scales>
<clustering>
<clus scale="   39.957">  1  6  2 -1</clus>
<clus scale="   44.424">  1  5  2 -1</clus>
<clus scale="   80.356">  1  3  2 -1</clus>
<clus scale="   39.957">  1  3  2 -1</clus>
</clustering>
</event>
<event>
 6    0  0.1221518E+003  0.1000083E+03  0.7546771E-02  0.1280279E+00
         21   -1    0    0  504  501  0.00000000000E+00  0.00000000000E+00  0.18285683062E+04  0.18285683062E+04  0.00000000000E+00 0.  1.
         21   -1    0    0  506  502 -0.00000000000E+00 -0.00000000000E+00 -0.21128358069E+04  0.21128358069E+04  0.00000000000E+00 0. -1.
         21    1    1    2  503  505 -0.97280512644E+02  0.82722547688E+02  0.41754379713E+02  0.13435008843E+03  0.00000000000E+00 0. -1.
         21    1    1    2  504  502  0.11213389533E+03 -0.59753009999E+02  0.16156340971E+04  0.16206227101E+04  0.00000000000E+00 0.  1.
         21    1    1    2  505  501 -0.21122216753E+02  0.27252744526E+02  0.11964238893E+03  0.12451169164E+03  0.00000000000E+00 0.  1.
         21    1    1    2  506  503  0.62688340663E+01 -0.50222282215E+02 -0.20612983664E+04  0.20619196229E+04  0.00000000000E+00 0. -1.
<scales pt_clust_3="100.00827" pt_clust_4="14000.00000" pt_clust_5="34.47985" pt_clust_6="50.60661"></scales>
<clustering>
<clus scale="   34.480">  1  5  2 -1</clus>
<clus scale="   50.607">  2  6  1 -1</clus>
<clus scale="  100.008">  2  3  1 -1</clus>
<clus scale="   34.480">  1  3  2 -1</clus>
</clustering>
</event>
<event>
 6    0  0.1221518E+003  0.1208784E+03  0.7546771E-02  0.1241655E+00
         21   -1    0    0  504  501  0.00000000000E+00  0.00000000000E+00  0.13481192795E+04  0.13481192795E+04  0.00000000000E+00 0. -1.
         21   -1    0    0  505  502 -0.00000000000E+00 -0.00000000000E+00 -0.49681575852E+02  0.49681575852E+02  0.00000000000E+00 0.  1.
         21    1    1    2  503  501  0.21881803119E+01  0.10015778329E+03  0.91696964213E+03  0.92242598309E+03  0.00000000000E+00 0. -1.
         21    1    1    2  504  506  0.37550617951E+02  0.21604310146E+02  0.21444132958E+03  0.21877357920E+03  0.00000000000E+00 0.  1.
         21    1    1    2  505  503 -0.30178494314E+02  0.18590520961E+01 -0.17011042371E+02  0.34692551885E+02  0.00000000000E+00 0.  1.
         21    1    1    2  506  502 -0.95603039489E+01 -0.12362114553E+03  0.18403777426E+03  0.22190874112E+03  0.00000000000E+00 0.  1.
<scales pt_clust_3="14000.00000" pt_clust_4="41.05644" pt_clust_5="30.23570" pt_clust_6="120.87839"></scales>
<clustering>
<clus scale="   30.236">  2  5  1 -1</clus>
<clus scale="   41.056">  1  4  2 -1</clus>
<clus scale="  120.878">  2  6  1 -1</clus>
<clus scale="   41.056">  1  3  2 -1</clus>
</clustering>
</event>
<event>
 6    0  0.1221518E+003  0.1421207E+03  0.7546771E-02  0.1210504E+00
         21   -1    0    0  503  501  0.00000000000E+00  0.00000000000E+00  0.14108727922E+04  0.14108727922E+04  0.00000000000E+00 0. -1.
         21   -1    0    0  504  502 -0.00000000000E+00 -0.00000000000E+00 -0.84278363400E+02  0.84278363400E+02  0.00000000000E+00 0.  1.
         21    1    1    2  503  502  0.29312176033E+01  0.11685030422E+03  0.23071295808E+02  0.11914222729E+03  0.00000000000E+00 0.  1.
         21    1    1    2  504  505  0.90196496406E+01 -0.77561406704E+02  0.92267644535E+02  0.12087367008E+03  0.00000000000E+00 0.  1.
         21    1    1    2  505  506 -0.11018198553E+03  0.70412543361E+02  0.24487419548E+03  0.27759929361E+03  0.00000000000E+00 0.  1.
         21    1    1    2  506  501  0.98231118283E+02 -0.10970144088E+03  0.96638129297E+03  0.97753596462E+03  0.00000000000E+00 0. -1.
<scales pt_clust_3="64.25819" pt_clust_4="78.08409" pt_clust_5="142.12067" pt_clust_6="14000.00000"></scales>
<clustering>
<clus scale="   78.084">  2  4  1 -1</clus>
<clus scale="   64.258">  2  3  1 -1</clus>
<clus scale="  142.121">  2  5  1 -1</clus>
<clus scale="  142.121">  1  3  2 -1</clus>
</clustering>
</event>
<event>
 6    0  0.1221518E+003  0.8070757E+02  0.7546771E-02  0.1327055E+00
         21   -1    0    0  503  501  0.00000000000E+00  0.00000000000E+00  0.30577140632E+03  0.30577140632E+03  0.00000000000E+00 0.  1.
         21   -1    0    0  504  502 -0.00000000000E+00 -0.00000000000E+00 -0.32928496535E+03  0.32928496535E+03  0.00000000000E+00 0. -1.
         21    1    1    2  503  505 -0.28504489257E+02 -0.42433891758E+02 -0.48489648859E+02  0.70458407050E+02  0.00000000000E+00 0.  1.
         21    1    1    2  504  506  0.17005969865E+02  0.13162002942E+03  0.58152110346E+02  0.14489549024E+03  0.00000000000E+00 0.  1.
         21    1    1    2  505  502 -0.30655387117E+02 -0.25836435704E+02 -0.21704164101E+03  0.22071327124E+03  0.00000000000E+00 0. -1.
         21    1    1    2  506  501  0.42153906509E+02 -0.63349701954E+02  0.18386562048E+03  0.19898920314E+03  0.00000000000E+00 0.  1.
<scales pt_clust_3="72.12549" pt_clust_4="80.70757" pt_clust_5="40.09082" pt_clust_6="14000.00000"></scales>
<clustering>
<clus scale="   40.091">  2  5  1 -1</clus>
<clus scale="   72.125">  2  3  1 -1</clus>
<clus scale="   80.708">  2  4  1 -1</clus>
<clus scale="   80.708">  1  3  2 -1</clus>
</clustering>
</event>
<event>
 6    0  0.1221518E+003  0.1327204E+03  0.7546771E-02  0.1223474E+00
         21   -1    0    0  504  501  0.00000000000E+00  0.00000000000E+00  0.24802877452E+04  0.24802877452E+04  0.00000000000E+00 0. -1.
         21   -1    0    0  505  502 -0.00000000000E+00 -0.00000000000E+00 -0.64619719231E+02  0.64619719231E+02  0.00000000000E+00 0.  1.
         21    1    1    2  503  501 -0.16752753626E+02 -0.61328655026E+02  0.21164061986E+04  0.21173608705E+04  0.00000000000E+00 0. -1.
         21    1    1    2  504  506 -0.63831429482E+02  0.14027215103E+03  0.15522268330E+03  0.21873456324E+03  0.00000000000E+00 0.  1.
         21    1    1    2  505  503  0.59132085262E+02 -0.10310894989E+03  0.11389610835E+03  0.16462193825E+03  0.00000000000E+00 0.  1.
         21    1    1    2  506  502  0.21452097846E+02  0.24165453884E+02  0.30143035738E+02  0.44190092407E+02  0.00000000000E+00 0.  1.
<scales pt_clust_3="63.33568" pt_clust_4="132.72041" pt_clust_5="14000.00000" pt_clust_6="32.31349"></scales>
<clustering>
<clus scale="   32.313">  2  6  1 -1</clus>
<clus scale="   63.336">  1  3  2 -1</clus>
<clus scale="  132.720">  1  4  2 -1</clus>
<clus scale="   63.336">  1  3  2 -1</clus>
</clustering>
</event>
<event>
 6    0  0.1221518E+003  0.1745927E+03  0.7546771E-02  0.1173141E+00
         21   -1    0    0  505  501  0.00000000000E+00  0.00000000000E+00  0.16393212400E+04  0.16393212400E+04  0.00000000000E+00 0.  1.
         21   -1    0    0  501  502 -0.00000000000E+00 -0.00000000000E+00 -0.10475305132E+04  0.10475305132E+04  0.00000000000E+00 0.  1.
         21    1    1    2  503  502  0.41415230346E+02  0.34060647410E+02 -0.35759795184E+03  0.36159596813E+03  0.00000000000E+00 0.  1.
         21    1    1    2  504  506 -0.83537774369E+02 -0.26226598706E+02  0.12266112104E+04  0.12297322700E+04  0.00000000000E+00 0.  1.
         21    1    1    2  505  504 -0.78683071642E+02 -0.42214519704E+01  0.39995614274E+03  0.40764416166E+03  0.00000000000E+00 0. -1.
         21    1    1    2  506  503  0.12080561566E+03 -0.36125967339E+01 -0.67717867456E+03  0.68787935346E+03  0.00000000000E+00 0.  1.
<scales pt_clust_3="38.79986" pt_clust_4="164.58896" pt_clust_5="78.79623" pt_clust_6="38.79986"></scales>
<clustering>
<clus scale="   38.800">  3  6 -1 -1</clus>
<clus scale="   78.796">  1  5  2 -1</clus>
<clus scale="  164.589">  1  4  2 -1</clus>
<clus scale="   78.796">  1  3  2 -1</clus>
</clustering>
</event>
<event>
 6    0  0.1221518E+003  0.8437696E+02  0.7546771E-02  0.1317070E+00
         21   -1    0    0  505  501  0.00000000000E+00  0.00000000000E+00  0.53889271970E+03  0.53889271970E+03  0.00000000000E+00 0.  1.
         21   -1    0    0  503  502 -0.00000000000E+00 -0.00000000000E+00 -0.13830494696E+03  0.13830494696E+03  0.00000000000E+00 0. -1.
         21    1    1    2  503  504  0.46804583590E+02 -0.85477440855E+02 -0.88974758011E+02  0.13196048463E+03  0.00000000000E+00 0. -1.
         21    1    1    2  504  501 -0.55867228943E+01 -0.32193978707E+02  0.29807775740E+02  0.44228579361E+02  0.00000000000E+00 0.  1.
         21    1    1    2  505  506 -0.57037630436E+02  0.85213645009E+02  0.45276383998E+03  0.46423027839E+03  0.00000000000E+00 0.  1.
         21    1    1    2  506  502  0.15819769740E+02  0.32457774554E+02  0.69909150361E+01  0.36778324277E+02  0.00000000000E+00 0.  1.
<scales pt_clust_3="84.37696" pt_clust_4="32.67512" pt_clust_5="14000.00000" pt_clust_6="34.74138"></scales>
<clustering>
<clus scale="   32.675">  1  4  2 -1</clus>
<clus scale="   34.741">  2  6  1 -1</clus>
<clus scale="   84.377">  2  3  1 -1</clus>
<clus scale="   32.675">  1  3  2 -1</clus>
</clustering>
</event>
<event>
 6    0  0.1221518E+003  0.1305340E+03  0.7546771E-02  0.1226666E+00
         21   -1    0    0  503  501  0.00000000000E+00  0.00000000000E+00  0.10169951050E+04  0.10169951050E+04  0.00000000000E+00 0.  1.
         21   -1    0    0  505  502 -0.00000000000E+00 -0.00000000000E+00 -0.98002566530E+03  0.98002566530E+03  0.00000000000E+00 0.  1.
         21    1    1    2  503  502 -0.37635180539E+02  0.20399919735E+01  0.36928951963E+02  0.52766617047E+02  0.00000000000E+00 0. -1.
         21    1    1    2  504  506 -0.13006294113E+03 -0.14147426052E+02 -0.24488611440E+02  0.13310225547E+03  0.00000000000E+00 0.  1.
         21    1    1    2  505  504  0.12949831240E+03 -0.18710793066E+02 -0.88785712040E+03  0.89744647357E+03  0.00000000000E+00 0.  1.
         21    1    1    2  506  501  0.38199809273E+02  0.30818227144E+02  0.91238621954E+03  0.91370542417E+03  0.00000000000E+00 0.  1.
<scales pt_clust_3="37.69043" pt_clust_4="14000.00000" pt_clust_5="130.53400" pt_clust_6="32.85826"></scales>
<clustering>
<clus scale="   37.690">  1  3  2 -1</clus>
<clus scale="   32.858">  1  6  2 -1</clus>
<clus scale="  130.534">  2  5  1 -1</clus>
<clus scale="   37.690">  1  3  2 -1</clus>
</clustering>
</event>
<event>
 6    0  0.1221518E+003  0.1110591E+03  0.7546771E-02  0.1258621E+00
         21   -1    0    0  506  501  0.00000000000E+00  0.00000000000E+00  0.63235498044E+03  0.63235498044E+03  0.00000000000E+00 0.  1.
         21   -1    0    0  503  502 -0.00000000000E+00 -0.00000000000E+00 -0.16189808705E+04  0.16189808705E+04  0.00000000000E+00 0. -1.
         21    1    1    2  503  504  0.90771332639E+01 -0.55572566111E+02 -0.36371463220E+03  0.36804760307E+03  0.00000000000E+00 0. -1.
         21    1    1    2  504  505 -0.10325596420E+03  0.10750970053E+03 -0.21097143954E+03  0.25831972080E+03  0.00000000000E+00 0. -1.
         21    1    1    2  505  501  0.24282603002E+02 -0.27405409932E+02  0.60461280031E+03  0.60572051278E+03  0.00000000000E+00 0.  1.
         21    1    1    2  506  502  0.69896227931E+02 -0.24531724483E+02 -0.10165526186E+04  0.10192480142E+04  0.00000000000E+00 0. -1.
<scales pt_clust_3="58.79678" pt_clust_4="14000.00000" pt_clust_5="36.61559" pt_clust_6="111.05915"></scales>
<clustering>
<clus scale="   36.616">  1  5  2 -1</clus>
<clus scale="   58.797">  2  3  1 -1</clus>
<clus scale="  111.059">  2  6  1 -1</clus>
<clus scale="   36.616">  1  3  2 -1</clus>
</clustering>
</event>
<event>
 6    0  0.1221518E+003  0.1052894E+03  0.7546771E-02  0.1269551E+00
         21   -1    0    0  504  501  0.00000000000E+00  0.00000000000E+00  0.34627170395E+03  0.34627170395E+03  0.00000000000E+00 0. -1.
         21   -1    0    0  503  502 -0.00000000000E+00 -0.00000000000E+00 -0.38016323845E+03  0.38016323845E+03  0.00000000000E+00 0. -1.
         21    1    1    2  503  505 -0.54273790502E+02 -0.10094985447E+03  0.81723790444E+02  0.14076681206E+03  0.00000000000E+00 0. -1.
         21    1    1    2  504  506  0.56480747873E+02  0.11104190367E+03 -0.12712759407E+03  0.17799383255E+03  0.00000000000E+00 0. -1.
         21    1    1    2  505  501  0.57076986563E+02 -0.16931318295E+01  0.20099888043E+03  0.20895262388E+03  0.00000000000E+00 0. -1.
         21    1    1    2  506  502 -0.59283943934E+02 -0.83989173745E+01 -0.18948661130E+03  0.19872167392E+03  0.00000000000E+00 0. -1.
<scales pt_clust_3="105.28937" pt_clust_4="14000.00000" pt_clust_5="57.10209" pt_clust_6="58.03774"></scales>
<clustering>
<clus scale="   57.102">  1  5  2 -1</clus>
<clus scale="   58.038">  2  6  1 -1</clus>
<clus scale="  105.289">  1  3  2 -1</clus>
<clus scale="   57.102">  1  3  2 -1</clus>
</clustering>
</event>
<event>
 6    0  0.1221518E+003  0.2418649E+03  0.7546771E-02  0.1118557E+00
         21   -1    0    0  503  501  0.00000000000E+00  0.00000000000E+00  0.54016881486E+03  0.54016881486E+03  0.00000000000E+00 0. -1.
         21   -1    0    0  505  502 -0.00000000000E+00 -0.00000000000E+00 -0.41427856905E+03  0.41427856905E+03  0.00000000000E+00 0. -1.
         21    1    1    2  503  504 -0.86202646554E+01  0.39541945460E+02  0.35857701530E+03  0.36085364113E+03  0.00000000000E+00 0. -1.
         21    1    1    2  504  506  0.34289682384E+02 -0.35498647324E+02  0.10915198823E+02  0.50547777847E+02  0.00000000000E+00 0. -1.
         21    1    1    2  505  501 -0.21613041005E+03 -0.13439410184E+03 -0.12432717010E+03  0.28325143245E+03  0.00000000000E+00 0. -1.
         21    1    1    2  506  502  0.19046099232E+03  0.13035080371E+03 -0.11927479822E+03  0.25979453249E+03  0.00000000000E+00 0. -1.
<scales pt_clust_3="40.47066" pt_clust_4="43.64243" pt_clust_5="241.86486" pt_clust_6="14000.00000"></scales>
<clustering>
<clus scale="   40.471">  1  3  2 -1</clus>
<clus scale="   43.642">  1  4  2 -1</clus>
<clus scale="  241.865">  1  5  2 -1</clus>
<clus scale="   40.471">  1  3  2 -1</clus>
</clustering>
</event>
<event>
 6    0  0.1221518E+003  0.8572230E+02  0.7546771E-02  0.1313554E+00
         21   -1    0    0  503  501  0.00000000000E+00  0.00000000000E+00  0.27774275451E+02  0.27774275451E+02  0.00000000000E+00 0.  1.
         21   -1    0    0  506  502 -0.00000000000E+00 -0.00000000000E+00 -0.16675393975E+04  0.16675393975E+04  0.00000000000E+00 0.  1.
         21    1    1    2  503  504 -0.39630273060E+02  0.83788495620E+02 -0.10794608365E+03  0.14227939948E+03  0.00000000000E+00 0.  1.
         21    1    1    2  504  505 -0.32803347165E+01 -0.88130428924E+02 -0.73538654483E+03  0.74065586031E+03  0.00000000000E+00 0.  1.
         21    1    1    2  505  502  0.68995084961E+02  0.26556403135E+02 -0.75501683075E+03  0.75862769459E+03  0.00000000000E+00 0.  1.
         21    1    1    2  506  501 -0.26084477184E+02 -0.22214469830E+02 -0.41415662855E+02  0.53750718596E+02  0.00000000000E+00 0.  1.
<scales pt_clust_3="85.72230" pt_clust_4="14000.00000" pt_clust_5="71.23490" pt_clust_6="34.26197"></scales>
<clustering>
<clus scale="   34.262">  1  6  2 -1</clus>
<clus scale="   71.235">  2  5  1 -1</clus>
<clus scale="   85.722">  1  3  2 -1</clus>
<clus scale="   34.262">  1  3  2 -1</clus>
</clustering>
</event>
<event>
 6    0  0.1221518E+003  0.8816407E+02  0.7546771E-02  0.1307360E+00
         21   -1    0    0  504  501  0.00000000000E+00  0.00000000000E+00  0.19476217424E+03  0.19476217424E+03  0.00000000000E+00 0.  1.
         21   -1    0    0  506  502 -0.00000000000E+00 -0.00000000000E+00 -0.38337768570E+03  0.38337768570E+03  0.00000000000E+00 0.  1.
         21    1    1    2  503  505 -0.62868814921E+02  0.42350797888E+02 -0.94775289872E+02  0.12136075783E+03  0.00000000000E+00 0.  1.
         21    1    1    2  504  503 -0.51998643429E+02 -0.14951581384E+02 -0.46717604656E+02  0.71483867335E+02  0.00000000000E+00 0.  1.
         21    1    1    2  505  502  0.79177264025E+02 -0.59285435695E+02 -0.20106873153E+03  0.22408131743E+03  0.00000000000E+00 0.  1.
         21    1    1    2  506  501  0.35690194325E+02  0.31886219191E+02  0.15394611459E+03  0.16121391734E+03  0.00000000000E+00 0.  1.
<scales pt_clust_3="14000.00000" pt_clust_4="40.34566" pt_clust_5="88.16407" pt_clust_6="47.85939"></scales>
<clustering>
<clus scale="   47.859">  1  6  2 -1</clus>
<clus scale="   40.346">  1  4  2 -1</clus>
<clus scale="   88.164">  2  5  1 -1</clus>
<clus scale="   47.859">  1  3  2 -1</clus>
</clustering>
</event>
<event>
 6    0  0.1221518E+003  0.9878979E+02  0.7546771E-02  0.1282862E+00
         21   -1    0    0  506  501  0.00000000000E+00  0.00000000000E+00  0.49121808724E+03  0.49121808724E+03  0.00000000000E+00 0. -1.
         21   -1    0    0  503  502 -0.00000000000E+00 -0.00000000000E+00 -0.13144623990E+03  0.13144623990E+03  0.00000000000E+00 0.  1.
         21    1    1    2  503  505 -0.25632849320E+02  0.79077924915E+02 -0.16077435091E+01  0.83144127948E+02  0.00000000000E+00 0.  1.
         21    1    1    2  504  501  0.44212586314E+02  0.20158530241E+01  0.20973448151E+03  0.21435337456E+03  0.00000000000E+00 0. -1.
         21    1    1    2  505  504 -0.79177028416E+02 -0.10315476757E+03  0.20412264439E+03  0.24202471331E+03  0.00000000000E+00 0. -1.
         21    1    1    2  506  502  0.60597291422E+02  0.22060989636E+02 -0.52477535038E+02  0.83142111321E+02  0.00000000000E+00 0.  1.
<scales pt_clust_3="14000.00000" pt_clust_4="44.25852" pt_clust_5="98.78979" pt_clust_6="66.81162"></scales>
<clustering>
<clus scale="   44.259">  1  4  2 -1</clus>
<clus scale="   66.812">  2  6  1 -1</clus>
<clus scale="   98.790">  1  5  2 -1</clus>
<clus scale="   44.259">  1  3  2 -1</clus>
</clustering>
</event>
<event>
 6    0  0.1221518E+003  0.1032972E+03  0.7546771E-02  0.1273511E+00
         21   -1    0    0  503  501  0.00000000000E+00  0.00000000000E+00  0.17785535954E+03  0.17785535954E+03  0.00000000000E+00 0.  1.
         21   -1    0    0  504  502 -0.00000000000E+00 -0.00000000000E+00 -0.45388561244E+03  0.45388561244E+03  0.00000000000E+00 0.  1.
         21    1    1    2  503  505 -0.12921129200E+03  0.47782092159E+02 -0.40972813584E+02  0.14372702517E+03  0.00000000000E+00 0.  1.
         21    1    1    2  504  506  0.43698797909E+02 -0.58524582748E+02 -0.54828321530E+02  0.91328290066E+02  0.00000000000E+00 0.  1.
         21    1    1    2  505  502 -0.59639920803E+01  0.37828713226E+02 -0.26579090099E+03  0.26853562854E+03  0.00000000000E+00 0.  1.
         21    1    1    2  506  501  0.91476486175E+02 -0.27086222637E+02  0.85561783216E+02  0.12815002820E+03  0.00000000000E+00 0.  1.
<scales pt_clust_3="103.29715" pt_clust_4="60.18654" pt_clust_5="38.29596" pt_clust_6="14000.00000"></scales>
<clustering>
<clus scale="   38.296">  2  5  1 -1</clus>
<clus scale="   60.187">  2  4  1 -1</clus>
<clus scale="  103.297">  2  3  1 -1</clus>
<clus scale="  103.297">  1  3  2 -1</clus>
</clustering>
</event>
<event>
 6    0  0.1221518E+003  0.7178149E+02  0.7546771E-02  0.1354138E+00
         21   -1    0    0  504  501  0.00000000000E+00  0.00000000000E+00  0.12404072716E+04  0.12404072716E+04  0.00000000000E+00 0. -1.
         21   -1    0    0  505  502 -0.00000000000E+00 -0.00000000000E+00 -0.45499089817E+02  0.45499089817E+02  0.00000000000E+00 0. -1.
         21    1    1    2  503  506 -0.71990740067E+01 -0.41377277262E+02  0.31491186278E+02  0.52493814430E+02  0.00000000000E+00 0. -1.
         21    1    1    2  504  503  0.58495839303E+02  0.11599794174E+03  0.42963130164E+03  0.44884333687E+03  0.00000000000E+00 0. -1.
         21    1    1    2  505  501 -0.21211346723E+02 -0.48414427892E+02  0.74196121511E+03  0.74384159792E+03  0.00000000000E+00 0. -1.
         21    1    1    2  506  502 -0.30085418573E+02 -0.26206236583E+02 -0.81755212620E+01  0.40727612187E+02  0.00000000000E+00 0. -1.
<scales pt_clust_3="71.78149" pt_clust_4="14000.00000" pt_clust_5="54.47401" pt_clust_6="39.89861"></scales>
<clustering>
<clus scale="   39.899">  2  6  1 -1</clus>
<clus scale="   54.474">  1  5  2 -1</clus>
<clus scale="   71.781">  2  3  1 -1</clus>
<clus scale="   54.474">  1  3  2 -1</clus>
</clustering>
</event>
<event>
 6    0  0.1221518E+003  0.7018044E+02  0.7546771E-02  0.1359481E+00
         21   -1    0    0  504  501  0.00000000000E+00  0.00000000000E+00  0.29239119058E+02  0.29239119058E+02  0.00000000000E+00 0.  1.
         21   -1    0    0  503  502 -0.00000000000E+00 -0.00000000000E+00 -0.16572112759E+04  0.16572112759E+04  0.00000000000E+00 0. -1.
         21    1    1    2  503  501 -0.14800336072E+02 -0.56814480043E+02 -0.28020505331E+03  0.28628972561E+03  0.00000000000E+00 0. -1.
         21    1    1    2  504  505 -0.44292543664E+02 -0.53186246605E+02 -0.31199008261E+02  0.75920908639E+02  0.00000000000E+00 0.  1.
         21    1    1    2  505  506  0.58742586486E+02  0.68291655518E+02 -0.11006326178E+04  0.11043127279E+04  0.00000000000E+00 0. -1.
         21    1    1    2  506  502  0.35029324973E+00  0.41709071131E+02 -0.21593547745E+03  0.21992703276E+03  0.00000000000E+00 0. -1.
<scales pt_clust_3="50.78955" pt_clust_4="14000.00000" pt_clust_5="70.18044" pt_clust_6="41.71054"></scales>
<clustering>
<clus scale="   41.711">  2  6  1 -1</clus>
<clus scale="   50.790">  2  3  1 -1</clus>
<clus scale="   70.180">  2  5  1 -1</clus>
<clus scale="   70.180">  1  3  2 -1</clus>
</clustering>
</event>
<event>
 6    0  0.1221518E+003  0.1394662E+03  0.7546771E-02  0.1214049E+00
         21   -1    0    0  504  501  0.00000000000E+00  0.00000000000E+00  0.13745375113E+04  0.13745375113E+04  0.00000000000E+00 0.  1.
         21   -1    0    0  505  502 -0.00000000000E+00 -0.00000000000E+00 -0.11395665922E+03  0.11395665922E+03  0.00000000000E+00 0.  1.
         21    1    1    2  503  506  0.22674513143E+02 -0.20940490290E+03  0.16373916318E+03  0.26678654476E+03  0.00000000000E+00 0.  1.
         21    1    1    2  504  502 -0.17051406335E+01  0.93835683503E+02  0.38426053189E+03  0.39555555789E+03  0.00000000000E+00 0.  1.
         21    1    1    2  505  503  0.12518420784E+02  0.11881072184E+03  0.68980285048E+01  0.11966737767E+03  0.00000000000E+00 0.  1.
         21    1    1    2  506  501 -0.33487793293E+02 -0.32415024427E+01  0.70568312855E+03  0.70648469025E+03  0.00000000000E+00 0.  1.
<scales pt_clust_3="139.46615" pt_clust_4="94.36601" pt_clust_5="14000.00000" pt_clust_6="33.64431"></scales>
<clustering>
<clus scale="   33.644">  1  6  2 -1</clus>
<clus scale="   94.366">  1  4  2 -1</clus>
<clus scale="  139.466">  1  3  2 -1</clus>
<clus scale="   33.644">  1  3  2 -1</clus>
</clustering>
</event>
<event>
 6    0  0.1221518E+003  0.7159236E+02  0.7546771E-02  0.1354760E+00
         21   -1    0    0  504  501  0.00000000000E+00  0.00000000000E+00  0.40272916130E+03  0.40272916130E+03  0.00000000000E+00 0. -1.
         21   -1    0    0  506  502 -0.00000000000E+00 -0.00000000000E+00 -0.32660652609E+03  0.32660652609E+03  0.00000000000E+00 0.  1.
         21    1    1    2  503  502  0.67038578109E+02  0.40830993149E+02 -0.25454431169E+03  0.26637219745E+03  0.00000000000E+00 0.  1.
         21    1    1    2  504  503  0.87329597027E+01  0.56810328312E+02 -0.10065681421E+02  0.58352342974E+02  0.00000000000E+00 0.  1.
         21    1    1    2  505  501 -0.51665253901E+02 -0.53462653460E+02  0.34610250294E+03  0.35399787615E+03  0.00000000000E+00 0. -1.
         21    1    1    2  506  505 -0.24106283911E+02 -0.44178668002E+02 -0.53698746144E+01  0.50613270827E+02  0.00000000000E+00 0. -1.
<scales pt_clust_3="46.06989" pt_clust_4="14000.00000" pt_clust_5="71.59236" pt_clust_6="50.32760"></scales>
<clustering>
<clus scale="   50.328">  2  6  1 -1</clus>
<clus scale="   46.070">  2  3  1 -1</clus>
<clus scale="   71.592">  1  5  2 -1</clus>
<clus scale="   71.592">  1  3  2 -1</clus>
</clustering>
</event>
<event>
 6    0  0.1221518E+003  0.9555377E+02  0.7546771E-02  0.1289934E+00
         21   -1    0    0  504  501  0.00000000000E+00  0.00000000000E+00  0.25198730482E+03  0.25198730482E+03  0.00000000000E+00 0. -1.
         21   -1    0    0  505  502 -0.00000000000E+00 -0.00000000000E+00 -0.22481288543E+03  0.22481288543E+03  0.00000000000E+00 0.  1.
         21    1    1    2  503  501  0.90564658524E+02  0.26520235024E+02  0.18566549077E+03  0.20827134873E+03  0.00000000000E+00 0. -1.
         21    1    1    2  504  506 -0.10960588280E+03  0.86631395867E+01 -0.39640810382E+02  0.11687554654E+03  0.00000000000E+00 0.  1.
         21    1    1    2  505  503  0.36898092467E+02 -0.91230244927E+01 -0.11439825171E+02  0.39693430232E+02  0.00000000000E+00 0. -1.
         21    1    1    2  506  502 -0.17856868193E+02 -0.26060350118E+02 -0.10741043583E+03  0.11195986475E+03  0.00000000000E+00 0.  1.
<scales pt_clust_3="14000.00000" pt_clust_4="95.55377" pt_clust_5="36.15069" pt_clust_6="31.59129"></scales>
<clustering>
<clus scale="   31.591">  2  6  1 -1</clus>
<clus scale="   36.151">  2  5  1 -1</clus>
<clus scale="   95.554">  2  4  1 -1</clus>
<clus scale="   95.554">  1  3  2 -1</clus>
</clustering>
</event>
<event>
 6    0  0.1221518E+003  0.1000517E+03  0.7546771E-02  0.1280187E+00
         21   -1    0    0  505  501  0.00000000000E+00  0.00000000000E+00  0.27436139443E+03  0.27436139443E+03  0.00000000000E+00 0.  1.
         21   -1    0    0  506  502 -0.00000000000E+00 -0.00000000000E+00 -0.16191121180E+04  0.16191121180E+04  0.00000000000E+00 0.  1.
         21    1    1    2  503  504  0.11815105747E+03 -0.13207933928E+02  0.55032696772E+02  0.13100656325E+03  0.00000000000E+00 0.  1.
         21    1    1    2  504  501 -0.35316432358E+01  0.61286509001E+02  0.10747604346E+03  0.12377240649E+03  0.00000000000E+00 0.  1.
         21    1    1    2  505  502 -0.34297939254E+02 -0.77097034009E+02 -0.15435833898E+04  0.15458880887E+04  0.00000000000E+00 0.  1.
         21    1    1    2  506  503 -0.80321474981E+02  0.29018458936E+02  0.36323926055E+02  0.92806454011E+02  0.00000000000E+00 0.  1.
<scales pt_clust_3="14000.00000" pt_clust_4="61.38818" pt_clust_5="83.98605" pt_clust_6="100.05173"></scales>
<clustering>
<clus scale="   61.388">  1  4  2 -1</clus>
<clus scale="   83.986">  2  5  1 -1</clus>
<clus scale="  100.052">  2  6  1 -1</clus>
<clus scale="   61.388">  1  3  2 -1</clus>
</clustering>
</event>
<event>
 6    0  0.1221518E+003  0.8202180E+02  0.7546771E-02  0.1323410E+00
         21   -1    0    0  504  501  0.00000000000E+00  0.00000000000E+00  0.76306978625E+02  0.76306978625E+02  0.00000000000E+00 0.  1.
         21   -1    0    0  503  502 -0.00000000000E+00 -0.00000000000E+00 -0.13114540880E+04  0.13114540880E+04  0.00000000000E+00 0. -1.
         21    1    1    2  503  505 -0.52813717598E+02 -0.10011482481E+03 -0.16152521717E+03  0.19723757932E+03  0.00000000000E+00 0. -1.
         21    1    1    2  504  506  0.49987985191E+00  0.72476670371E+02 -0.24744085984E+03  0.25783734553E+03  0.00000000000E+00 0. -1.
         21    1    1    2  505  501  0.12953806080E+02  0.34853164022E+02  0.46247053614E+02  0.59340829976E+02  0.00000000000E+00 0.  1.
         21    1    1    2  506  502  0.39360031666E+02 -0.72150095857E+01 -0.87242808602E+03  0.87334531185E+03  0.00000000000E+00 0. -1.
<scales pt_clust_3="82.02180" pt_clust_4="14000.00000" pt_clust_5="37.18258" pt_clust_6="40.14815"></scales>
<clustering>
<clus scale="   37.183">  1  5  2 -1</clus>
<clus scale="   40.148">  2  6  1 -1</clus>
<clus scale="   82.022">  1  3  2 -1</clus>
<clus scale="   37.183">  1  3  2 -1</clus>
</clustering>
</event>
<event>
 6    0  0.1221518E+003  0.1074582E+03  0.7546771E-02  0.1265351E+00
         21   -1    0    0  503  501  0.00000000000E+00  0.00000000000E+00  0.22558610969E+03  0.22558610969E+03  0.00000000000E+00 0. -1.
         21   -1    0    0  506  502 -0.00000000000E+00 -0.00000000000E+00 -0.23030682555E+03  0.23030682555E+03  0.00000000000E+00 0.  1.
         21    1    1    2  503  504  0.20007337447E+02 -0.77524851085E+02  0.48308376383E+02  0.93509867481E+02  0.00000000000E+00 0.  1.
         21    1    1    2  504  502 -0.52289089093E+02  0.46203145175E+02 -0.14540468783E+03  0.16128050938E+03  0.00000000000E+00 0.  1.
         21    1    1    2  505  501  0.83051193969E+02 -0.16104345975E+02  0.10025875013E+03  0.13118181184E+03  0.00000000000E+00 0. -1.
         21    1    1    2  506  505 -0.50769442324E+02  0.47426051884E+02 -0.78831545461E+01  0.69920746541E+02  0.00000000000E+00 0.  1.
<scales pt_clust_3="73.27714" pt_clust_4="14000.00000" pt_clust_5="107.45821" pt_clust_6="69.47494"></scales>
<clustering>
<clus scale="   69.475">  2  6  1 -1</clus>
<clus scale="   73.277">  1  3  2 -1</clus>
<clus scale="  107.458">  1  5  2 -1</clus>
<clus scale="   73.277">  1  3  2 -1</clus>
</clustering>
</event>
<event>
 6    0  0.1221518E+003  0.1046600E+03  0.7546771E-02  0.1270791E+00
         21   -1    0    0  504  501  0.00000000000E+00  0.00000000000E+00  0.19117667505E+03  0.19117667505E+03  0.00000000000E+00 0.  1.
         21   -1    0    0  503  502 -0.00000000000E+00 -0.00000000000E+00 -0.60815641672E+03  0.60815641672E+03  0.00000000000E+00 0.  1.
         21    1    1    2  503  506 -0.24314208883E+02  0.67425895993E+02 -0.76294951161E+02  0.10468214641E+03  0.00000000000E+00 0.  1.
         21    1    1    2  504  505 -0.70186822833E+02 -0.83108674500E+02  0.14878402175E+03  0.18430932425E+03  0.00000000000E+00 0.  1.
         21    1    1    2  505  502  0.47516354549E+02 -0.35401614786E+02 -0.34516646197E+03  0.35021559753E+03  0.00000000000E+00 0.  1.
         21    1    1    2  506  501  0.46984677168E+02  0.51084393293E+02 -0.14430235029E+03  0.16012602357E+03  0.00000000000E+00 0.  1.
<scales pt_clust_3="55.67698" pt_clust_4="104.65998" pt_clust_5="59.25435" pt_clust_6="14000.00000"></scales>
<clustering>
<clus scale="   59.254">  2  5  1 -1</clus>
<clus scale="   55.677">  2  3  1 -1</clus>
<clus scale="  104.660">  1  4  2 -1</clus>
<clus scale="  104.660">  1  3  2 -1</clus>
</clustering>
</event>
<event>
 6    0  0.1221518E+003  0.1304772E+03  0.7546771E-02  0.1226749E+00
         21   -1    0    0  503  501  0.00000000000E+00  0.00000000000E+00  0.17953725713E+03  0.17953725713E+03  0.00000000000E+00 0. -1.
         21   -1    0    0  505  502 -0.00000000000E+00 -0.00000000000E+00 -0.25544210484E+03  0.25544210484E+03  0.00000000000E+00 0. -1.
         21    1    1    2  503  506  0.40466786795E+02  0.35420721192E+02 -0.22822506940E+02  0.58421358648E+02  0.00000000000E+00 0.  1.
         21    1    1    2  504  502  0.15627168454E+02  0.33724602423E+02 -0.11461060843E+03  0.12048713113E+03  0.00000000000E+00 0. -1.
         21    1    1    2  505  501 -0.94425434565E+02 -0.93652044708E+02  0.12194699243E+03  0.18043818092E+03  0.00000000000E+00 0. -1.
         21    1    1    2  506  504  0.38331479315E+02  0.24506721092E+02 -0.60418724774E+02  0.75632691269E+02  0.00000000000E+00 0. -1.
<scales pt_clust_3="32.40050" pt_clust_4="37.16930" pt_clust_5="125.63194" pt_clust_6="32.40050"></scales>
<clustering>
<clus scale="   32.401">  3  6 -1 -1</clus>
<clus scale="   37.169">  2  4  1 -1</clus>
<clus scale="  125.632">  1  5  2 -1</clus>
<clus scale="  125.632">  1  3  2 -1</clus>
</clustering>
</event>
<event>
 6    0  0.1221518E+003  0.8532376E+02  0.7546771E-02  0.1314588E+00
         21   -1    0    0  503  501  0.00000000000E+00  0.00000000000E+00  0.31929648034E+03  0.31929648034E+03  0.00000000000E+00 0. -1.
         21   -1    0    0  506  502 -0.00000000000E+00 -0.00000000000E+00 -0.28558660372E+03  0.28558660372E+03  0.00000000000E+00 0.  1.
         21    1    1    2  503  504 -0.32372791089E+02 -0.19694469525E+02  0.53131476094E+02  0.65259662002E+02  0.00000000000E+00 0. -1.
         21    1    1    2  504  505 -0.47980156810E+02 -0.18035328760E+02  0.21662973533E+03  0.22261134463E+03  0.00000000000E+00 0. -1.
         21    1    1    2  505  502 -0.53419868292E+01 -0.67817360457E+02 -0.41575831384E+02  0.79726287747E+02  0.00000000000E+00 0. -1.
         21    1    1    2  506  501  0.85694934728E+02  0.10554715874E+03 -0.19447550342E+03  0.23728578969E+03  0.00000000000E+00 0.  1.
<scales pt_clust_3="37.89287" pt_clust_4="14000.00000" pt_clust_5="69.69019" pt_clust_6="85.32376"></scales>
<clustering>
<clus scale="   37.893">  1  3  2 -1</clus>
<clus scale="   69.690">  2  5  1 -1</clus>
<clus scale="   85.324">  2  6  1 -1</clus>
<clus scale="   37.893">  1  3  2 -1</clus>
</clustering>
</event>
<event>
 6    0  0.1221518E+003  0.9261589E+02  0.7546771E-02  0.1296638E+00
         21   -1    0    0  502  501  0.00000000000E+00  0.00000000000E+00  0.10259339339E+04  0.10259339339E+04  0.00000000000E+00 0. -1.
         21   -1    0    0  504  502 -0.00000000000E+00 -0.00000000000E+00 -0.59109420458E+03  0.59109420458E+03  0.00000000000E+00 0.  1.
         21    1    1    2  503  505  0.71960797455E+02 -0.49089568778E+02  0.13023275969E+03  0.15668029177E+03  0.00000000000E+00 0.  1.
         21    1    1    2  504  506 -0.47976272029E+02 -0.67223687330E+02 -0.54272703018E+03  0.54897484105E+03  0.00000000000E+00 0.  1.
         21    1    1    2  505  501 -0.82014928894E+02  0.45546274175E+02  0.80515714638E+03  0.81060405996E+03  0.00000000000E+00 0. -1.
         21    1    1    2  506  503  0.58030403467E+02  0.70766981933E+02  0.42176853469E+02  0.10076894575E+03  0.00000000000E+00 0.  1.
<scales pt_clust_3="14000.00000" pt_clust_4="82.58781" pt_clust_5="92.61589" pt_clust_6="38.32765"></scales>
<clustering>
<clus scale="   82.588">  2  4  1 -1</clus>
<clus scale="   38.328">  2  6  1 -1</clus>
<clus scale="   92.616">  1  5  2 -1</clus>
<clus scale="   92.616">  1  3  2 -1</clus>
</clustering>
</event>
<event>
 6    0  0.1221518E+003  0.7864810E+02  0.7546771E-02  0.1332932E+00
         21   -1    0    0  504  501  0.00000000000E+00  0.00000000000E+00  0.15254688608E+04  0.15254688608E+04  0.00000000000E+00 0.  1.
         21   -1    0    0  503  502 -0.00000000000E+00 -0.00000000000E+00 -0.38480571168E+02  0.38480571168E+02  0.00000000000E+00 0.  1.
         21    1    1    2  503  501 -0.10564892299E+03 -0.24134769965E+00  0.21049252568E+03  0.23551827221E+03  0.00000000000E+00 0.  1.
         21    1    1    2  504  506  0.51131425407E+02 -0.28067061801E+02  0.11090094151E+04  0.11105422393E+04  0.00000000000E+00 0.  1.
         21    1    1    2  505  502  0.90166249226E+01 -0.46977292265E+02  0.83700246584E+02  0.96404858756E+02  0.00000000000E+00 0.  1.
         21    1    1    2  506  505  0.45500872656E+02  0.75285701766E+02  0.83786102307E+02  0.12148406168E+03  0.00000000000E+00 0.  1.
<scales pt_clust_3="14000.00000" pt_clust_4="59.06256" pt_clust_5="47.83477" pt_clust_6="78.64810"></scales>
<clustering>
<clus scale="   47.835">  2  5  1 -1</clus>
<clus scale="   59.063">  1  4  2 -1</clus>
<clus scale="   78.648">  2  6  1 -1</clus>
<clus scale="   59.063">  1  3  2 -1</clus>
</clustering>
</event>
<event>
 6    0  0.1221518E+003  0.6710566E+02  0.7546771E-02  0.1370221E+00
         21   -1    0    0  505  501  0.00000000000E+00  0.00000000000E+00  0.16543203651E+03  0.16543203651E+03  0.00000000000E+00 0. -1.
         21   -1    0    0  504  502 -0.00000000000E+00 -0.00000000000E+00 -0.10668288474E+04  0.10668288474E+04  0.00000000000E+00 0. -1.
         21    1    1    2  503  502 -0.82099612071E+02  0.20910478412E+01 -0.76300258072E+03  0.76740970607E+03  0.00000000000E+00 0. -1.
         21    1    1    2  504  506  0.38020648782E+02 -0.52557022864E+02 -0.27060973422E+03  0.27827583193E+03  0.00000000000E+00 0. -1.
         21    1    1    2  505  503  0.19868285789E+02 -0.25949119827E+02  0.90481723814E+02  0.96203159742E+02  0.00000000000E+00 0. -1.
         21    1    1    2  506  501  0.24210677500E+02  0.76415094849E+02  0.41733780213E+02  0.90372186190E+02  0.00000000000E+00 0. -1.
<scales pt_clust_3="14000.00000" pt_clust_4="66.60473" pt_clust_5="32.68188" pt_clust_6="67.10566"></scales>
<clustering>
<clus scale="   32.682">  1  5  2 -1</clus>
<clus scale="   66.605">  2  4  1 -1</clus>
<clus scale="   67.106">  1  6  2 -1</clus>
<clus scale="   32.682">  1  3  2 -1</clus>
</clustering>
</event>
<event>
 6    0  0.1221518E+003  0.1115461E+03  0.7546771E-02  0.1257733E+00
         21   -1    0    0  504  501  0.00000000000E+00  0.00000000000E+00  0.20960962135E+03  0.20960962135E+03  0.00000000000E+00 0.  1.
         21   -1    0    0  505  502 -0.00000000000E+00 -0.00000000000E+00 -0.16977378089E+03  0.16977378089E+03  0.00000000000E+00 0.  1.
         21    1    1    2  503  506 -0.64325645868E+02 -0.12071735441E+02 -0.27562633535E+02  0.71015591811E+02  0.00000000000E+00 0.  1.
         21    1    1    2  504  503 -0.76704157992E+02 -0.32694563795E+02  0.41927751009E+02  0.93329516551E+02  0.00000000000E+00 0.  1.
         21    1    1    2  505  501  0.16367011109E+03  0.23847198263E+02  0.53028037736E+02  0.17369100988E+03  0.00000000000E+00 0.  1.
         21    1    1    2  506  502 -0.22640307227E+02  0.20919100974E+02 -0.27557314750E+02  0.41347283987E+02  0.00000000000E+00 0. -1.
<scales pt_clust_3="30.27317" pt_clust_4="83.38143" pt_clust_5="102.45334" pt_clust_6="30.27317"></scales>
<clustering>
<clus scale="   30.273">  3  6 -1 -1</clus>
<clus scale="   83.381">  1  4  2 -1</clus>
<clus scale="  102.453">  1  5  2 -1</clus>
<clus scale="   83.381">  1  3  2 -1</clus>
</clustering>
</event>
<event>
 6    0  0.1221518E+003  0.8871528E+02  0.7546771E-02  0.1305993E+00
         21   -1    0    0  506  501  0.00000000000E+00  0.00000000000E+00  0.34733056693E+04  0.34733056693E+04  0.00000000000E+00 0.  1.
         21   -1    0    0  503  502 -0.00000000000E+00 -0.00000000000E+00 -0.28333606138E+02  0.28333606138E+02  0.00000000000E+00 0.  1.
         21    1    1    2  503  505  0.20738912815E+02  0.79169259870E+02  0.43833833721E+03  0.44591296470E+03  0.00000000000E+00 0.  1.
         21    1    1    2  504  502  0.73485764940E+02  0.25297511682E+02  0.53424803638E+02  0.94309762962E+02  0.00000000000E+00 0.  1.
         21    1    1    2  505  501  0.23619252262E+02 -0.85515359606E+02  0.17648726132E+04  0.17671010403E+04  0.00000000000E+00 0.  1.
         21    1    1    2  506  504 -0.11784393002E+03 -0.18951411946E+02  0.11883363091E+04  0.11943155075E+04  0.00000000000E+00 0.  1.
<scales pt_clust_3="88.31396" pt_clust_4="77.71822" pt_clust_5="88.71528" pt_clust_6="14000.00000"></scales>
<clustering>
<clus scale="   77.718">  2  4  1 -1</clus>
<clus scale="   88.715">  1  5  2 -1</clus>
<clus scale="   88.314">  1  3  2 -1</clus>
<clus scale="   88.715">  1  3  2 -1</clus>
</clustering>
</event>
<event>
 6    0  0.1221518E+003  0.9516396E+02  0.7546771E-02  0.1290807E+00
         21   -1    0    0  506  501  0.00000000000E+00  0.00000000000E+00  0.10211514882E+04  0.10211514882E+04  0.00000000000E+00 0. -1.
         21   -1    0    0  505  502 -0.00000000000E+00 -0.00000000000E+00 -0.14861873392E+03  0.14861873392E+03  0.00000000000E+00 0. -1.
         21    1    1    2  503  502  0.27945913739E+02  0.16151996334E+02  0.10060559969E+02  0.33809406193E+02  0.00000000000E+00 0.  1.
         21    1    1    2  504  501 -0.56802554290E+02  0.51364971957E+02  0.92052632378E+03  0.92370644866E+03  0.00000000000E+00 0. -1.
         21    1    1    2  505  504 -0.76256152749E+02 -0.40882073803E+02  0.52689582871E+01  0.86683947257E+02  0.00000000000E+00 0. -1.
         21    1    1    2  506  503  0.10511279330E+03 -0.26634894487E+02 -0.63323087812E+02  0.12557041996E+03  0.00000000000E+00 0. -1.
<scales pt_clust_3="32.27787" pt_clust_4="76.46835" pt_clust_5="14000.00000" pt_clust_6="95.16396"></scales>
<clustering>
<clus scale="   32.278">  2  3  1 -1</clus>
<clus scale="   76.468">  1  4  2 -1</clus>
<clus scale="   95.164">  2  6  1 -1</clus>
<clus scale="   76.468">  1  3  2 -1</clus>
</clustering>
</event>
<event>
 6    0  0.1221518E+003  0.9961610E+02  0.7546771E-02  0.1281105E+00
         21   -1    0    0  503  501  0.00000000000E+00  0.00000000000E+00  0.10542678581E+04  0.10542678581E+04  0.00000000000E+00 0.  1.
         21   -1    0    0  504  502 -0.00000000000E+00 -0.00000000000E+00 -0.18225085789E+03  0.18225085789E+03  0.00000000000E+00 0.  1.
         21    1    1    2  503  506 -0.55816960406E+02  0.92367551300E+02  0.69337045106E+03  0.70171923160E+03  0.00000000000E+00 0.  1.
         21    1    1    2  504  501 -0.69178039369E+01 -0.30164515171E+02  0.29332798520E+02  0.42639970167E+02  0.00000000000E+00 0. -1.
         21    1    1    2  505  502 -0.53794655853E+02 -0.57232101713E+02 -0.15088166961E+03  0.17010190090E+03  0.00000000000E+00 0.  1.
         21    1    1    2  506  505  0.11652942020E+03 -0.49709344160E+01  0.30019542026E+03  0.32205761333E+03  0.00000000000E+00 0.  1.
<scales pt_clust_3="99.61610" pt_clust_4="30.94760" pt_clust_5="103.94920" pt_clust_6="14000.00000"></scales>
<clustering>
<clus scale="   30.948">  2  4  1 -1</clus>
<clus scale="  103.949">  2  5  1 -1</clus>
<clus scale="   99.616">  1  3  2 -1</clus>
<clus scale="   99.616">  1  3  2 -1</clus>
</clustering>
</event>
<event>
 6    0  0.1221518E+003  0.1228998E+03  0.7546771E-02  0.1238388E+00
         21   -1    0    0  504  501  0.00000000000E+00  0.00000000000E+00  0.59247680315E+03  0.59247680315E+03  0.00000000000E+00 0. -1.
         21   -1    0    0  503  502 -0.00000000000E+00 -0.00000000000E+00 -0.15965455043E+03  0.15965455043E+03  0.00000000000E+00 0. -1.
         21    1    1    2  503  506  0.34313303367E+02  0.17972232067E+01 -0.56406237995E+02  0.66047683411E+02  0.00000000000E+00 0. -1.
         21    1    1    2  504  502 -0.11118935658E+03  0.17419743418E+02  0.29097891847E+03  0.31198597961E+03  0.00000000000E+00 0. -1.
         21    1    1    2  505  501  0.14781835768E+03  0.33175777277E+02  0.23414443420E+03  0.27888082604E+03  0.00000000000E+00 0. -1.
         21    1    1    2  506  505 -0.70942304462E+02 -0.52392743902E+02 -0.35894861954E+02  0.95216864529E+02  0.00000000000E+00 0. -1.
<scales pt_clust_3="34.36034" pt_clust_4="122.89984" pt_clust_5="14000.00000" pt_clust_6="70.23898"></scales>
<clustering>
<clus scale="   34.360">  2  3  1 -1</clus>
<clus scale="   70.239">  2  6  1 -1</clus>
<clus scale="  122.900">  1  4  2 -1</clus>
<clus scale="  122.900">  1  3  2 -1</clus>
</clustering>
</event>
<event>
 6    0  0.1221518E+003  0.8556399E+02  0.7546771E-02  0.1313964E+00
         21   -1    0    0  506  501  0.00000000000E+00  0.00000000000E+00  0.86538372447E+02  0.86538372447E+02  0.00000000000E+00 0.  1.
         21   -1    0    0  503  502 -0.00000000000E+00 -0.00000000000E+00 -0.41950972225E+03  0.41950972225E+03  0.00000000000E+00 0.  1.
         21    1    1    2  503  505 -0.94226596637E+01 -0.46068363503E+02 -0.22807248516E+03  0.23286936062E+03  0.00000000000E+00 0.  1.
         21    1    1    2  504  501  0.54389051846E+02  0.27207674540E+02  0.87463674997E+01  0.61440422028E+02  0.00000000000E+00 0.  1.
         21    1    1    2  505  504  0.43766571820E+02 -0.49477501669E+02 -0.50639322860E+02  0.83233869308E+02  0.00000000000E+00 0.  1.
         21    1    1    2  506  502 -0.88732964003E+02  0.68338190631E+02 -0.63005909290E+02  0.12850444274E+03  0.00000000000E+00 0.  1.
<scales pt_clust_3="47.02213" pt_clust_4="57.00119" pt_clust_5="14000.00000" pt_clust_6="85.56399"></scales>
<clustering>
<clus scale="   47.022">  2  3  1 -1</clus>
<clus scale="   57.001">  1  4  2 -1</clus>
<clus scale="   85.564">  1  6  2 -1</clus>
<clus scale="   57.001">  1  3  2 -1</clus>
</clustering>
</event>
<event>
 6    0  0.1221518E+003  0.7941044E+02  0.7546771E-02  0.1330733E+00
         21   -1    0    0  505  501  0.00000000000E+00  0.00000000000E+00  0.50818072686E+03  0.50818072686E+03  0.00000000000E+00 0.  1.
         21   -1    0    0  503  502 -0.00000000000E+00 -0.00000000000E+00 -0.13528014947E+03  0.13528014947E+03  0.00000000000E+00 0. -1.
         21    1    1    2  503  504 -0.26558292981E+02 -0.39071035251E+02 -0.91524806838E+02  0.10299844168E+03  0.00000000000E+00 0. -1.
         21    1    1    2  504  506  0.85981420293E+02 -0.64125273607E+02  0.29259274481E+03  0.31163338985E+03  0.00000000000E+00 0.  1.
         21    1    1    2  505  502 -0.50745232809E+02  0.54488652044E+02  0.32998936954E+02  0.81443364950E+02  0.00000000000E+00 0.  1.
         21    1    1    2  506  501 -0.86778945028E+01  0.48707656814E+02  0.13883370246E+03  0.14738567985E+03  0.00000000000E+00 0.  1.
<scales pt_clust_3="47.24287" pt_clust_4="79.41044" pt_clust_5="14000.00000" pt_clust_6="45.82290"></scales>
<clustering>
<clus scale="   47.243">  2  3  1 -1</clus>
<clus scale="   45.823">  1  6  2 -1</clus>
<clus scale="   79.410">  1  4  2 -1</clus>
<clus scale="   45.823">  1  3  2 -1</clus>
</clustering>
</event>
<event>
 6    0  0.1221518E+003  0.9244748E+02  0.7546771E-02  0.1297031E+00
         21   -1    0    0  502  501  0.00000000000E+00  0.00000000000E+00  0.33623999710E+03  0.33623999710E+03  0.00000000000E+00 0. -1.
         21   -1    0    0  503  502 -0.00000000000E+00 -0.00000000000E+00 -0.12302766124E+03  0.12302766124E+03  0.00000000000E+00 0.  1.
         21    1    1    2  503  505 -0.35928703496E+02  0.33359587829E+02 -0.25304747017E+02  0.55173037406E+02  0.00000000000E+00 0.  1.
         21    1    1    2  504  501  0.60598850440E+02 -0.26686494634E+02  0.14280201592E+03  0.15740649739E+03  0.00000000000E+00 0. -1.
         21    1    1    2  505  506  0.27147119353E+02  0.73213602697E+02 -0.34504537595E+02  0.85368383045E+02  0.00000000000E+00 0.  1.
         21    1    1    2  506  504 -0.51817266297E+02 -0.79886695893E+02  0.13021960455E+03  0.16131974051E+03  0.00000000000E+00 0. -1.
<scales pt_clust_3="49.02789" pt_clust_4="62.14471" pt_clust_5="92.44748" pt_clust_6="14000.00000"></scales>
<clustering>
<clus scale="   49.028">  2  3  1 -1</clus>
<clus scale="   62.145">  1  4  2 -1</clus>
<clus scale="   92.447">  2  5  1 -1</clus>
<clus scale="   62.145">  1  3  2 -1</clus>
</clustering>
</event>
<event>
 6    0  0.1221518E+003  0.7544605E+02  0.7546771E-02  0.1342495E+00
         21   -1    0    0  504  501  0.00000000000E+00  0.00000000000E+00  0.20186357413E+03  0.20186357413E+03  0.00000000000E+00 0. -1.
         21   -1    0    0  503  502 -0.00000000000E+00 -0.00000000000E+00 -0.53742001967E+03  0.53742001967E+03  0.00000000000E+00 0.  1.
         21    1    1    2  503  501  0.55488580322E+02  0.26020663896E+02  0.56998125415E+02  0.83694944869E+02  0.00000000000E+00 0.  1.
         21    1    1    2  504  506 -0.89500593897E+02 -0.18956076779E+02  0.70367798530E+02  0.11541800650E+03  0.00000000000E+00 0. -1.
         21    1    1    2  505  502  0.12482120970E+02 -0.75391087990E+02 -0.46225536275E+03  0.46852923056E+03  0.00000000000E+00 0.  1.
         21    1    1    2  506  505  0.21529892605E+02  0.68326500873E+02 -0.66700672974E+00  0.71641411873E+02  0.00000000000E+00 0.  1.
<scales pt_clust_3="61.28668" pt_clust_4="50.31130" pt_clust_5="14000.00000" pt_clust_6="75.44605"></scales>
<clustering>
<clus scale="   61.287">  1  3  2 -1</clus>
<clus scale="   50.311">  1  4  2 -1</clus>
<clus scale="   75.446">  1  6  2 -1</clus>
<clus scale="   61.287">  1  3  2 -1</clus>
</clustering>
</event>
<event>
 6    0  0.1221518E+003  0.1365458E+03  0.7546771E-02  0.1218054E+00
         21   -1    0    0  506  501  0.00000000000E+00  0.00000000000E+00  0.10096294604E+03  0.10096294604E+03  0.00000000000E+00 0.  1.
         21   -1    0    0  504  502 -0.00000000000E+00 -0.00000000000E+00 -0.26678063466E+03  0.26678063466E+03  0.00000000000E+00 0.  1.
         21    1    1    2  503  505  0.84098378963E+01 -0.30651275431E+02 -0.69097298386E+01  0.32526457314E+02  0.00000000000E+00 0.  1.
         21    1    1    2  504  503  0.35852359596E+01 -0.30379003049E+02 -0.62778346831E+02  0.69834508475E+02  0.00000000000E+00 0.  1.
         21    1    1    2  505  501  0.93754734940E+02 -0.29141529069E+02 -0.32593788857E+01  0.98233408731E+02  0.00000000000E+00 0.  1.
         21    1    1    2  506  502 -0.10574980880E+03  0.90171807548E+02 -0.92870233060E+02  0.16714920618E+03  0.00000000000E+00 0.  1.
<scales pt_clust_3="31.94536" pt_clust_4="30.58983" pt_clust_5="31.94536" pt_clust_6="125.15109"></scales>
<clustering>
<clus scale="   30.590">  2  4  1 -1</clus>
<clus scale="   31.945">  3  5 -1 -1</clus>
<clus scale="  125.151">  2  6  1 -1</clus>
<clus scale="  136.546">  1  3  2 -1</clus>
</clustering>
</event>
<event>
 6    0  0.1221518E+003  0.9908288E+02  0.7546771E-02  0.1282236E+00
         21   -1    0    0  506  501  0.00000000000E+00  0.00000000000E+00  0.30597531559E+03  0.30597531559E+03  0.00000000000E+00 0. -1.
         21   -1    0    0  504  502 -0.00000000000E+00 -0.00000000000E+00 -0.50528267035E+03  0.50528267035E+03  0.00000000000E+00 0.  1.
         21    1    1    2  503  501  0.20014073836E+02  0.44257613136E+02  0.60601827694E+02  0.77665185198E+02  0.00000000000E+00 0. -1.
         21    1    1    2  504  505  0.83428210905E+02 -0.10030706939E+03 -0.11220435243E+03  0.17208018843E+03  0.00000000000E+00 0. -1.
         21    1    1    2  505  503 -0.31063440187E+02  0.58512959915E+02  0.19774829201E+03  0.20854997192E+03  0.00000000000E+00 0. -1.
         21    1    1    2  506  502 -0.72378844554E+02 -0.24635036563E+01 -0.34545312204E+03  0.35296264039E+03  0.00000000000E+00 0.  1.
<scales pt_clust_3="48.57262" pt_clust_4="99.08288" pt_clust_5="14000.00000" pt_clust_6="72.08309"></scales>
<clustering>
<clus scale="   48.573">  1  3  2 -1</clus>
<clus scale="   72.083">  2  6  1 -1</clus>
<clus scale="   99.083">  2  4  1 -1</clus>
<clus scale="   48.573">  1  3  2 -1</clus>
</clustering>
</event>
<event>
 6    0  0.1221518E+003  0.1477822E+03  0.7546771E-02  0.1203225E+00
         21   -1    0    0  503  501  0.00000000000E+00  0.00000000000E+00  0.61090565125E+02  0.61090565125E+02  0.00000000000E+00 0. -1.
         21   -1    0    0  504  502 -0.00000000000E+00 -0.00000000000E+00 -0.13906203053E+04  0.13906203053E+04  0.00000000000E+00 0.  1.
         21    1    1    2  503  506 -0.17669444366E+02  0.94131321055E+02 -0.56264680925E+02  0.11107938237E+03  0.00000000000E+00 0. -1.
         21    1    1    2  504  505  0.98244036397E+02 -0.89708419615E+02 -0.10251886251E+04  0.10337848946E+04  0.00000000000E+00 0.  1.
         21    1    1    2  505  501 -0.12291687076E+03  0.68731539904E+01 -0.12178817462E+03  0.17317088913E+03  0.00000000000E+00 0. -1.
         21    1    1    2  506  502  0.42342278734E+02 -0.11296055430E+02 -0.12628825955E+03  0.13367570436E+03  0.00000000000E+00 0. -1.
<scales pt_clust_3="94.55638" pt_clust_4="147.78218" pt_clust_5="14000.00000" pt_clust_6="43.82316"></scales>
<clustering>
<clus scale="   43.823">  2  6  1 -1</clus>
<clus scale="   94.556">  1  3  2 -1</clus>
<clus scale="  147.782">  2  4  1 -1</clus>
<clus scale="   94.556">  1  3  2 -1</clus>
</clustering>
</event>
<event>
 6    0  0.1221518E+003  0.9430218E+02  0.7546771E-02  0.1292756E+00
         21   -1    0    0  503  501  0.00000000000E+00  0.00000000000E+00  0.49758353795E+03  0.49758353795E+03  0.00000000000E+00 0. -1.
         21   -1    0    0  505  502 -0.00000000000E+00 -0.00000000000E+00 -0.22458771045E+03  0.22458771045E+03  0.00000000000E+00 0. -1.
         21    1    1    2  503  506  0.26736183210E+02 -0.16964642331E+02  0.26459258617E+02  0.41263966710E+02  0.00000000000E+00 0. -1.
         21    1    1    2  504  501 -0.89821496797E+02 -0.45239634333E+02  0.38503170882E+03  0.39794967345E+03  0.00000000000E+00 0. -1.
         21    1    1    2  505  504 -0.35633292693E+02  0.83688191922E+01 -0.16368429516E+03  0.16772691247E+03  0.00000000000E+00 0. -1.
         21    1    1    2  506  502  0.98718606280E+02  0.53835457472E+02  0.25189155226E+02  0.11523069577E+03  0.00000000000E+00 0. -1.
<scales pt_clust_3="31.66422" pt_clust_4="94.30218" pt_clust_5="36.47252" pt_clust_6="14000.00000"></scales>
<clustering>
<clus scale="   31.664">  1  3  2 -1</clus>
<clus scale="   36.473">  2  5  1 -1</clus>
<clus scale="   94.302">  1  4  2 -1</clus>
<clus scale="   31.664">  1  3  2 -1</clus>
</clustering>
</event>
<event>
 6    0  0.1221518E+003  0.1866497E+03  0.7546771E-02  0.1161518E+00
         21   -1    0    0  505  501  0.00000000000E+00  0.00000000000E+00  0.51156928867E+03  0.51156928867E+03  0.00000000000E+00 0.  1.
         21   -1    0    0  504  502 -0.00000000000E+00 -0.00000000000E+00 -0.17689216333E+04  0.17689216333E+04  0.00000000000E+00 0. -1.
         21    1    1    2  503  502 -0.83118019435E+02  0.25048111585E+02 -0.29285050727E+03  0.30544628440E+03  0.00000000000E+00 0.  1.
         21    1    1    2  504  506  0.26621789054E+03 -0.29398789019E+02 -0.13699426694E+04  0.13958793542E+04  0.00000000000E+00 0. -1.
         21    1    1    2  505  503 -0.17052382674E+03  0.32201951185E+02  0.96873878837E+00  0.17354042641E+03  0.00000000000E+00 0. -1.
         21    1    1    2  506  501 -0.12576044373E+02 -0.27851273752E+02  0.40447209326E+03  0.40562485694E+03  0.00000000000E+00 0.  1.
<scales pt_clust_3="87.06543" pt_clust_4="14000.00000" pt_clust_5="186.64966" pt_clust_6="30.55896"></scales>
<clustering>
<clus scale="   30.559">  1  6  2 -1</clus>
<clus scale="   87.065">  2  3  1 -1</clus>
<clus scale="  186.650">  1  5  2 -1</clus>
<clus scale="   30.559">  1  3  2 -1</clus>
</clustering>
</event>
<event>
 6    0  0.1221518E+003  0.8307125E+02  0.7546771E-02  0.1320555E+00
         21   -1    0    0  506  501  0.00000000000E+00  0.00000000000E+00  0.45090919234E+03  0.45090919234E+03  0.00000000000E+00 0. -1.
         21   -1    0    0  503  502 -0.00000000000E+00 -0.00000000000E+00 -0.12716772023E+03  0.12716772023E+03  0.00000000000E+00 0. -1.
         21    1    1    2  503  505 -0.80002780216E+01  0.45359378451E+02 -0.16079004708E+02  0.48785367214E+02  0.00000000000E+00 0.  1.
         21    1    1    2  504  502 -0.63122795644E+02 -0.10483608075E+03 -0.44301510126E+02  0.13014497669E+03  0.00000000000E+00 0. -1.
         21    1    1    2  505  501  0.35870386931E+02  0.35114168198E+02  0.10085019065E+03  0.11265189932E+03  0.00000000000E+00 0. -1.
         21    1    1    2  506  504  0.35252686735E+02  0.24362534103E+02  0.28327179629E+03  0.28649466935E+03  0.00000000000E+00 0. -1.
<scales pt_clust_3="47.97320" pt_clust_4="83.07125" pt_clust_5="14000.00000" pt_clust_6="42.85190"></scales>
<clustering>
<clus scale="   42.852">  1  6  2 -1</clus>
<clus scale="   47.973">  2  3  1 -1</clus>
<clus scale="   83.071">  2  4  1 -1</clus>
<clus scale="   42.852">  1  3  2 -1</clus>
</clustering>
</event>
<event>
 6    0  0.1221518E+003  0.1655209E+03  0.7546771E-02  0.1182601E+00
         21   -1    0    0  506  501  0.00000000000E+00  0.00000000000E+00  0.30063673756E+03  0.30063673756E+03  0.00000000000E+00 0. -1.
         21   -1    0    0  503  502 -0.00000000000E+00 -0.00000000000E+00 -0.18461290107E+03  0.18461290107E+03  0.00000000000E+00 0. -1.
         21    1    1    2  503  505  0.98315488542E+02 -0.12726486986E+03 -0.43729927249E+02  0.16665709983E+03  0.00000000000E+00 0. -1.
         21    1    1    2  504  502 -0.55885030611E+02  0.17385982112E+03  0.66348492523E+02  0.19430001674E+03  0.00000000000E+00 0. -1.
         21    1    1    2  505  501 -0.32224651997E+02 -0.15203829413E+02  0.81936088287E+02  0.89348235511E+02  0.00000000000E+00 0. -1.
         21    1    1    2  506  504 -0.10205805934E+02 -0.31391121847E+02  0.11469182928E+02  0.34944286552E+02  0.00000000000E+00 0.  1.
<scales pt_clust_3="165.52093" pt_clust_4="14000.00000" pt_clust_5="43.25649" pt_clust_6="33.00850"></scales>
<clustering>
<clus scale="   33.008">  1  6  2 -1</clus>
<clus scale="   43.256">  1  5  2 -1</clus>
<clus scale="  165.521">  2  3  1 -1</clus>
<clus scale="   33.008">  1  3  2 -1</clus>
</clustering>
</event>
<event>
 6    0  0.1221518E+003  0.8248308E+02  0.7546771E-02  0.1322149E+00
         21   -1    0    0  505  501  0.00000000000E+00  0.00000000000E+00  0.94816999650E+03  0.94816999650E+03  0.00000000000E+00 0.  1.
         21   -1    0    0  506  502 -0.00000000000E+00 -0.00000000000E+00 -0.28013720380E+03  0.28013720380E+03  0.00000000000E+00 0.  1.
         21    1    1    2  503  501 -0.25134809153E+02 -0.11034260759E+03  0.68698513412E+03  0.69624408376E+03  0.00000000000E+00 0.  1.
         21    1    1    2  504  502 -0.54065027283E+02  0.15922631432E+02 -0.24250377849E+03  0.24896714633E+03  0.00000000000E+00 0.  1.
         21    1    1    2  505  504  0.32087927891E+02  0.27918130253E+02  0.19043323452E+03  0.19512527750E+03  0.00000000000E+00 0.  1.
         21    1    1    2  506  503  0.47111908544E+02  0.66501845900E+02  0.33118202560E+02  0.87970692708E+02  0.00000000000E+00 0.  1.
<scales pt_clust_3="82.48308" pt_clust_4="56.26322" pt_clust_5="42.53301" pt_clust_6="14000.00000"></scales>
<clustering>
<clus scale="   42.533">  1  5  2 -1</clus>
<clus scale="   56.263">  2  4  1 -1</clus>
<clus scale="   82.483">  1  3  2 -1</clus>
<clus scale="   42.533">  1  3  2 -1</clus>
</clustering>
</event>
<event>
 6    0  0.1221518E+003  0.9792165E+02  0.7546771E-02  0.1284728E+00
         21   -1    0    0  505  501  0.00000000000E+00  0.00000000000E+00  0.76427612351E+03  0.76427612351E+03  0.00000000000E+00 0. -1.
         21   -1    0    0  504  502 -0.00000000000E+00 -0.00000000000E+00 -0.24438364583E+03  0.24438364583E+03  0.00000000000E+00 0. -1.
         21    1    1    2  503  502  0.60027308594E+02  0.71825607740E+02 -0.39492392344E+02  0.10159648004E+03  0.00000000000E+00 0. -1.
         21    1    1    2  504  506  0.58136559051E+02 -0.14093511959E+02  0.14224053595E+02  0.61488293832E+02  0.00000000000E+00 0. -1.
         21    1    1    2  505  503 -0.99827223387E+02  0.91685971064E+00  0.68531171171E+03  0.69254491361E+03  0.00000000000E+00 0. -1.
         21    1    1    2  506  501 -0.18336644258E+02 -0.58648955492E+02 -0.14015089528E+03  0.15303008185E+03  0.00000000000E+00 0. -1.
<scales pt_clust_3="14000.00000" pt_clust_4="59.82045" pt_clust_5="97.92165" pt_clust_6="70.96402"></scales>
<clustering>
<clus scale="   59.820">  2  4  1 -1</clus>
<clus scale="   70.964">  2  6  1 -1</clus>
<clus scale="   97.922">  1  5  2 -1</clus>
<clus scale="   97.922">  1  3  2 -1</clus>
</clustering>
</event>
<event>
 6    0  0.1221518E+003  0.7825690E+02  0.7546771E-02  0.1334072E+00
         21   -1    0    0  504  501  0.00000000000E+00  0.00000000000E+00  0.62074089962E+03  0.62074089962E+03  0.00000000000E+00 0.  1.
         21   -1    0    0  505  502 -0.00000000000E+00 -0.00000000000E+00 -0.11832555345E+04  0.11832555345E+04  0.00000000000E+00 0.  1.
         21    1    1    2  503  501 -0.16319541062E+02 -0.66124423070E+02  0.49442235361E+03  0.49909140495E+03  0.00000000000E+00 0.  1.
         21    1    1    2  504  506 -0.92418171236E+02 -0.44656404874E+02  0.94502175825E+01  0.10307579485E+03  0.00000000000E+00 0.  1.
         21    1    1    2  505  503  0.58135094285E+02  0.51595023631E+02  0.43594755295E+02  0.89119236646E+02  0.00000000000E+00 0. -1.
         21    1    1    2  506  502  0.50602618014E+02  0.59185804312E+02 -0.11099819614E+04  0.11127099977E+04  0.00000000000E+00 0.  1.
<scales pt_clust_3="68.10849" pt_clust_4="78.25690" pt_clust_5="51.99071" pt_clust_6="14000.00000"></scales>
<clustering>
<clus scale="   68.108">  1  3  2 -1</clus>
<clus scale="   51.991">  1  5  2 -1</clus>
<clus scale="   78.257">  1  4  2 -1</clus>
<clus scale="   68.108">  1  3  2 -1</clus>
</clustering>
</event>
<event>
 6    0  0.1221518E+003  0.1145336E+03  0.7546771E-02  0.1252397E+00
         21   -1    0    0  504  501  0.00000000000E+00  0.00000000000E+00  0.97904979518E+02  0.97904979518E+02  0.00000000000E+00 0. -1.
         21   -1    0    0  501  502 -0.00000000000E+00 -0.00000000000E+00 -0.56245709808E+03  0.56245709808E+03  0.00000000000E+00 0. -1.
         21    1    1    2  503  506  0.49837039868E+02  0.12036657490E+02 -0.28520842873E+02  0.58668987928E+02  0.00000000000E+00 0. -1.
         21    1    1    2  504  503  0.58237847589E+01 -0.29958251294E+02  0.13889069936E+02  0.33530874627E+02  0.00000000000E+00 0. -1.
         21    1    1    2  505  502  0.18571235964E+02  0.11391159289E+03 -0.42996720612E+03  0.44518820754E+03  0.00000000000E+00 0. -1.
         21    1    1    2  506  505 -0.74232060591E+02 -0.95989999088E+02 -0.19953139510E+02  0.12297400750E+03  0.00000000000E+00 0. -1.
<scales pt_clust_3="51.36603" pt_clust_4="30.51906" pt_clust_5="114.53359" pt_clust_6="14000.00000"></scales>
<clustering>
<clus scale="   30.519">  1  4  2 -1</clus>
<clus scale="   51.366">  1  3  2 -1</clus>
<clus scale="  114.534">  2  5  1 -1</clus>
<clus scale="   30.519">  1  3  2 -1</clus>
</clustering>
</event>
<event>
 6    0  0.1221518E+003  0.1452468E+03  0.7546771E-02  0.1206438E+00
         21   -1    0    0  505  501  0.00000000000E+00  0.00000000000E+00  0.53591283532E+03  0.53591283532E+03  0.00000000000E+00 0.  1.
         21   -1    0    0  506  502 -0.00000000000E+00 -0.00000000000E+00 -0.13820612239E+04  0.13820612239E+04  0.00000000000E+00 0.  1.
         21    1    1    2  503  501  0.29296840601E+02  0.28428855117E+02  0.36627826169E+02  0.54846169623E+02  0.00000000000E+00 0.  1.
         21    1    1    2  504  503  0.37980516458E+02 -0.31924674091E+02  0.50246163204E+02  0.70614314151E+02  0.00000000000E+00 0.  1.
         21    1    1    2  505  502  0.33973242756E+02  0.10819529184E+03  0.41828211047E+03  0.43338242504E+03  0.00000000000E+00 0.  1.
         21    1    1    2  506  504 -0.10125059981E+03 -0.10469947286E+03 -0.13513044884E+04  0.13591311504E+04  0.00000000000E+00 0.  1.
<scales pt_clust_3="40.82284" pt_clust_4="50.37470" pt_clust_5="14000.00000" pt_clust_6="145.24684"></scales>
<clustering>
<clus scale="   40.823">  1  3  2 -1</clus>
<clus scale="   50.375">  1  4  2 -1</clus>
<clus scale="  145.247">  2  6  1 -1</clus>
<clus scale="   40.823">  1  3  2 -1</clus>
</clustering>
</event>
<event>
 6    0  0.1221518E+003  0.1538590E+03  0.7546771E-02  0.1195810E+00
         21   -1    0    0  504  501  0.00000000000E+00  0.00000000000E+00  0.82353172896E+03  0.82353172896E+03  0.00000000000E+00 0.  1.
         21   -1    0    0  505  502 -0.00000000000E+00 -0.00000000000E+00 -0.17115217220E+03  0.17115217220E+03  0.00000000000E+00 0.  1.
         21    1    1    2  503  501  0.44503803100E+02 -0.21122497194E+02  0.27735209390E+03  0.28169297537E+03  0.00000000000E+00 0.  1.
         21    1    1    2  504  506 -0.46501709021E+02 -0.59117593888E+02  0.30732135976E+03  0.31639171451E+03  0.00000000000E+00 0.  1.
         21    1    1    2  505  503 -0.34388337651E+00  0.14569748947E+03 -0.12568467814E+03  0.19241755380E+03  0.00000000000E+00 0.  1.
         21    1    1    2  506  502  0.23417892974E+01 -0.65457398385E+02  0.19339078124E+03  0.20418165748E+03  0.00000000000E+00 0.  1.
<scales pt_clust_3="49.26204" pt_clust_4="52.61550" pt_clust_5="144.42166" pt_clust_6="52.61550"></scales>
<clustering>
<clus scale="   49.262">  1  3  2 -1</clus>
<clus scale="   52.616">  4  6 -1 -1</clus>
<clus scale="  144.422">  2  5  1 -1</clus>
<clus scale="   49.262">  1  3  2 -1</clus>
</clustering>
</event>
<event>
 6    0  0.1221518E+003  0.1478647E+03  0.7546771E-02  0.1203122E+00
         21   -1    0    0  504  501  0.00000000000E+00  0.00000000000E+00  0.11657030516E+03  0.11657030516E+03  0.00000000000E+00 0. -1.
         21   -1    0    0  503  502 -0.00000000000E+00 -0.00000000000E+00 -0.12303844993E+04  0.12303844993E+04  0.00000000000E+00 0. -1.
         21    1    1    2  503  506  0.29660650067E+02 -0.14045332029E+02 -0.88590447520E+02  0.94473768349E+02  0.00000000000E+00 0.  1.
         21    1    1    2  504  505 -0.11144361837E+03  0.35699672666E+02  0.39705804545E+02  0.12357466415E+03  0.00000000000E+00 0. -1.
         21    1    1    2  505  502  0.11077695838E+03  0.85613839830E+02 -0.97761128219E+03  0.98758548143E+03  0.00000000000E+00 0. -1.
         21    1    1    2  506  501 -0.28993990070E+02 -0.10726818047E+03 -0.87318268983E+02  0.14132089053E+03  0.00000000000E+00 0. -1.
<scales pt_clust_3="32.81807" pt_clust_4="147.86475" pt_clust_5="14000.00000" pt_clust_6="111.74877"></scales>
<clustering>
<clus scale="   32.818">  2  3  1 -1</clus>
<clus scale="  111.749">  1  6  2 -1</clus>
<clus scale="  147.865">  1  4  2 -1</clus>
<clus scale="  111.749">  1  3  2 -1</clus>
</clustering>
</event>
<event>
 6    0  0.1221518E+003  0.2050374E+03  0.7546771E-02  0.1145557E+00
         21   -1    0    0  504  501  0.00000000000E+00  0.00000000000E+00  0.49312641231E+03  0.49312641231E+03  0.00000000000E+00 0. -1.
         21   -1    0    0  503  502 -0.00000000000E+00 -0.00000000000E+00 -0.10795100598E+04  0.10795100598E+04  0.00000000000E+00 0. -1.
         21    1    1    2  503  506  0.20703106692E+02  0.25776231606E+03  0.26143254811E+03  0.36771865253E+03  0.00000000000E+00 0. -1.
         21    1    1    2  504  505 -0.13000759080E+01 -0.35959845525E+02  0.29179581678E+02  0.46327623233E+02  0.00000000000E+00 0. -1.
         21    1    1    2  505  502 -0.59495686962E+02 -0.19459466810E+03 -0.10030824551E+04  0.10235141589E+04  0.00000000000E+00 0. -1.
         21    1    1    2  506  501  0.40092656178E+02 -0.27207802432E+02  0.12608667781E+03  0.13507603753E+03  0.00000000000E+00 0. -1.
<scales pt_clust_3="14000.00000" pt_clust_4="35.98334" pt_clust_5="205.03738" pt_clust_6="54.63865"></scales>
<clustering>
<clus scale="   35.983">  1  4  2 -1</clus>
<clus scale="   54.639">  1  6  2 -1</clus>
<clus scale="  205.037">  2  5  1 -1</clus>
<clus scale="   35.983">  1  3  2 -1</clus>
</clustering>
</event>
<event>
 6    0  0.1221518E+003  0.1546045E+03  0.7546771E-02  0.1194927E+00
         21   -1    0    0  505  501  0.00000000000E+00  0.00000000000E+00  0.17604795648E+04  0.17604795648E+04  0.00000000000E+00 0.  1.
         21   -1    0    0  506  502 -0.00000000000E+00 -0.00000000000E+00 -0.13485683320E+02  0.13485683320E+02  0.00000000000E+00 0. -1.
         21    1    1    2  503  501 -0.43453403847E+02 -0.10008041045E+03  0.64064862937E+03  0.64987302850E+03  0.00000000000E+00 0. -1.
         21    1    1    2  504  502  0.45149056534E+02  0.63857058326E+02  0.26822957297E+03  0.27939804047E+03  0.00000000000E+00 0. -1.
         21    1    1    2  505  504  0.42482085401E+02  0.42843174461E+02  0.50770716597E+03  0.51127960213E+03  0.00000000000E+00 0.  1.
         21    1    1    2  506  503 -0.44177738088E+02 -0.66198223350E+01  0.33040851321E+03  0.33341457705E+03  0.00000000000E+00 0.  1.
<scales pt_clust_3="44.50789" pt_clust_4="151.96484" pt_clust_5="55.75329" pt_clust_6="44.50789"></scales>
<clustering>
<clus scale="   44.508">  3  6 -1 -1</clus>
<clus scale="   55.753">  4  5 -1 -1</clus>
<clus scale="  151.965">  2  4  1 -1</clus>
<clus scale="  154.604">  1  3  2 -1</clus>
</clustering>
</event>
<event>
 6    0  0.1221518E+003  0.7831388E+02  0.7546771E-02  0.1333906E+00
         21   -1    0    0  502  501  0.00000000000E+00  0.00000000000E+00  0.44301695998E+03  0.44301695998E+03  0.00000000000E+00 0. -1.
         21   -1    0    0  503  502 -0.00000000000E+00 -0.00000000000E+00 -0.14404010123E+04  0.14404010123E+04  0.00000000000E+00 0. -1.
         21    1    1    2  503  504 -0.91332289462E+02  0.42704982973E+02 -0.10564175064E+04  0.10612178149E+04  0.00000000000E+00 0. -1.
         21    1    1    2  504  505  0.30571901118E+02 -0.52851250416E+02 -0.35475649267E+03  0.35997231130E+03  0.00000000000E+00 0. -1.
         21    1    1    2  505  506  0.47275503383E+02  0.39481441637E+02  0.16686095027E+02  0.63813660145E+02  0.00000000000E+00 0. -1.
         21    1    1    2  506  501  0.13484884961E+02 -0.29335174194E+02  0.39710385172E+03  0.39841418602E+03  0.00000000000E+00 0. -1.
<scales pt_clust_3="14000.00000" pt_clust_4="78.31388" pt_clust_5="60.76246" pt_clust_6="32.28614"></scales>
<clustering>
<clus scale="   32.286">  1  6  2 -1</clus>
<clus scale="   60.762">  1  5  2 -1</clus>
<clus scale="   78.314">  1  4  2 -1</clus>
<clus scale="   32.286">  1  3  2 -1</clus>
</clustering>
</event>
<event>
 6    0  0.1221518E+003  0.1165238E+03  0.7546771E-02  0.1248944E+00
         21   -1    0    0  505  501  0.00000000000E+00  0.00000000000E+00  0.21634561305E+03  0.21634561305E+03  0.00000000000E+00 0.  1.
         21   -1    0    0  506  502 -0.00000000000E+00 -0.00000000000E+00 -0.20860945956E+04  0.20860945956E+04  0.00000000000E+00 0. -1.
         21    1    1    2  503  504 -0.38103091458E+02  0.14229413965E+03 -0.74722940815E+02  0.16517562060E+03  0.00000000000E+00 0. -1.
         21    1    1    2  504  501 -0.18857293701E+02 -0.36667091764E+02  0.16457822020E+03  0.16966456233E+03  0.00000000000E+00 0.  1.
         21    1    1    2  505  502  0.29918856422E+02 -0.24783474348E+02 -0.14779283498E+04  0.14784388948E+04  0.00000000000E+00 0. -1.
         21    1    1    2  506  503  0.27041528738E+02 -0.80843573537E+02 -0.48167591211E+03  0.48916113088E+03  0.00000000000E+00 0.  1.
<scales pt_clust_3="116.52381" pt_clust_4="41.26721" pt_clust_5="38.85046" pt_clust_6="14000.00000"></scales>
<clustering>
<clus scale="   38.850">  2  5  1 -1</clus>
<clus scale="   41.267">  1  4  2 -1</clus>
<clus scale="  116.524">  1  3  2 -1</clus>
<clus scale="   41.267">  1  3  2 -1</clus>
</clustering>
</event>
<event>
 6    0  0.1221518E+003  0.8714410E+02  0.7546771E-02  0.1309919E+00
         21   -1    0    0  505  501  0.00000000000E+00  0.00000000000E+00  0.61683115711E+03  0.61683115711E+03  0.00000000000E+00 0. -1.
         21   -1    0    0  504  502 -0.00000000000E+00 -0.00000000000E+00 -0.24070812866E+03  0.24070812866E+03  0.00000000000E+00 0. -1.
         21    1    1    2  503  501  0.57246071981E+01  0.42933147749E+02  0.15081647540E+03  0.15691282789E+03  0.00000000000E+00 0. -1.
         21    1    1    2  504  503 -0.17258355585E+01 -0.82683318466E+02 -0.20500317222E+03  0.22105612474E+03  0.00000000000E+00 0. -1.
         21    1    1    2  505  506 -0.63795479995E+02  0.27603775518E+02  0.40911199568E+03  0.41497524830E+03  0.00000000000E+00 0. -1.
         21    1    1    2  506  502  0.59796708355E+02  0.12146395199E+02  0.21197729587E+02  0.64595084845E+02  0.00000000000E+00 0. -1.
<scales pt_clust_3="43.31312" pt_clust_4="87.14410" pt_clust_5="14000.00000" pt_clust_6="62.44484"></scales>
<clustering>
<clus scale="   43.313">  1  3  2 -1</clus>
<clus scale="   62.445">  2  6  1 -1</clus>
<clus scale="   87.144">  2  4  1 -1</clus>
<clus scale="   43.313">  1  3  2 -1</clus>
</clustering>
</event>
<event>
 6    0  0.1221518E+003  0.1167113E+03  0.7546771E-02  0.1248623E+00
         21   -1    0    0  506  501  0.00000000000E+00  0.00000000000E+00  0.31711043058E+04  0.31711043058E+04  0.00000000000E+00 0. -1.
         21   -1    0    0  504  502 -0.00000000000E+00 -0.00000000000E+00 -0.14729112066E+02  0.14729112066E+02  0.00000000000E+00 0. -1.
         21    1    1    2  503  501  0.42743711728E+02  0.94915821319E+01  0.79619103468E+03  0.79739405486E+03  0.00000000000E+00 0. -1.
         21    1    1    2  504  503 -0.99461562962E+02 -0.93574000558E+02  0.21021203439E+04  0.21065513610E+04  0.00000000000E+00 0. -1.
         21    1    1    2  505  502 -0.45379796646E+01  0.32295345452E+02  0.88229580836E+02  0.94064028894E+02  0.00000000000E+00 0. -1.
         21    1    1    2  506  505  0.61255830898E+02  0.51787072974E+02  0.16983423430E+03  0.18782397314E+03  0.00000000000E+00 0. -1.
<scales pt_clust_3="43.78487" pt_clust_4="105.09222" pt_clust_5="32.36972" pt_clust_6="32.36972"></scales>
<clustering>
<clus scale="   32.370">  5  6 -1 -1</clus>
<clus scale="   43.785">  1  3  2 -1</clus>
<clus scale="  105.092">  1  4  2 -1</clus>
<clus scale="   43.785">  1  3  2 -1</clus>
</clustering>
</event>
<event>
 6    0  0.1221518E+003  0.8438840E+02  0.7546771E-02  0.1317040E+00
         21   -1    0    0  505  501  0.00000000000E+00  0.00000000000E+00  0.85937213150E+03  0.85937213150E+03  0.00000000000E+00 0. -1.
         21   -1    0    0  506  502 -0.00000000000E+00 -0.00000000000E+00 -0.48703788932E+02  0.48703788932E+02  0.00000000000E+00 0. -1.
         21    1    1    2  503  502  0.13966604478E+02 -0.28286334138E+02 -0.13477673862E+02  0.34304962211E+02  0.00000000000E+00 0. -1.
         21    1    1    2  504  501 -0.65639590556E+02 -0.37971979223E+02  0.33389143028E+03  0.34239438411E+03  0.00000000000E+00 0. -1.
         21    1    1    2  505  503 -0.65771465078E+02  0.50656395248E+02  0.25140819165E+03  0.26476033470E+03  0.00000000000E+00 0. -1.
         21    1    1    2  506  504  0.11744445116E+03  0.15601918113E+02  0.23884639449E+03  0.26661623941E+03  0.00000000000E+00 0. -1.
<scales pt_clust_3="31.54652" pt_clust_4="14000.00000" pt_clust_5="75.48916" pt_clust_6="84.38840"></scales>
<clustering>
<clus scale="   31.547">  2  3  1 -1</clus>
<clus scale="   75.489">  2  5  1 -1</clus>
<clus scale="   84.388">  2  6  1 -1</clus>
<clus scale="   84.388">  1  3  2 -1</clus>
</clustering>
</event>
<event>
 6    0  0.1221518E+003  0.1478871E+03  0.7546771E-02  0.1203094E+00
         21   -1    0    0  503  501  0.00000000000E+00  0.00000000000E+00  0.59232314339E+02  0.59232314339E+02  0.00000000000E+00 0.  1.
         21   -1    0    0  504  502 -0.00000000000E+00 -0.00000000000E+00 -0.10710144356E+04  0.10710144356E+04  0.00000000000E+00 0.  1.
         21    1    1    2  503  505  0.37803027047E+02 -0.55421961867E+01 -0.74358451326E+02  0.83600024379E+02  0.00000000000E+00 0.  1.
         21    1    1    2  504  506 -0.45212207325E+02  0.11291821695E+03 -0.35910767463E+03  0.37914771447E+03  0.00000000000E+00 0.  1.
         21    1    1    2  505  502  0.49251399932E+02 -0.18652001890E+03 -0.53365526438E+03  0.56745339813E+03  0.00000000000E+00 0.  1.
         21    1    1    2  506  501 -0.41842219654E+02  0.79143998144E+02 -0.44660730939E+02  0.10004561298E+03  0.00000000000E+00 0.  1.
<scales pt_clust_3="38.20713" pt_clust_4="147.88714" pt_clust_5="14000.00000" pt_clust_6="79.62973"></scales>
<clustering>
<clus scale="   38.207">  1  3  2 -1</clus>
<clus scale="   79.630">  1  6  2 -1</clus>
<clus scale="  147.887">  2  4  1 -1</clus>
<clus scale="   38.207">  1  3  2 -1</clus>
</clustering>
</event>
<event>
 6    0  0.1221518E+003  0.8054310E+02  0.7546771E-02  0.1327517E+00
         21   -1    0    0  506  501  0.00000000000E+00  0.00000000000E+00  0.87374118169E+03  0.87374118169E+03  0.00000000000E+00 0. -1.
         21   -1    0    0  503  502 -0.00000000000E+00 -0.00000000000E+00 -0.20402512626E+03  0.20402512626E+03  0.00000000000E+00 0. -1.
         21    1    1    2  503  504 -0.10935591938E+03 -0.49491270148E+01 -0.11365048394E+03  0.15779620864E+03  0.00000000000E+00 0. -1.
         21    1    1    2  504  501  0.21951025552E+01 -0.37352857580E+02  0.78633099724E+03  0.78722073884E+03  0.00000000000E+00 0. -1.
         21    1    1    2  505  502  0.54077803505E+02  0.27118344272E+02 -0.34016801454E+02  0.69404295322E+02  0.00000000000E+00 0. -1.
         21    1    1    2  506  505  0.53083013315E+02  0.15183640323E+02  0.31052343580E+02  0.63345065142E+02  0.00000000000E+00 0. -1.
<scales pt_clust_3="80.54310" pt_clust_4="37.41730" pt_clust_5="14000.00000" pt_clust_6="54.51241"></scales>
<clustering>
<clus scale="   37.417">  1  4  2 -1</clus>
<clus scale="   54.512">  1  6  2 -1</clus>
<clus scale="   80.543">  1  3  2 -1</clus>
<clus scale="   37.417">  1  3  2 -1</clus>
</clustering>
</event>
<event>
 6    0  0.1221518E+003  0.8576042E+02  0.7546771E-02  0.1313456E+00
         21   -1    0    0  503  501  0.00000000000E+00  0.00000000000E+00  0.41474600918E+02  0.41474600918E+02  0.00000000000E+00 0.  1.
         21   -1    0    0  505  502 -0.00000000000E+00 -0.00000000000E+00 -0.74285761780E+03  0.74285761780E+03  0.00000000000E+00 0. -1.
         21    1    1    2  503  502  0.33505111187E+02 -0.25181861006E+02 -0.69055479443E+02  0.80779810847E+02  0.00000000000E+00 0.  1.
         21    1    1    2  504  506 -0.57897805380E+02 -0.77463255224E+02 -0.24096852648E+03  0.25965080884E+03  0.00000000000E+00 0.  1.
         21    1    1    2  505  504 -0.17694918571E+02  0.31207112852E+02 -0.34891644645E+03  0.35075587043E+03  0.00000000000E+00 0. -1.
         21    1    1    2  506  501  0.42087612764E+02  0.71438003378E+02 -0.42442564508E+02  0.93145728602E+02  0.00000000000E+00 0.  1.
<scales pt_clust_3="35.74715" pt_clust_4="14000.00000" pt_clust_5="35.87470" pt_clust_6="85.76042"></scales>
<clustering>
<clus scale="   35.875">  2  5  1 -1</clus>
<clus scale="   35.747">  2  3  1 -1</clus>
<clus scale="   85.760">  1  6  2 -1</clus>
<clus scale="   85.760">  1  3  2 -1</clus>
</clustering>
</event>
<event>
 6    0  0.1221518E+003  0.1137407E+03  0.7546771E-02  0.1253795E+00
         21   -1    0    0  505  501  0.00000000000E+00  0.00000000000E+00  0.67662905683E+03  0.67662905683E+03  0.00000000000E+00 0. -1.
         21   -1    0    0  504  502 -0.00000000000E+00 -0.00000000000E+00 -0.38106848081E+03  0.38106848081E+03  0.00000000000E+00 0. -1.
         21    1    1    2  503  501 -0.28844266917E+02 -0.15732843254E+02  0.23419972010E+03  0.23649317747E+03  0.00000000000E+00 0. -1.
         21    1    1    2  504  503 -0.28154259977E+02  0.10719544730E+03 -0.32344432929E+03  0.34190606960E+03  0.00000000000E+00 0. -1.
         21    1    1    2  505  506  0.27117985512E+02  0.74408836334E+02  0.25368574652E+03  0.26576026425E+03  0.00000000000E+00 0. -1.
         21    1    1    2  506  502  0.29880541382E+02 -0.16587144038E+03  0.13111943868E+03  0.21353802633E+03  0.00000000000E+00 0. -1.
<scales pt_clust_3="32.85596" pt_clust_4="14000.00000" pt_clust_5="65.93364" pt_clust_6="113.74071"></scales>
<clustering>
<clus scale="   32.856">  1  3  2 -1</clus>
<clus scale="   65.934">  1  5  2 -1</clus>
<clus scale="  113.741">  1  6  2 -1</clus>
<clus scale="   32.856">  1  3  2 -1</clus>
</clustering>
</event>
<event>
 6    0  0.1221518E+003  0.1266829E+03  0.7546771E-02  0.1232462E+00
         21   -1    0    0  503  501  0.00000000000E+00  0.00000000000E+00  0.15666734523E+03  0.15666734523E+03  0.00000000000E+00 0. -1.
         21   -1    0    0  505  502 -0.00000000000E+00 -0.00000000000E+00 -0.30759524180E+03  0.30759524180E+03  0.00000000000E+00 0. -1.
         21    1    1    2  503  506  0.10822699563E+03 -0.82574546946E+02  0.49407565608E+02  0.14481970144E+03  0.00000000000E+00 0. -1.
         21    1    1    2  504  502 -0.34433372734E+02  0.14121704018E+02 -0.16337544812E+03  0.16756078518E+03  0.00000000000E+00 0. -1.
         21    1    1    2  505  501  0.22894238505E+02  0.20940788260E+02  0.12360317808E+02  0.33398206928E+02  0.00000000000E+00 0. -1.
         21    1    1    2  506  504 -0.96687861398E+02  0.47512054668E+02 -0.49320331871E+02  0.11848389349E+03  0.00000000000E+00 0.  1.
<scales pt_clust_3="126.68294" pt_clust_4="37.01223" pt_clust_5="31.02681" pt_clust_6="14000.00000"></scales>
<clustering>
<clus scale="   31.027">  1  5  2 -1</clus>
<clus scale="   37.012">  2  4  1 -1</clus>
<clus scale="  126.683">  1  3  2 -1</clus>
<clus scale="   31.027">  1  3  2 -1</clus>
</clustering>
</event>
<event>
 6    0  0.1221518E+003  0.1247210E+03  0.7546771E-02  0.1235506E+00
         21   -1    0    0  503  501  0.00000000000E+00  0.00000000000E+00  0.15740508466E+03  0.15740508466E+03  0.00000000000E+00 0.  1.
         21   -1    0    0  505  502 -0.00000000000E+00 -0.00000000000E+00 -0.42627966031E+03  0.42627966031E+03  0.00000000000E+00 0.  1.
         21    1    1    2  503  502  0.25014469039E+02  0.72342709370E+02 -0.95796319130E+02  0.12262188230E+03  0.00000000000E+00 0.  1.
         21    1    1    2  504  501  0.58567319294E+02 -0.11365584527E+03  0.42972494074E+02  0.13488668319E+03  0.00000000000E+00 0.  1.
         21    1    1    2  505  506  0.62296682553E+00 -0.48030251212E+02 -0.19597363292E+03  0.20177452247E+03  0.00000000000E+00 0.  1.
         21    1    1    2  506  504 -0.84204755158E+02  0.89343387116E+02 -0.20077117676E+02  0.12440165701E+03  0.00000000000E+00 0.  1.
<scales pt_clust_3="55.39831" pt_clust_4="124.72103" pt_clust_5="48.03429" pt_clust_6="14000.00000"></scales>
<clustering>
<clus scale="   48.034">  2  5  1 -1</clus>
<clus scale="   55.398">  2  3  1 -1</clus>
<clus scale="  124.721">  1  4  2 -1</clus>
<clus scale="  124.721">  1  3  2 -1</clus>
</clustering>
</event>
<event>
 6    0  0.1221518E+003  0.1524423E+03  0.7546771E-02  0.1197504E+00
         21   -1    0    0  505  501  0.00000000000E+00  0.00000000000E+00  0.19406748158E+03  0.19406748158E+03  0.00000000000E+00 0.  1.
         21   -1    0    0  503  502 -0.00000000000E+00 -0.00000000000E+00 -0.13882604321E+04  0.13882604321E+04  0.00000000000E+00 0.  1.
         21    1    1    2  503  506  0.37065080825E+01 -0.92884271374E+02 -0.24494666355E+03  0.26199254580E+03  0.00000000000E+00 0.  1.
         21    1    1    2  504  502  0.21973289283E+02 -0.69927164366E+02 -0.10494203463E+04  0.10519770421E+04  0.00000000000E+00 0.  1.
         21    1    1    2  505  504 -0.65862758983E+02  0.18440954490E+03  0.53284862172E+02  0.20293856165E+03  0.00000000000E+00 0.  1.
         21    1    1    2  506  501  0.40182961617E+02 -0.21598109155E+02  0.46889197207E+02  0.65419764125E+02  0.00000000000E+00 0. -1.
<scales pt_clust_3="14000.00000" pt_clust_4="73.60149" pt_clust_5="152.44234" pt_clust_6="45.61961"></scales>
<clustering>
<clus scale="   45.620">  1  6  2 -1</clus>
<clus scale="   73.601">  2  4  1 -1</clus>
<clus scale="  152.442">  1  5  2 -1</clus>
<clus scale="   45.620">  1  3  2 -1</clus>
</clustering>
</event>
<event>
 6    0  0.1221518E+003  0.1008492E+03  0.7546771E-02  0.1278520E+00
         21   -1    0    0  505  501  0.00000000000E+00  0.00000000000E+00  0.53828274322E+03  0.53828274322E+03  0.00000000000E+00 0.  1.
         21   -1    0    0  504  502 -0.00000000000E+00 -0.00000000000E+00 -0.59186191914E+03  0.59186191914E+03  0.00000000000E+00 0.  1.
         21    1    1    2  503  506 -0.13348931650E+03 -0.68849865308E+02  0.30490580224E+03  0.33989299759E+03  0.00000000000E+00 0.  1.
         21    1    1    2  504  501  0.47412846838E+02  0.36820928091E+02 -0.45562379689E+02  0.75363712977E+02  0.00000000000E+00 0.  1.
         21    1    1    2  505  503  0.64179182904E+02 -0.16756319271E+02  0.19406519007E+03  0.20508788299E+03  0.00000000000E+00 0.  1.
         21    1    1    2  506  502  0.21897286756E+02  0.48785256487E+02 -0.50698778854E+03  0.50980006880E+03  0.00000000000E+00 0.  1.
<scales pt_clust_3="100.84918" pt_clust_4="14000.00000" pt_clust_5="67.00630" pt_clust_6="53.47422"></scales>
<clustering>
<clus scale="   53.474">  2  6  1 -1</clus>
<clus scale="   67.006">  1  5  2 -1</clus>
<clus scale="  100.849">  1  3  2 -1</clus>
<clus scale="   67.006">  1  3  2 -1</clus>
</clustering>
</event>
<event>
 6    0  0.1221518E+003  0.7012277E+02  0.7546771E-02  0.1359676E+00
         21   -1    0    0  505  501  0.00000000000E+00  0.00000000000E+00  0.18888076341E+03  0.18888076341E+03  0.00000000000E+00 0.  1.
         21   -1    0    0  503  502 -0.00000000000E+00 -0.00000000000E+00 -0.24189499067E+03  0.24189499067E+03  0.00000000000E+00 0.  1.
         21    1    1    2  503  504  0.10559739816E+03 -0.10419404440E+02 -0.14720231540E+03  0.18146045339E+03  0.00000000000E+00 0.  1.
         21    1    1    2  504  501  0.30399508047E+02 -0.39804520114E+02  0.61121016740E+02  0.79020937721E+02  0.00000000000E+00 0.  1.
         21    1    1    2  505  506 -0.86569367367E+02  0.25388811660E+02  0.60425876122E+02  0.10858238176E+03  0.00000000000E+00 0.  1.
         21    1    1    2  506  502 -0.49427538836E+02  0.24835112894E+02 -0.27358804719E+02  0.61711981199E+02  0.00000000000E+00 0.  1.
<scales pt_clust_3="70.12277" pt_clust_4="50.08523" pt_clust_5="14000.00000" pt_clust_6="48.90809"></scales>
<clustering>
<clus scale="   50.085">  1  4  2 -1</clus>
<clus scale="   48.908">  2  6  1 -1</clus>
<clus scale="   70.123">  2  3  1 -1</clus>
<clus scale="   50.085">  1  3  2 -1</clus>
</clustering>
</event>
<event>
 6    0  0.1221518E+003  0.2610397E+03  0.7546771E-02  0.1106520E+00
         21   -1    0    0  503  501  0.00000000000E+00  0.00000000000E+00  0.59754772765E+03  0.59754772765E+03  0.00000000000E+00 0.  1.
         21   -1    0    0  505  502 -0.00000000000E+00 -0.00000000000E+00 -0.19095930943E+03  0.19095930943E+03  0.00000000000E+00 0.  1.
         21    1    1    2  503  504 -0.30780820704E+02  0.91390857215E+02 -0.63605697284E+01  0.96644733705E+02  0.00000000000E+00 0.  1.
         21    1    1    2  504  502 -0.14292516417E+03  0.10897318671E+03  0.46124004146E+02  0.18555371657E+03  0.00000000000E+00 0.  1.
         21    1    1    2  505  506  0.17121537330E+03 -0.14524204483E+03  0.12237023403E+03  0.25570379313E+03  0.00000000000E+00 0.  1.
         21    1    1    2  506  501  0.24906115721E+01 -0.55121999086E+02  0.24445474978E+03  0.25060479368E+03  0.00000000000E+00 0.  1.
<scales pt_clust_3="64.12246" pt_clust_4="64.12246" pt_clust_5="245.77714" pt_clust_6="55.17824"></scales>
<clustering>
<clus scale="   55.178">  1  6  2 -1</clus>
<clus scale="   64.122">  3  4 -1 -1</clus>
<clus scale="  245.777">  1  5  2 -1</clus>
<clus scale="   55.178">  1  3  2 -1</clus>
</clustering>
</event>
<event>
 6    0  0.1221518E+003  0.2820603E+03  0.7546771E-02  0.1094569E+00
         21   -1    0    0  503  501  0.00000000000E+00  0.00000000000E+00  0.40399681184E+03  0.40399681184E+03  0.00000000000E+00 0. -1.
         21   -1    0    0  506  502 -0.00000000000E+00 -0.00000000000E+00 -0.13792675863E+04  0.13792675863E+04  0.00000000000E+00 0. -1.
         21    1    1    2  503  502 -0.20582312745E+02  0.22087227151E+02 -0.63590374991E+03  0.63662002510E+03  0.00000000000E+00 0. -1.
         21    1    1    2  504  505  0.23306459596E+03 -0.97272847455E+02  0.80922153399E+02  0.26519711094E+03  0.00000000000E+00 0. -1.
         21    1    1    2  505  501  0.21414396576E+02 -0.46854090548E+02  0.20045362524E+03  0.20696748067E+03  0.00000000000E+00 0. -1.
         21    1    1    2  506  504 -0.23389667979E+03  0.12203971085E+03 -0.62074280317E+03  0.67447978141E+03  0.00000000000E+00 0. -1.
<scales pt_clust_3="30.19068" pt_clust_4="282.06027" pt_clust_5="51.39030" pt_clust_6="14000.00000"></scales>
<clustering>
<clus scale="   30.191">  2  3  1 -1</clus>
<clus scale="   51.390">  1  5  2 -1</clus>
<clus scale="  282.060">  1  4  2 -1</clus>
<clus scale="   51.390">  1  3  2 -1</clus>
</clustering>
</event>
<event>
 6    0  0.1221518E+003  0.1751241E+03  0.7546771E-02  0.1172607E+00
         21   -1    0    0  502  501  0.00000000000E+00  0.00000000000E+00  0.47623238589E+03  0.47623238589E+03  0.00000000000E+00 0.  1.
         21   -1    0    0  505  502 -0.00000000000E+00 -0.00000000000E+00 -0.11445912067E+04  0.11445912067E+04  0.00000000000E+00 0.  1.
         21    1    1    2  503  504  0.12928619356E+03 -0.73383057106E+02  0.89311552112E+02  0.17342590999E+03  0.00000000000E+00 0.  1.
         21    1    1    2  504  501 -0.84375288339E+02  0.29286891783E+02  0.30724535865E+03  0.31996346936E+03  0.00000000000E+00 0.  1.
         21    1    1    2  505  506 -0.18488242295E+03 -0.31077114560E+02 -0.76944867291E+03  0.79195868428E+03  0.00000000000E+00 0.  1.
         21    1    1    2  506  503  0.13997151773E+03  0.75173279884E+02 -0.29546705867E+03  0.33547552898E+03  0.00000000000E+00 0.  1.
<scales pt_clust_3="78.79957" pt_clust_4="89.31356" pt_clust_5="14000.00000" pt_clust_6="175.12411"></scales>
<clustering>
<clus scale="   89.314">  1  4  2 -1</clus>
<clus scale="   78.800">  1  3  2 -1</clus>
<clus scale="  175.124">  1  6  2 -1</clus>
<clus scale="   89.314">  1  3  2 -1</clus>
</clustering>
</event>
<event>
 6    0  0.1221518E+003  0.1710479E+03  0.7546771E-02  0.1176759E+00
         21   -1    0    0  505  501  0.00000000000E+00  0.00000000000E+00  0.64038983974E+02  0.64038983974E+02  0.00000000000E+00 0. -1.
         21   -1    0    0  504  502 -0.00000000000E+00 -0.00000000000E+00 -0.12688856202E+04  0.12688856202E+04  0.00000000000E+00 0.  1.
         21    1    1    2  503  506  0.66328163370E+02 -0.14320780233E+03 -0.67934999092E+03  0.69744125922E+03  0.00000000000E+00 0.  1.
         21    1    1    2  504  501 -0.64777480224E+02  0.14674589634E+03 -0.16877479481E+03  0.23284203100E+03  0.00000000000E+00 0.  1.
         21    1    1    2  505  503 -0.45966266257E+02  0.37222455817E+01 -0.31581093097E+01  0.46224737968E+02  0.00000000000E+00 0. -1.
         21    1    1    2  506  502  0.44415583112E+02 -0.72603395885E+01 -0.35356374115E+03  0.35641657595E+03  0.00000000000E+00 0.  1.
<scales pt_clust_3="14000.00000" pt_clust_4="171.04789" pt_clust_5="44.90491" pt_clust_6="45.00507"></scales>
<clustering>
<clus scale="   45.005">  2  6  1 -1</clus>
<clus scale="   44.905">  1  5  2 -1</clus>
<clus scale="  171.048">  1  4  2 -1</clus>
<clus scale="   44.905">  1  3  2 -1</clus>
</clustering>
</event>
<event>
 6    0  0.1221518E+003  0.2504611E+03  0.7546771E-02  0.1113014E+00
         21   -1    0    0  504  501  0.00000000000E+00  0.00000000000E+00  0.39524311965E+03  0.39524311965E+03  0.00000000000E+00 0.  1.
         21   -1    0    0  506  502 -0.00000000000E+00 -0.00000000000E+00 -0.50396882778E+03  0.50396882778E+03  0.00000000000E+00 0. -1.
         21    1    1    2  503  501 -0.36651540602E+02  0.11811661926E+02  0.13027430475E+02  0.40651749418E+02  0.00000000000E+00 0.  1.
         21    1    1    2  504  505 -0.12826604692E+03 -0.22191904067E+03  0.26424032835E+03  0.36813474508E+03  0.00000000000E+00 0.  1.
         21    1    1    2  505  502  0.48351790883E+02  0.83692090674E+02 -0.41076524019E+02  0.10502162896E+03  0.00000000000E+00 0. -1.
         21    1    1    2  506  503  0.11656579664E+03  0.12641528807E+03 -0.34491694294E+03  0.38540382397E+03  0.00000000000E+00 0. -1.
<scales pt_clust_3="38.50780" pt_clust_4="250.46109" pt_clust_5="96.00736" pt_clust_6="14000.00000"></scales>
<clustering>
<clus scale="   38.508">  1  3  2 -1</clus>
<clus scale="   96.007">  2  5  1 -1</clus>
<clus scale="  250.461">  1  4  2 -1</clus>
<clus scale="   38.508">  1  3  2 -1</clus>
</clustering>
</event>
<event>
 6    0  0.1221518E+003  0.9584665E+02  0.7546771E-02  0.1289281E+00
         21   -1    0    0  505  501  0.00000000000E+00  0.00000000000E+00  0.58412897135E+03  0.58412897135E+03  0.00000000000E+00 0. -1.
         21   -1    0    0  506  502 -0.00000000000E+00 -0.00000000000E+00 -0.21268462692E+03  0.21268462692E+03  0.00000000000E+00 0. -1.
         21    1    1    2  503  502  0.84246518593E+02  0.51813433628E+02  0.73221196931E+02  0.12305873183E+03  0.00000000000E+00 0. -1.
         21    1    1    2  504  501 -0.17250039616E+02 -0.87676179433E+02  0.19377008982E+03  0.21338117071E+03  0.00000000000E+00 0. -1.
         21    1    1    2  505  503  0.28590796080E+01 -0.34068013956E+02  0.26751598484E+03  0.26969168704E+03  0.00000000000E+00 0. -1.
         21    1    1    2  506  504 -0.69855558585E+02  0.69930759760E+02 -0.16306292716E+03  0.19068200870E+03  0.00000000000E+00 0. -1.
<scales pt_clust_3="94.58830" pt_clust_4="95.84665" pt_clust_5="34.18777" pt_clust_6="14000.00000"></scales>
<clustering>
<clus scale="   34.188">  1  5  2 -1</clus>
<clus scale="   94.588">  1  3  2 -1</clus>
<clus scale="   95.847">  1  4  2 -1</clus>
<clus scale="   34.188">  1  3  2 -1</clus>
</clustering>
</event>
<event>
 6    0  0.1221518E+003  0.2826662E+03  0.7546771E-02  0.1094242E+00
         21   -1    0    0  503  501  0.00000000000E+00  0.00000000000E+00  0.23332829874E+03  0.23332829874E+03  0.00000000000E+00 0. -1.
         21   -1    0    0  506  502 -0.00000000000E+00 -0.00000000000E+00 -0.80250129676E+03  0.80250129676E+03  0.00000000000E+00 0.  1.
         21    1    1    2  503  502 -0.12273949841E+02  0.27531092243E+02 -0.73031407667E+02  0.79007578058E+02  0.00000000000E+00 0. -1.
         21    1    1    2  504  505  0.22119116597E+03  0.12622821607E+03 -0.35759306305E+03  0.43901240663E+03  0.00000000000E+00 0.  1.
         21    1    1    2  505  501 -0.25055608799E+03 -0.14716732350E+03  0.75030069986E+02  0.30011012268E+03  0.00000000000E+00 0. -1.
         21    1    1    2  506  504  0.41638871861E+02 -0.65919848171E+01 -0.21357859729E+03  0.21769948813E+03  0.00000000000E+00 0.  1.
<scales pt_clust_3="30.14317" pt_clust_4="14000.00000" pt_clust_5="282.66619" pt_clust_6="38.02847"></scales>
<clustering>
<clus scale="   30.143">  2  3  1 -1</clus>
<clus scale="   38.028">  2  6  1 -1</clus>
<clus scale="  282.666">  1  5  2 -1</clus>
<clus scale="  282.666">  1  3  2 -1</clus>
</clustering>
</event>
<event>
 6    0  0.1221518E+003  0.1457038E+03  0.7546771E-02  0.1205854E+00
         21   -1    0    0  505  501  0.00000000000E+00  0.00000000000E+00  0.22794918751E+04  0.22794918751E+04  0.00000000000E+00 0. -1.
         21   -1    0    0  506  502 -0.00000000000E+00 -0.00000000000E+00 -0.46271714855E+02  0.46271714855E+02  0.00000000000E+00 0. -1.
         21    1    1    2  503  501  0.24862846471E+02 -0.59288421745E+02  0.14125787740E+04  0.14140410428E+04  0.00000000000E+00 0. -1.
         21    1    1    2  504  502 -0.30544857539E+02 -0.14554692165E+02 -0.34488894336E+01  0.34010619289E+02  0.00000000000E+00 0. -1.
         21    1    1    2  505  504 -0.11138011565E+03 -0.57746932759E+02  0.36789203806E+03  0.38869626969E+03  0.00000000000E+00 0. -1.
         21    1    1    2  506  503  0.11706212671E+03  0.13159004667E+03  0.45619823762E+03  0.48901565814E+03  0.00000000000E+00 0. -1.
<scales pt_clust_3="64.33956" pt_clust_4="33.83530" pt_clust_5="145.70380" pt_clust_6="14000.00000"></scales>
<clustering>
<clus scale="   33.835">  2  4  1 -1</clus>
<clus scale="   64.340">  1  3  2 -1</clus>
<clus scale="  145.704">  1  5  2 -1</clus>
<clus scale="   64.340">  1  3  2 -1</clus>
</clustering>
</event>
<event>
 6    0  0.1221518E+003  0.1162784E+03  0.7546771E-02  0.1249366E+00
         21   -1    0    0  504  501  0.00000000000E+00  0.00000000000E+00  0.60499010908E+03  0.60499010908E+03  0.00000000000E+00 0. -1.
         21   -1    0    0  503  502 -0.00000000000E+00 -0.00000000000E+00 -0.16915524734E+03  0.16915524734E+03  0.00000000000E+00 0. -1.
         21    1    1    2  503  505  0.19105821046E+02  0.34509365986E+02 -0.89320262968E+02  0.97642399168E+02  0.00000000000E+00 0. -1.
         21    1    1    2  504  502 -0.20032254972E+02 -0.15365693000E+03  0.67851187419E+02  0.16916124559E+03  0.00000000000E+00 0. -1.
         21    1    1    2  505  506 -0.39965367006E+02  0.15303759928E+02  0.69387697340E+01  0.43354148052E+02  0.00000000000E+00 0. -1.
         21    1    1    2  506  501  0.40891800932E+02  0.10384380408E+03  0.45036516756E+03  0.46398756361E+03  0.00000000000E+00 0. -1.
<scales pt_clust_3="39.44526" pt_clust_4="116.27836" pt_clust_5="42.52305" pt_clust_6="14000.00000"></scales>
<clustering>
<clus scale="   39.445">  2  3  1 -1</clus>
<clus scale="   42.523">  2  5  1 -1</clus>
<clus scale="  116.278">  2  4  1 -1</clus>
<clus scale="  116.278">  1  3  2 -1</clus>
</clustering>
</event>
<event>
 6    0  0.1221518E+003  0.1870858E+03  0.7546771E-02  0.1161116E+00
         21   -1    0    0  506  501  0.00000000000E+00  0.00000000000E+00  0.24930769624E+03  0.24930769624E+03  0.00000000000E+00 0. -1.
         21   -1    0    0  505  502 -0.00000000000E+00 -0.00000000000E+00 -0.40600205282E+03  0.40600205282E+03  0.00000000000E+00 0. -1.
         21    1    1    2  503  504 -0.47031136135E+02  0.57330553698E+01  0.22422550866E+02  0.52417234545E+02  0.00000000000E+00 0. -1.
         21    1    1    2  504  501 -0.11264649721E+03 -0.90781899147E+02  0.13777284710E+03  0.19977973857E+03  0.00000000000E+00 0. -1.
         21    1    1    2  505  503  0.50773587119E+02 -0.19747181000E+02 -0.21264322454E+03  0.21951093196E+03  0.00000000000E+00 0. -1.
         21    1    1    2  506  502  0.10890404623E+03  0.10479602478E+03 -0.10424653001E+03  0.18360184398E+03  0.00000000000E+00 0. -1.
<scales pt_clust_3="41.30840" pt_clust_4="41.30840" pt_clust_5="54.47851" pt_clust_6="172.59955"></scales>
<clustering>
<clus scale="   41.308">  3  4 -1 -1</clus>
<clus scale="   54.479">  2  5  1 -1</clus>
<clus scale="  172.600">  2  6  1 -1</clus>
<clus scale="  187.086">  1  3  2 -1</clus>
</clustering>
</event>
<event>
 6    0  0.1221518E+003  0.1319822E+03  0.7546771E-02  0.1224544E+00
         21   -1    0    0  506  501  0.00000000000E+00  0.00000000000E+00  0.12600699294E+03  0.12600699294E+03  0.00000000000E+00 0. -1.
         21   -1    0    0  504  502 -0.00000000000E+00 -0.00000000000E+00 -0.68208281550E+03  0.68208281550E+03  0.00000000000E+00 0.  1.
         21    1    1    2  503  501 -0.41411863446E+02  0.47748369204E+02  0.55908976912E+02  0.84384020378E+02  0.00000000000E+00 0. -1.
         21    1    1    2  504  505  0.39880801482E+02  0.65807391725E+01 -0.13091653009E+03  0.13701431424E+03  0.00000000000E+00 0.  1.
         21    1    1    2  505  503  0.13444622582E+03  0.30422894985E+02 -0.88897691483E+02  0.16402481436E+03  0.00000000000E+00 0.  1.
         21    1    1    2  506  502 -0.13291516385E+03 -0.84752003361E+02 -0.39217057790E+03  0.42266665947E+03  0.00000000000E+00 0.  1.
<scales pt_clust_3="62.66161" pt_clust_4="40.42010" pt_clust_5="14000.00000" pt_clust_6="131.98215"></scales>
<clustering>
<clus scale="   40.420">  2  4  1 -1</clus>
<clus scale="   62.662">  1  3  2 -1</clus>
<clus scale="  131.982">  2  6  1 -1</clus>
<clus scale="   62.662">  1  3  2 -1</clus>
</clustering>
</event>
<event>
 6    0  0.1221518E+003  0.9732949E+02  0.7546771E-02  0.1286014E+00
         21   -1    0    0  503  501  0.00000000000E+00  0.00000000000E+00  0.20447895569E+03  0.20447895569E+03  0.00000000000E+00 0. -1.
         21   -1    0    0  504  502 -0.00000000000E+00 -0.00000000000E+00 -0.74685972990E+03  0.74685972990E+03  0.00000000000E+00 0. -1.
         21    1    1    2  503  506  0.37511800541E+02 -0.28107381202E+02  0.10804441369E+03  0.11777417114E+03  0.00000000000E+00 0. -1.
         21    1    1    2  504  501 -0.75137754366E+02 -0.65244246861E+02 -0.43844128900E+02  0.10874190323E+03  0.00000000000E+00 0. -1.
         21    1    1    2  505  502 -0.32316892882E+02  0.35737261807E+02 -0.62950890670E+03  0.63135013824E+03  0.00000000000E+00 0. -1.
         21    1    1    2  506  505  0.69942846707E+02  0.57614366255E+02  0.22927847696E+02  0.93472472977E+02  0.00000000000E+00 0.  1.
<scales pt_clust_3="46.87387" pt_clust_4="14000.00000" pt_clust_5="47.71983" pt_clust_6="97.32949"></scales>
<clustering>
<clus scale="   46.874">  1  3  2 -1</clus>
<clus scale="   47.720">  2  5  1 -1</clus>
<clus scale="   97.329">  1  6  2 -1</clus>
<clus scale="   46.874">  1  3  2 -1</clus>
</clustering>
</event>
<event>
 6    0  0.1221518E+003  0.1053713E+03  0.7546771E-02  0.1269390E+00
         21   -1    0    0  503  501  0.00000000000E+00  0.00000000000E+00  0.21756139003E+03  0.21756139003E+03  0.00000000000E+00 0. -1.
         21   -1    0    0  505  502 -0.00000000000E+00 -0.00000000000E+00 -0.36975331099E+03  0.36975331099E+03  0.00000000000E+00 0. -1.
         21    1    1    2  503  504 -0.18193024754E+02  0.42964259979E+02  0.51501052061E+02  0.69492964741E+02  0.00000000000E+00 0.  1.
         21    1    1    2  504  502  0.63969111319E+02  0.86001752355E+02 -0.30965755160E+03  0.32768299906E+03  0.00000000000E+00 0. -1.
         21    1    1    2  505  506 -0.40678265321E+02 -0.85458845554E+02  0.24694459993E+02  0.97814885919E+02  0.00000000000E+00 0. -1.
         21    1    1    2  506  501 -0.50978212446E+01 -0.43507166779E+02  0.81270118589E+02  0.92323851296E+02  0.00000000000E+00 0. -1.
<scales pt_clust_3="30.72212" pt_clust_4="14000.00000" pt_clust_5="105.37126" pt_clust_6="43.80481"></scales>
<clustering>
<clus scale="   43.805">  1  6  2 -1</clus>
<clus scale="   30.722">  1  3  2 -1</clus>
<clus scale="  105.371">  1  5  2 -1</clus>
<clus scale="   43.805">  1  3  2 -1</clus>
</clustering>
</event>
<event>
 6    0  0.1221518E+003  0.8978503E+02  0.7546771E-02  0.1303373E+00
         21   -1    0    0  506  501  0.00000000000E+00  0.00000000000E+00  0.32682860235E+02  0.32682860235E+02  0.00000000000E+00 0.  1.
         21   -1    0    0  503  502 -0.00000000000E+00 -0.00000000000E+00 -0.12513628455E+04  0.12513628455E+04  0.00000000000E+00 0.  1.
         21    1    1    2  503  504 -0.33799130948E+02  0.84783488965E+01 -0.40645287950E+03  0.40794387715E+03  0.00000000000E+00 0.  1.
         21    1    1    2  504  501 -0.36276086077E+02 -0.10888965302E+03 -0.14723692725E+03  0.18668589583E+03  0.00000000000E+00 0.  1.
         21    1    1    2  505  502  0.70208274031E+02  0.66279459344E+02 -0.63967481324E+03  0.64692042414E+03  0.00000000000E+00 0.  1.
         21    1    1    2  506  505 -0.13305700612E+00  0.34131844776E+02 -0.25315365230E+02  0.42495508570E+02  0.00000000000E+00 0.  1.
<scales pt_clust_3="35.12216" pt_clust_4="89.78503" pt_clust_5="14000.00000" pt_clust_6="34.13210"></scales>
<clustering>
<clus scale="   34.132">  1  6  2 -1</clus>
<clus scale="   35.122">  2  3  1 -1</clus>
<clus scale="   89.785">  1  4  2 -1</clus>
<clus scale="   34.132">  1  3  2 -1</clus>
</clustering>
</event>
<event>
 6    0  0.1221518E+003  0.1086653E+03  0.7546771E-02  0.1263062E+00
         21   -1    0    0  505  501  0.00000000000E+00  0.00000000000E+00  0.79261522687E+03  0.79261522687E+03  0.00000000000E+00 0.  1.
         21   -1    0    0  503  502 -0.00000000000E+00 -0.00000000000E+00 -0.37211787732E+03  0.37211787732E+03  0.00000000000E+00 0. -1.
         21    1    1    2  503  506 -0.55602235725E+02  0.27435023815E+02 -0.30550204144E+03  0.31173031048E+03  0.00000000000E+00 0. -1.
         21    1    1    2  504  502 -0.54437310304E+02 -0.25067008685E+01 -0.42649619411E+02  0.69200392617E+02  0.00000000000E+00 0. -1.
         21    1    1    2  505  504  0.71419580694E+02  0.36954815376E+02  0.40918555013E+03  0.41701226519E+03  0.00000000000E+00 0.  1.
         21    1    1    2  506  501  0.38619965335E+02 -0.61883138322E+02  0.35946346027E+03  0.36679013591E+03  0.00000000000E+00 0.  1.
<scales pt_clust_3="14000.00000" pt_clust_4="54.49499" pt_clust_5="108.66526" pt_clust_6="72.63816"></scales>
<clustering>
<clus scale="   54.495">  2  4  1 -1</clus>
<clus scale="   72.638">  1  6  2 -1</clus>
<clus scale="  108.665">  1  5  2 -1</clus>
<clus scale="   72.638">  1  3  2 -1</clus>
</clustering>
</event>
<event>
 6    0  0.1221518E+003  0.7611148E+02  0.7546771E-02  0.1340463E+00
         21   -1    0    0  503  501  0.00000000000E+00  0.00000000000E+00  0.22935276833E+04  0.22935276833E+04  0.00000000000E+00 0.  1.
         21   -1    0    0  505  502 -0.00000000000E+00 -0.00000000000E+00 -0.38392480352E+02  0.38392480352E+02  0.00000000000E+00 0. -1.
         21    1    1    2  503  506 -0.39547876270E+02 -0.33189604522E+00  0.11758761619E+04  0.11765410715E+04  0.00000000000E+00 0.  1.
         21    1    1    2  504  502  0.73018563392E+02 -0.15745407045E+02  0.13769113670E+02  0.75955361458E+02  0.00000000000E+00 0. -1.
         21    1    1    2  505  501  0.66921557435E+02  0.71187408670E+01  0.30864576420E+03  0.31589773516E+03  0.00000000000E+00 0. -1.
         21    1    1    2  506  504 -0.10039224456E+03  0.89585622231E+01  0.75684416314E+03  0.76352599555E+03  0.00000000000E+00 0.  1.
<scales pt_clust_3="39.54927" pt_clust_4="14000.00000" pt_clust_5="56.30865" pt_clust_6="76.11148"></scales>
<clustering>
<clus scale="   39.549">  1  3  2 -1</clus>
<clus scale="   56.309">  1  5  2 -1</clus>
<clus scale="   76.111">  1  6  2 -1</clus>
<clus scale="   39.549">  1  3  2 -1</clus>
</clustering>
</event>
<event>
 6    0  0.1221518E+003  0.9629267E+02  0.7546771E-02  0.1288291E+00
         21   -1    0    0  506  501  0.00000000000E+00  0.00000000000E+00  0.20649455094E+04  0.20649455094E+04  0.00000000000E+00 0.  1.
         21   -1    0    0  504  502 -0.00000000000E+00 -0.00000000000E+00 -0.28282118090E+02  0.28282118090E+02  0.00000000000E+00 0.  1.
         21    1    1    2  503  505  0.70528600396E+02  0.29496401056E+02  0.10980480023E+04  0.11007060173E+04  0.00000000000E+00 0.  1.
         21    1    1    2  504  503  0.54180857376E+02 -0.43010954373E+02  0.53017380854E+02  0.87157043174E+02  0.00000000000E+00 0.  1.
         21    1    1    2  505  501  0.21491325724E+02 -0.21352367982E+02  0.26952907126E+03  0.27122632791E+03  0.00000000000E+00 0.  1.
         21    1    1    2  506  502 -0.14620078350E+03  0.34866921299E+02  0.61606893695E+03  0.63413823916E+03  0.00000000000E+00 0.  1.
<scales pt_clust_3="14000.00000" pt_clust_4="70.35337" pt_clust_5="30.29523" pt_clust_6="96.29267"></scales>
<clustering>
<clus scale="   30.295">  1  5  2 -1</clus>
<clus scale="   70.353">  2  4  1 -1</clus>
<clus scale="   96.293">  2  6  1 -1</clus>
<clus scale="   30.295">  1  3  2 -1</clus>
</clustering>
</event>
<event>
 6    0  0.1221518E+003  0.9609086E+02  0.7546771E-02  0.1288738E+00
         21   -1    0    0  503  501  0.00000000000E+00  0.00000000000E+00  0.12122921271E+03  0.12122921271E+03  0.00000000000E+00 0. -1.
         21   -1    0    0  505  502 -0.00000000000E+00 -0.00000000000E+00 -0.53461906842E+03  0.53461906842E+03  0.00000000000E+00 0. -1.
         21    1    1    2  503  502  0.20873273061E+02 -0.44484631002E+02 -0.52309347142E+02  0.71769378722E+02  0.00000000000E+00 0. -1.
         21    1    1    2  504  506 -0.10994495597E+03 -0.27807677876E+02 -0.12170770248E+03  0.16635481699E+03  0.00000000000E+00 0.  1.
         21    1    1    2  505  504 -0.35196797925E+01  0.91708087814E+02 -0.29433557504E+03  0.30831184254E+03  0.00000000000E+00 0. -1.
         21    1    1    2  506  501  0.92591362704E+02 -0.19415778936E+02  0.54962768950E+02  0.10941224287E+03  0.00000000000E+00 0. -1.
<scales pt_clust_3="49.13833" pt_clust_4="96.09086" pt_clust_5="64.09602" pt_clust_6="14000.00000"></scales>
<clustering>
<clus scale="   49.138">  2  3  1 -1</clus>
<clus scale="   64.096">  2  5  1 -1</clus>
<clus scale="   96.091">  2  4  1 -1</clus>
<clus scale="   96.091">  1  3  2 -1</clus>
</clustering>
</event>
<event>
 6    0  0.1221518E+003  0.8471958E+02  0.7546771E-02  0.1316167E+00
         21   -1    0    0  503  501  0.00000000000E+00  0.00000000000E+00  0.17066897988E+04  0.17066897988E+04  0.00000000000E+00 0.  1.
         21   -1    0    0  505  502 -0.00000000000E+00 -0.00000000000E+00 -0.22329503191E+02  0.22329503191E+02  0.00000000000E+00 0.  1.
         21    1    1    2  503  504 -0.39851909735E+02 -0.87486683283E+02  0.26432302312E+03  0.28126278640E+03  0.00000000000E+00 0.  1.
         21    1    1    2  504  502  0.32807587002E+02 -0.28747928703E+02  0.11275090108E+03  0.12089477600E+03  0.00000000000E+00 0.  1.
         21    1    1    2  505  506  0.83593106054E+01  0.32101010406E+02  0.24301951785E+02  0.41121014135E+02  0.00000000000E+00 0.  1.
         21    1    1    2  506  501 -0.13149878726E+01  0.84133601579E+02  0.12829844197E+04  0.12857407255E+04  0.00000000000E+00 0.  1.
<scales pt_clust_3="84.71958" pt_clust_4="40.21794" pt_clust_5="33.17157" pt_clust_6="14000.00000"></scales>
<clustering>
<clus scale="   33.172">  2  5  1 -1</clus>
<clus scale="   40.218">  2  4  1 -1</clus>
<clus scale="   84.720">  2  3  1 -1</clus>
<clus scale="   84.720">  1  3  2 -1</clus>
</clustering>
</event>
<event>
 6    0  0.1221518E+003  0.7539160E+02  0.7546771E-02  0.1342663E+00
         21   -1    0    0  503  501  0.00000000000E+00  0.00000000000E+00  0.20498746694E+04  0.20498746694E+04  0.00000000000E+00 0. -1.
         21   -1    0    0  504  502 -0.00000000000E+00 -0.00000000000E+00 -0.21136652102E+02  0.21136652102E+02  0.00000000000E+00 0. -1.
         21    1    1    2  503  505  0.67574883342E+02  0.31799847213E+02  0.75356751452E+03  0.75725926477E+03  0.00000000000E+00 0. -1.
         21    1    1    2  504  506 -0.22941662520E+02  0.82038463719E+02  0.11356406131E+03  0.14196276071E+03  0.00000000000E+00 0. -1.
         21    1    1    2  505  502 -0.12082760576E+02 -0.33333036362E+02  0.90940808538E+02  0.97607966242E+02  0.00000000000E+00 0. -1.
         21    1    1    2  506  501 -0.32550460247E+02 -0.80505274570E+02  0.10706656330E+04  0.10741813298E+04  0.00000000000E+00 0. -1.
<scales pt_clust_3="75.39160" pt_clust_4="64.31464" pt_clust_5="35.45539" pt_clust_6="14000.00000"></scales>
<clustering>
<clus scale="   35.455">  2  5  1 -1</clus>
<clus scale="   64.315">  2  4  1 -1</clus>
<clus scale="   75.392">  2  3  1 -1</clus>
<clus scale="   75.392">  1  3  2 -1</clus>
</clustering>
</event>
<event>
 6    0  0.1221518E+003  0.7864696E+02  0.7546771E-02  0.1332936E+00
         21   -1    0    0  506  501  0.00000000000E+00  0.00000000000E+00  0.52480611530E+03  0.52480611530E+03  0.00000000000E+00 0.  1.
         21   -1    0    0  503  502 -0.00000000000E+00 -0.00000000000E+00 -0.90965589092E+02  0.90965589092E+02  0.00000000000E+00 0.  1.
         21    1    1    2  503  505 -0.27636165318E+02  0.75692801287E+02 -0.29725043451E+02  0.85887927024E+02  0.00000000000E+00 0.  1.
         21    1    1    2  504  502  0.53868188996E+02 -0.57129524022E+02  0.46229364335E+02  0.91119253879E+02  0.00000000000E+00 0.  1.
         21    1    1    2  505  501 -0.40235206412E+02  0.47459773445E+02  0.13779422367E+03  0.15119044284E+03  0.00000000000E+00 0.  1.
         21    1    1    2  506  504  0.14003182734E+02 -0.66023050710E+02  0.27954198166E+03  0.28757408065E+03  0.00000000000E+00 0.  1.
<scales pt_clust_3="78.64696" pt_clust_4="14000.00000" pt_clust_5="62.21979" pt_clust_6="34.56187"></scales>
<clustering>
<clus scale="   62.220">  1  5  2 -1</clus>
<clus scale="   34.562">  1  6  2 -1</clus>
<clus scale="   78.647">  2  3  1 -1</clus>
<clus scale="   62.220">  1  3  2 -1</clus>
</clustering>
</event>
<event>
 6    0  0.1221518E+003  0.9216806E+02  0.7546771E-02  0.1297685E+00
         21   -1    0    0  504  501  0.00000000000E+00  0.00000000000E+00  0.12457216532E+03  0.12457216532E+03  0.00000000000E+00 0.  1.
         21   -1    0    0  503  502 -0.00000000000E+00 -0.00000000000E+00 -0.73090825767E+03  0.73090825767E+03  0.00000000000E+00 0.  1.
         21    1    1    2  503  506 -0.11171871935E+02  0.29376060655E+02 -0.51149841570E+03  0.51246306493E+03  0.00000000000E+00 0.  1.
         21    1    1    2  504  505  0.68797564733E+02  0.63423562560E+02  0.57647995662E+01  0.93749059276E+02  0.00000000000E+00 0.  1.
         21    1    1    2  505  502  0.48771701432E+02 -0.94419821125E+02 -0.95271604811E+02  0.14272512100E+03  0.00000000000E+00 0.  1.
         21    1    1    2  506  501 -0.10639739423E+03  0.16201979096E+01 -0.53308714039E+01  0.10654317777E+03  0.00000000000E+00 0.  1.
<scales pt_clust_3="31.42871" pt_clust_4="92.16806" pt_clust_5="89.31968" pt_clust_6="14000.00000"></scales>
<clustering>
<clus scale="   31.429">  2  3  1 -1</clus>
<clus scale="   89.320">  2  5  1 -1</clus>
<clus scale="   92.168">  1  4  2 -1</clus>
<clus scale="   92.168">  1  3  2 -1</clus>
</clustering>
</event>
<event>
 6    0  0.1221518E+003  0.1086427E+03  0.7546771E-02  0.1263104E+00
         21   -1    0    0  505  501  0.00000000000E+00  0.00000000000E+00  0.20033089864E+04  0.20033089864E+04  0.00000000000E+00 0.  1.
         21   -1    0    0  506  502 -0.00000000000E+00 -0.00000000000E+00 -0.74018807868E+02  0.74018807868E+02  0.00000000000E+00 0.  1.
         21    1    1    2  503  501  0.21291230151E+02 -0.27129384299E+02  0.63331105058E+03  0.63424932539E+03  0.00000000000E+00 0.  1.
         21    1    1    2  504  502  0.76117564737E+02 -0.43862587078E+02 -0.34413315811E+02  0.94350869163E+02  0.00000000000E+00 0.  1.
         21    1    1    2  505  504 -0.12191610141E+03  0.11569249960E+03  0.92534404971E+03  0.94048386513E+03  0.00000000000E+00 0.  1.
         21    1    1    2  506  503  0.24507306518E+02 -0.44700528222E+02  0.40504839409E+03  0.40824373461E+03  0.00000000000E+00 0. -1.
<scales pt_clust_3="30.15770" pt_clust_4="87.85107" pt_clust_5="102.26843" pt_clust_6="30.15770"></scales>
<clustering>
<clus scale="   30.158">  3  6 -1 -1</clus>
<clus scale="   87.851">  2  4  1 -1</clus>
<clus scale="  102.268">  2  5  1 -1</clus>
<clus scale="  108.643">  1  3  2 -1</clus>
</clustering>
</event>
<event>
 6    0  0.1221518E+003  0.1229175E+03  0.7546771E-02  0.1238360E+00
         21   -1    0    0  503  501  0.00000000000E+00  0.00000000000E+00  0.22846021271E+04  0.22846021271E+04  0.00000000000E+00 0.  1.
         21   -1    0    0  505  502 -0.00000000000E+00 -0.00000000000E+00 -0.37412761136E+03  0.37412761136E+03  0.00000000000E+00 0. -1.
         21    1    1    2  503  506 -0.10433829957E+03  0.41282002347E+02  0.72561534010E+03  0.73423995142E+03  0.00000000000E+00 0.  1.
         21    1    1    2  504  502 -0.47550955168E+02  0.10409806945E+03 -0.23920438379E+03  0.26517209247E+03  0.00000000000E+00 0. -1.
         21    1    1    2  505  501 -0.17597761174E+02 -0.35159878946E+02  0.14543555403E+04  0.14548869152E+04  0.00000000000E+00 0.  1.
         21    1    1    2  506  504  0.16948701591E+03 -0.11022019285E+03 -0.30291980858E+02  0.20443077943E+03  0.00000000000E+00 0. -1.
<scales pt_clust_3="122.91749" pt_clust_4="114.05940" pt_clust_5="39.31791" pt_clust_6="14000.00000"></scales>
<clustering>
<clus scale="   39.318">  1  5  2 -1</clus>
<clus scale="  114.059">  2  4  1 -1</clus>
<clus scale="  122.917">  1  3  2 -1</clus>
<clus scale="   39.318">  1  3  2 -1</clus>
</clustering>
</event>
<event>
 6    0  0.1221518E+003  0.1204128E+03  0.7546771E-02  0.1242418E+00
         21   -1    0    0  504  501  0.00000000000E+00  0.00000000000E+00  0.12722260545E+03  0.12722260545E+03  0.00000000000E+00 0.  1.
         21   -1    0    0  503  502 -0.00000000000E+00 -0.00000000000E+00 -0.38770645352E+03  0.38770645352E+03  0.00000000000E+00 0. -1.
         21    1    1    2  503  505  0.49460558473E+02 -0.14295863544E+03 -0.97044302307E+02  0.17972510927E+03  0.00000000000E+00 0. -1.
         21    1    1    2  504  506  0.46906582907E+02  0.10067133960E+03 -0.55601053242E+02  0.12420315317E+03  0.00000000000E+00 0. -1.
         21    1    1    2  505  501  0.92001441337E+01  0.37000022727E+02  0.21653417209E+02  0.43846491430E+02  0.00000000000E+00 0.  1.
         21    1    1    2  506  502 -0.10556728551E+03  0.52872731141E+01 -0.12949190973E+03  0.16715430510E+03  0.00000000000E+00 0. -1.
<scales pt_clust_3="14000.00000" pt_clust_4="120.41277" pt_clust_5="38.12669" pt_clust_6="104.50340"></scales>
<clustering>
<clus scale="   38.127">  1  5  2 -1</clus>
<clus scale="  104.503">  2  6  1 -1</clus>
<clus scale="  120.413">  1  4  2 -1</clus>
<clus scale="   38.127">  1  3  2 -1</clus>
</clustering>
</event>
<event>
 6    0  0.1221518E+003  0.1810480E+03  0.7546771E-02  0.1166793E+00
         21   -1    0    0  504  501  0.00000000000E+00  0.00000000000E+00  0.11600314190E+04  0.11600314190E+04  0.00000000000E+00 0. -1.
         21   -1    0    0  506  502 -0.00000000000E+00 -0.00000000000E+00 -0.88099899236E+03  0.88099899236E+03  0.00000000000E+00 0.  1.
         21    1    1    2  503  505  0.59728881341E+02 -0.19742247070E+03 -0.76806464194E+02  0.22009635196E+03  0.00000000000E+00 0. -1.
         21    1    1    2  504  502  0.26762400719E+02  0.17109120926E+02  0.99380284413E+03  0.99431033441E+03  0.00000000000E+00 0. -1.
         21    1    1    2  505  501 -0.76258859271E+02  0.14819535873E+03  0.19942716528E+02  0.16785407326E+03  0.00000000000E+00 0. -1.
         21    1    1    2  506  503 -0.10232422788E+02  0.32117991045E+02 -0.65790666983E+03  0.65876965172E+03  0.00000000000E+00 0.  1.
<scales pt_clust_3="14000.00000" pt_clust_4="31.76394" pt_clust_5="181.04796" pt_clust_6="33.72993"></scales>
<clustering>
<clus scale="   31.764">  1  4  2 -1</clus>
<clus scale="   33.730">  2  6  1 -1</clus>
<clus scale="  181.048">  1  5  2 -1</clus>
<clus scale="   31.764">  1  3  2 -1</clus>
</clustering>
</event>
<event>
 6    0  0.1221518E+003  0.7408302E+02  0.7546771E-02  0.1346734E+00
         21   -1    0    0  505  501  0.00000000000E+00  0.00000000000E+00  0.14518665652E+04  0.14518665652E+04  0.00000000000E+00 0. -1.
         21   -1    0    0  503  502 -0.00000000000E+00 -0.00000000000E+00 -0.12449515209E+03  0.12449515209E+03  0.00000000000E+00 0.  1.
         21    1    1    2  503  501 -0.12897232359E+02 -0.27968285525E+02  0.67096176144E+03  0.67166825808E+03  0.00000000000E+00 0. -1.
         21    1    1    2  504  506 -0.11735584434E+03 -0.64961807225E+02  0.51239067354E+02  0.14358924968E+03  0.00000000000E+00 0.  1.
         21    1    1    2  505  504  0.65888817256E+02  0.68858070199E+02  0.66390184575E+03  0.67070741077E+03  0.00000000000E+00 0.  1.
         21    1    1    2  506  502  0.64364259446E+02  0.24072022551E+02 -0.58731261407E+02  0.90396798783E+02  0.00000000000E+00 0.  1.
<scales pt_clust_3="30.79876" pt_clust_4="14000.00000" pt_clust_5="74.08302" pt_clust_6="68.27607"></scales>
<clustering>
<clus scale="   30.799">  1  3  2 -1</clus>
<clus scale="   68.276">  2  6  1 -1</clus>
<clus scale="   74.083">  1  5  2 -1</clus>
<clus scale="   30.799">  1  3  2 -1</clus>
</clustering>
</event>
<event>
 6    0  0.1221518E+003  0.1066582E+03  0.7546771E-02  0.1266887E+00
         21   -1    0    0  505  501  0.00000000000E+00  0.00000000000E+00  0.35434200908E+03  0.35434200908E+03  0.00000000000E+00 0.  1.
         21   -1    0    0  504  502 -0.00000000000E+00 -0.00000000000E+00 -0.68408727401E+03  0.68408727401E+03  0.00000000000E+00 0.  1.
         21    1    1    2  503  502  0.38187142994E+01  0.61746289837E+02 -0.21531237108E+03  0.22402366845E+03  0.00000000000E+00 0. -1.
         21    1    1    2  504  506 -0.80295251488E+02  0.17750415139E+02 -0.44839298344E+03  0.45587133300E+03  0.00000000000E+00 0.  1.
         21    1    1    2  505  503  0.58627171768E+02 -0.24188173348E+02  0.23837639134E+03  0.24666884065E+03  0.00000000000E+00 0.  1.
         21    1    1    2  506  501  0.17849365421E+02 -0.55308531628E+02  0.95583698246E+02  0.11186544099E+03  0.00000000000E+00 0.  1.
<scales pt_clust_3="60.92512" pt_clust_4="14000.00000" pt_clust_5="106.65817" pt_clust_6="58.11741"></scales>
<clustering>
<clus scale="   58.117">  1  6  2 -1</clus>
<clus scale="   60.925">  2  3  1 -1</clus>
<clus scale="  106.658">  1  5  2 -1</clus>
<clus scale="   58.117">  1  3  2 -1</clus>
</clustering>
</event>
<event>
 6    0  0.1221518E+003  0.6488778E+02  0.7546771E-02  0.1378394E+00
         21   -1    0    0  503  501  0.00000000000E+00  0.00000000000E+00  0.71917458474E+03  0.71917458474E+03  0.00000000000E+00 0. -1.
         21   -1    0    0  505  502 -0.00000000000E+00 -0.00000000000E+00 -0.54600338092E+02  0.54600338092E+02  0.00000000000E+00 0.  1.
         21    1    1    2  503  502  0.30396155965E+02 -0.37217500071E+02  0.17563407424E+02  0.51161918351E+02  0.00000000000E+00 0.  1.
         21    1    1    2  504  506  0.47326169287E+02  0.10670107852E+03  0.25510681047E+03  0.28054299350E+03  0.00000000000E+00 0. -1.
         21    1    1    2  505  504 -0.38980183234E+02 -0.27451188243E+02  0.17057155208E+01  0.47706727894E+02  0.00000000000E+00 0. -1.
         21    1    1    2  506  501 -0.38742142017E+02 -0.42032390206E+02  0.39019831323E+03  0.39436328308E+03  0.00000000000E+00 0. -1.
<scales pt_clust_3="52.70652" pt_clust_4="14000.00000" pt_clust_5="47.67622" pt_clust_6="64.88778"></scales>
<clustering>
<clus scale="   47.676">  2  5  1 -1</clus>
<clus scale="   52.707">  2  3  1 -1</clus>
<clus scale="   64.888">  1  6  2 -1</clus>
<clus scale="   64.888">  1  3  2 -1</clus>
</clustering>
</event>
<event>
 6    0  0.1221518E+003  0.9188023E+02  0.7546771E-02  0.1298361E+00
         21   -1    0    0  505  501  0.00000000000E+00  0.00000000000E+00  0.12320175275E+04  0.12320175275E+04  0.00000000000E+00 0.  1.
         21   -1    0    0  504  502 -0.00000000000E+00 -0.00000000000E+00 -0.45780930678E+02  0.45780930678E+02  0.00000000000E+00 0.  1.
         21    1    1    2  503  501  0.42860797666E+02 -0.54706848177E+02  0.27906147024E+03  0.28758510286E+03  0.00000000000E+00 0.  1.
         21    1    1    2  504  503  0.42633751650E+02  0.37991092111E+02 -0.22426037074E+01  0.57148833155E+02  0.00000000000E+00 0.  1.
         21    1    1    2  505  506 -0.90715826006E+02 -0.38258908817E+02  0.83291364238E+03  0.83871225153E+03  0.00000000000E+00 0.  1.
         21    1    1    2  506  502  0.52212766902E+01  0.54974664883E+02  0.76504087933E+02  0.94352270665E+02  0.00000000000E+00 0. -1.
<scales pt_clust_3="65.01456" pt_clust_4="91.88023" pt_clust_5="14000.00000" pt_clust_6="55.22206"></scales>
<clustering>
<clus scale="   55.222">  2  6  1 -1</clus>
<clus scale="   65.015">  1  3  2 -1</clus>
<clus scale="   91.880">  2  4  1 -1</clus>
<clus scale="   65.015">  1  3  2 -1</clus>
</clustering>
</event>
<event>
 6    0  0.1221518E+003  0.1022848E+03  0.7546771E-02  0.1275563E+00
         21   -1    0    0  506  501  0.00000000000E+00  0.00000000000E+00  0.93237569527E+03  0.93237569527E+03  0.00000000000E+00 0. -1.
         21   -1    0    0  503  502 -0.00000000000E+00 -0.00000000000E+00 -0.12858042083E+03  0.12858042083E+03  0.00000000000E+00 0. -1.
         21    1    1    2  503  505 -0.73552147434E+02 -0.54689602040E+02 -0.30116980071E+02  0.96477476398E+02  0.00000000000E+00 0. -1.
         21    1    1    2  504  502  0.73953743163E+02  0.11446782311E+03  0.36325622506E+02  0.14103754644E+03  0.00000000000E+00 0. -1.
         21    1    1    2  505  501 -0.55378413457E+02 -0.32922087347E+02  0.77595518540E+02  0.10085483137E+03  0.00000000000E+00 0. -1.
         21    1    1    2  506  504  0.54976817728E+02 -0.26856133725E+02  0.71999111347E+03  0.72258626189E+03  0.00000000000E+00 0. -1.
<scales pt_clust_3="14000.00000" pt_clust_4="102.28475" pt_clust_5="54.70988" pt_clust_6="61.18580"></scales>
<clustering>
<clus scale="   61.186">  1  6  2 -1</clus>
<clus scale="   54.710">  1  5  2 -1</clus>
<clus scale="  102.285">  1  4  2 -1</clus>
<clus scale="   61.186">  1  3  2 -1</clus>
</clustering>
</event>
<event>
 6    0  0.1221518E+003  0.2155964E+03  0.7546771E-02  0.1137209E+00
         21   -1    0    0  504  501  0.00000000000E+00  0.00000000000E+00  0.12219488944E+03  0.12219488944E+03  0.00000000000E+00 0. -1.
         21   -1    0    0  505  502 -0.00000000000E+00 -0.00000000000E+00 -0.16644790130E+04  0.16644790130E+04  0.00000000000E+00 0.  1.
         21    1    1    2  503  502 -0.50482956166E+01 -0.49954136008E+02 -0.88508798487E+03  0.88651093730E+03  0.00000000000E+00 0.  1.
         21    1    1    2  504  503  0.17782354097E+03  0.15115816308E+03 -0.39204823899E+03  0.45625850533E+03  0.00000000000E+00 0. -1.
         21    1    1    2  505  506 -0.15300338307E+03 -0.13146198413E+03 -0.31996352229E+03  0.37824455594E+03  0.00000000000E+00 0.  1.
         21    1    1    2  506  501 -0.19771862281E+02  0.30257957065E+02  0.54815622553E+02  0.65659903896E+02  0.00000000000E+00 0. -1.
<scales pt_clust_3="49.88638" pt_clust_4="14000.00000" pt_clust_5="215.59637" pt_clust_6="36.14513"></scales>
<clustering>
<clus scale="   36.145">  1  6  2 -1</clus>
<clus scale="   49.886">  2  3  1 -1</clus>
<clus scale="  215.596">  1  5  2 -1</clus>
<clus scale="   36.145">  1  3  2 -1</clus>
</clustering>
</event>
<event>
 6    0  0.1221518E+003  0.6039106E+02  0.7546771E-02  0.1396198E+00
         21   -1    0    0  505  501  0.00000000000E+00  0.00000000000E+00  0.16833018079E+03  0.16833018079E+03  0.00000000000E+00 0. -1.
         21   -1    0    0  504  502 -0.00000000000E+00 -0.00000000000E+00 -0.73474031383E+03  0.73474031383E+03  0.00000000000E+00 0. -1.
         21    1    1    2  503  501  0.14583606023E+02 -0.37688072004E+02  0.10535573411E+03  0.11284016593E+03  0.00000000000E+00 0. -1.
         21    1    1    2  504  503  0.92436420868E+02  0.36461691255E+02 -0.16285179145E+03  0.19077382632E+03  0.00000000000E+00 0. -1.
         21    1    1    2  505  506 -0.53774227375E+02  0.19435456118E+02  0.25128881656E+02  0.62456906564E+02  0.00000000000E+00 0. -1.
         21    1    1    2  506  502 -0.53245799516E+02 -0.18209075369E+02 -0.53404295736E+03  0.53699959581E+03  0.00000000000E+00 0. -1.
<scales pt_clust_3="40.41129" pt_clust_4="14000.00000" pt_clust_5="43.81044" pt_clust_6="60.39106"></scales>
<clustering>
<clus scale="   40.411">  1  3  2 -1</clus>
<clus scale="   43.810">  1  5  2 -1</clus>
<clus scale="   60.391">  2  6  1 -1</clus>
<clus scale="   40.411">  1  3  2 -1</clus>
</clustering>
</event>
<event>
 6    0  0.1221518E+003  0.1307819E+03  0.7546771E-02  0.1226300E+00
         21   -1    0    0  506  501  0.00000000000E+00  0.00000000000E+00  0.42489935963E+03  0.42489935963E+03  0.00000000000E+00 0.  1.
         21   -1    0    0  503  502 -0.00000000000E+00 -0.00000000000E+00 -0.10279967977E+04  0.10279967977E+04  0.00000000000E+00 0.  1.
         21    1    1    2  503  505 -0.68163919240E+02  0.11295518374E+03 -0.91834251295E+03  0.92777053441E+03  0.00000000000E+00 0.  1.
         21    1    1    2  504  501  0.61489465297E+02 -0.13197896717E+02  0.26812940861E+03  0.27540609758E+03  0.00000000000E+00 0.  1.
         21    1    1    2  505  504 -0.34459800960E+02 -0.15085515033E+03 -0.19813621538E+02  0.15600427514E+03  0.00000000000E+00 0.  1.
         21    1    1    2  506  502  0.41134254903E+02  0.51097863310E+02  0.66929287793E+02  0.93715250230E+02  0.00000000000E+00 0.  1.
<scales pt_clust_3="14000.00000" pt_clust_4="62.88989" pt_clust_5="130.78187" pt_clust_6="85.65718"></scales>
<clustering>
<clus scale="   62.890">  1  4  2 -1</clus>
<clus scale="   85.657">  1  6  2 -1</clus>
<clus scale="  130.782">  1  5  2 -1</clus>
<clus scale="   62.890">  1  3  2 -1</clus>
</clustering>
</event>
<event>
 6    0  0.1221518E+003  0.8019214E+02  0.7546771E-02  0.1328507E+00
         21   -1    0    0  506  501  0.00000000000E+00  0.00000000000E+00  0.42607443801E+03  0.42607443801E+03  0.00000000000E+00 0.  1.
         21   -1    0    0  504  502 -0.00000000000E+00 -0.00000000000E+00 -0.16609499764E+03  0.16609499764E+03  0.00000000000E+00 0.  1.
         21    1    1    2  503  501  0.41562800315E+02  0.34734781490E+01  0.84499698226E+02  0.94232321529E+02  0.00000000000E+00 0.  1.
         21    1    1    2  504  503 -0.12112463033E+03  0.22694299289E+02  0.30981236645E+03  0.33342151955E+03  0.00000000000E+00 0.  1.
         21    1    1    2  505  502  0.34706087258E+02 -0.36851295949E+00 -0.89698402146E+02  0.96179268255E+02  0.00000000000E+00 0.  1.
         21    1    1    2  506  505  0.44855742756E+02 -0.25799264478E+02 -0.44634222168E+02  0.68336326315E+02  0.00000000000E+00 0.  1.
<scales pt_clust_3="44.00679" pt_clust_4="14000.00000" pt_clust_5="34.70804" pt_clust_6="80.19214"></scales>
<clustering>
<clus scale="   34.708">  2  5  1 -1</clus>
<clus scale="   44.007">  1  3  2 -1</clus>
<clus scale="   80.192">  2  6  1 -1</clus>
<clus scale="   44.007">  1  3  2 -1</clus>
</clustering>
</event>
<event>
 6    0  0.1221518E+003  0.1527248E+03  0.7546771E-02  0.1197164E+00
         21   -1    0    0  504  501  0.00000000000E+00  0.00000000000E+00  0.54694437126E+03  0.54694437126E+03  0.00000000000E+00 0. -1.
         21   -1    0    0  503  502 -0.00000000000E+00 -0.00000000000E+00 -0.56868373987E+03  0.56868373987E+03  0.00000000000E+00 0. -1.
         21    1    1    2  503  501 -0.25050392509E+02  0.81515317971E+02  0.47895029268E+03  0.48648294121E+03  0.00000000000E+00 0. -1.
         21    1    1    2  504  506 -0.82475172867E+02  0.94422715186E+01  0.20609120958E+02  0.85533890930E+02  0.00000000000E+00 0. -1.
         21    1    1    2  505  502  0.61483658797E+02 -0.75043541206E+02 -0.42198602213E+03  0.43299419887E+03  0.00000000000E+00 0. -1.
         21    1    1    2  506  505  0.46041906579E+02 -0.15914048284E+02 -0.99312760118E+02  0.11061708013E+03  0.00000000000E+00 0.  1.
<scales pt_clust_3="139.28063" pt_clust_4="83.01392" pt_clust_5="44.39912" pt_clust_6="44.39912"></scales>
<clustering>
<clus scale="   44.399">  5  6 -1 -1</clus>
<clus scale="   83.014">  1  4  2 -1</clus>
<clus scale="  139.281">  1  3  2 -1</clus>
<clus scale="   83.014">  1  3  2 -1</clus>
</clustering>
</event>
<event>
 6    0  0.1221518E+003  0.1441749E+03  0.7546771E-02  0.1207819E+00
         21   -1    0    0  506  501  0.00000000000E+00  0.00000000000E+00  0.10182629414E+03  0.10182629414E+03  0.00000000000E+00 0.  1.
         21   -1    0    0  505  502 -0.00000000000E+00 -0.00000000000E+00 -0.86071881670E+03  0.86071881670E+03  0.00000000000E+00 0.  1.
         21    1    1    2  503  501  0.10836988190E+03 -0.54962714301E+02 -0.12266980857E+03  0.17266387347E+03  0.00000000000E+00 0.  1.
         21    1    1    2  504  502 -0.14005797009E+02 -0.61952213798E+02  0.13507406529E+02  0.64936039112E+02  0.00000000000E+00 0.  1.
         21    1    1    2  505  503 -0.11969639796E+03  0.94689822325E+02 -0.66895694576E+03  0.68614632945E+03  0.00000000000E+00 0.  1.
         21    1    1    2  506  504  0.25332313065E+02  0.22225105775E+02  0.19226825239E+02  0.38798868807E+02  0.00000000000E+00 0.  1.
<scales pt_clust_3="144.17492" pt_clust_4="49.98173" pt_clust_5="14000.00000" pt_clust_6="33.69987"></scales>
<clustering>
<clus scale="   33.700">  1  6  2 -1</clus>
<clus scale="   49.982">  1  4  2 -1</clus>
<clus scale="  144.175">  1  3  2 -1</clus>
<clus scale="   33.700">  1  3  2 -1</clus>
</clustering>
</event>
<event>
 6    0  0.1221518E+003  0.1088712E+03  0.7546771E-02  0.1262675E+00
         21   -1    0    0  503  501  0.00000000000E+00  0.00000000000E+00  0.19988434122E+03  0.19988434122E+03  0.00000000000E+00 0. -1.
         21   -1    0    0  505  502 -0.00000000000E+00 -0.00000000000E+00 -0.28063524790E+03  0.28063524790E+03  0.00000000000E+00 0. -1.
         21    1    1    2  503  504  0.58233171957E+01 -0.57734552215E+02  0.88318398411E+02  0.10567558394E+03  0.00000000000E+00 0. -1.
         21    1    1    2  504  506  0.72531904673E+02 -0.22758137246E+02 -0.41488709292E+01  0.76131617192E+02  0.00000000000E+00 0. -1.
         21    1    1    2  505  501 -0.72294284812E+02 -0.57563071625E+02 -0.12962227972E+02  0.93316612591E+02  0.00000000000E+00 0. -1.
         21    1    1    2  506  502 -0.60609370566E+01  0.13805576109E+03 -0.15195820618E+03  0.20539577540E+03  0.00000000000E+00 0. -1.
<scales pt_clust_3="58.02749" pt_clust_4="86.05590" pt_clust_5="108.87124" pt_clust_6="14000.00000"></scales>
<clustering>
<clus scale="   58.027">  1  3  2 -1</clus>
<clus scale="   86.056">  1  4  2 -1</clus>
<clus scale="  108.871">  1  5  2 -1</clus>
<clus scale="   58.027">  1  3  2 -1</clus>
</clustering>
</event>
<event>
 6    0  0.1221518E+003  0.1328351E+03  0.7546771E-02  0.1223309E+00
         21   -1    0    0  503  501  0.00000000000E+00  0.00000000000E+00  0.18848700434E+04  0.18848700434E+04  0.00000000000E+00 0. -1.
         21   -1    0    0  505  502 -0.00000000000E+00 -0.00000000000E+00 -0.29184327166E+02  0.29184327166E+02  0.00000000000E+00 0. -1.
         21    1    1    2  503  504  0.43583764984E+02 -0.16080565644E-01  0.13035099319E+04  0.13042383553E+04  0.00000000000E+00 0. -1.
         21    1    1    2  504  502  0.68350689279E+02 -0.83073528698E+02  0.21948759366E+03  0.24443369584E+03  0.00000000000E+00 0. -1.
         21    1    1    2  505  506 -0.10238821062E+03  0.50008127997E+02  0.28153678557E+03  0.30372211011E+03  0.00000000000E+00 0. -1.
         21    1    1    2  506  501 -0.95462436474E+01  0.33081481267E+02  0.51151405126E+02  0.61660209349E+02  0.00000000000E+00 0. -1.
<scales pt_clust_3="43.58377" pt_clust_4="119.39671" pt_clust_5="32.00351" pt_clust_6="32.00351"></scales>
<clustering>
<clus scale="   32.004">  5  6 -1 -1</clus>
<clus scale="   43.584">  1  3  2 -1</clus>
<clus scale="  119.397">  2  4  1 -1</clus>
<clus scale="   43.584">  1  3  2 -1</clus>
</clustering>
</event>
<event>
 6    0  0.1221518E+003  0.2750238E+03  0.7546771E-02  0.1098438E+00
         21   -1    0    0  506  501  0.00000000000E+00  0.00000000000E+00  0.56763928333E+03  0.56763928333E+03  0.00000000000E+00 0.  1.
         21   -1    0    0  504  502 -0.00000000000E+00 -0.00000000000E+00 -0.73171061820E+03  0.73171061820E+03  0.00000000000E+00 0. -1.
         21    1    1    2  503  505 -0.14580417209E+03  0.58232627167E+02 -0.31323955813E+03  0.35038395546E+03  0.00000000000E+00 0. -1.
         21    1    1    2  504  503 -0.10061291858E+03 -0.58035082305E+02 -0.35443845553E+03  0.37298478377E+03  0.00000000000E+00 0. -1.
         21    1    1    2  505  501  0.44025920518E+02  0.12468696739E+01  0.23803875858E+03  0.24207909233E+03  0.00000000000E+00 0.  1.
         21    1    1    2  506  502  0.20239117015E+03 -0.14444145359E+01  0.26556792021E+03  0.33390206997E+03  0.00000000000E+00 0.  1.
<scales pt_clust_3="111.59797" pt_clust_4="111.59797" pt_clust_5="44.04357" pt_clust_6="242.67494"></scales>
<clustering>
<clus scale="   44.044">  1  5  2 -1</clus>
<clus scale="  111.598">  3  4 -1 -1</clus>
<clus scale="  242.675">  1  6  2 -1</clus>
<clus scale="   44.044">  1  3  2 -1</clus>
</clustering>
</event>
<event>
 6    0  0.1221518E+003  0.7521227E+02  0.7546771E-02  0.1343215E+00
         21   -1    0    0  504  501  0.00000000000E+00  0.00000000000E+00  0.12721441189E+03  0.12721441189E+03  0.00000000000E+00 0. -1.
         21   -1    0    0  505  502 -0.00000000000E+00 -0.00000000000E+00 -0.31459069493E+03  0.31459069493E+03  0.00000000000E+00 0.  1.
         21    1    1    2  503  502 -0.53952184791E+02 -0.36720926619E+02 -0.15561740111E+03  0.16874845251E+03  0.00000000000E+00 0.  1.
         21    1    1    2  504  506 -0.40535649431E+02 -0.40901618275E+02  0.44804150738E+02  0.72962272276E+02  0.00000000000E+00 0. -1.
         21    1    1    2  505  501 -0.11520297790E+02  0.32096827809E+02  0.28203692901E+02  0.44253496019E+02  0.00000000000E+00 0. -1.
         21    1    1    2  506  503  0.10600813201E+03  0.45525717084E+02 -0.10476672557E+03  0.15584088602E+03  0.00000000000E+00 0.  1.
<scales pt_clust_3="75.21227" pt_clust_4="52.04187" pt_clust_5="34.10167" pt_clust_6="14000.00000"></scales>
<clustering>
<clus scale="   34.102">  1  5  2 -1</clus>
<clus scale="   52.042">  1  4  2 -1</clus>
<clus scale="   75.212">  2  3  1 -1</clus>
<clus scale="   34.102">  1  3  2 -1</clus>
</clustering>
</event>
<event>
 6    0  0.1221518E+003  0.1343113E+03  0.7546771E-02  0.1221195E+00
         21   -1    0    0  505  501  0.00000000000E+00  0.00000000000E+00  0.12580065483E+03  0.12580065483E+03  0.00000000000E+00 0. -1.
         21   -1    0    0  503  502 -0.00000000000E+00 -0.00000000000E+00 -0.48950836255E+03  0.48950836255E+03  0.00000000000E+00 0. -1.
         21    1    1    2  503  501 -0.16044410744E+03  0.71894815245E+02 -0.20653993030E+03  0.27123775342E+03  0.00000000000E+00 0. -1.
         21    1    1    2  504  502  0.20214503298E+02 -0.73674844098E+02 -0.16130543471E+03  0.17848263799E+03  0.00000000000E+00 0. -1.
         21    1    1    2  505  506  0.29150556179E+02 -0.13483928542E+02  0.36761674668E+02  0.48815898833E+02  0.00000000000E+00 0. -1.
         21    1    1    2  506  504  0.11107904797E+03  0.15263957395E+02 -0.32624017381E+02  0.11677272713E+03  0.00000000000E+00 0. -1.
<scales pt_clust_3="14000.00000" pt_clust_4="78.58212" pt_clust_5="32.11808" pt_clust_6="134.31126"></scales>
<clustering>
<clus scale="   32.118">  1  5  2 -1</clus>
<clus scale="   78.582">  2  4  1 -1</clus>
<clus scale="  134.311">  1  6  2 -1</clus>
<clus scale="   32.118">  1  3  2 -1</clus>
</clustering>
</event>
<event>
 6    0  0.1221518E+003  0.8358515E+02  0.7546771E-02  0.1319175E+00
         21   -1    0    0  506  501  0.00000000000E+00  0.00000000000E+00  0.60571513669E+03  0.60571513669E+03  0.00000000000E+00 0. -1.
         21   -1    0    0  504  502 -0.00000000000E+00 -0.00000000000E+00 -0.97016336259E+02  0.97016336259E+02  0.00000000000E+00 0. -1.
         21    1    1    2  503  505 -0.53142592644E+02  0.49581693486E+01  0.15652843507E+03  0.16537795978E+03  0.00000000000E+00 0. -1.
         21    1    1    2  504  503  0.73209817194E+01 -0.87073742335E+02 -0.60274646372E+02  0.10615303280E+03  0.00000000000E+00 0. -1.
         21    1    1    2  505  501 -0.18589448421E+02  0.44420200452E+02  0.11805212882E+03  0.12749520351E+03  0.00000000000E+00 0. -1.
         21    1    1    2  506  502  0.64411059345E+02  0.37695372535E+02  0.29439288292E+03  0.30370527686E+03  0.00000000000E+00 0. -1.
<scales pt_clust_3="62.54241" pt_clust_4="83.58515" pt_clust_5="48.15311" pt_clust_6="14000.00000"></scales>
<clustering>
<clus scale="   48.153">  1  5  2 -1</clus>
<clus scale="   62.542">  1  3  2 -1</clus>
<clus scale="   83.585">  2  4  1 -1</clus>
<clus scale="   48.153">  1  3  2 -1</clus>
</clustering>
</event>
<event>
 6    0  0.1221518E+003  0.1169744E+03  0.7546771E-02  0.1248173E+00
         21   -1    0    0  506  501  0.00000000000E+00  0.00000000000E+00  0.13989002164E+03  0.13989002164E+03  0.00000000000E+00 0. -1.
         21   -1    0    0  503  502 -0.00000000000E+00 -0.00000000000E+00 -0.36030539696E+03  0.36030539696E+03  0.00000000000E+00 0.  1.
         21    1    1    2  503  505 -0.55474446325E+02 -0.55132037964E+02 -0.74674375885E+02  0.10813518493E+03  0.00000000000E+00 0.  1.
         21    1    1    2  504  502  0.10887908231E+02  0.34043782437E+02 -0.50101533922E+02  0.61544206629E+02  0.00000000000E+00 0.  1.
         21    1    1    2  505  501 -0.50844593807E+02  0.10493100994E+03  0.58765442289E+02  0.13057207501E+03  0.00000000000E+00 0. -1.
         21    1    1    2  506  504  0.95431131901E+02 -0.83842754408E+02 -0.15440490780E+03  0.19994395203E+03  0.00000000000E+00 0.  1.
<scales pt_clust_3="68.86628" pt_clust_4="35.74249" pt_clust_5="116.97441" pt_clust_6="14000.00000"></scales>
<clustering>
<clus scale="   35.742">  2  4  1 -1</clus>
<clus scale="   68.866">  2  3  1 -1</clus>
<clus scale="  116.974">  1  5  2 -1</clus>
<clus scale="  116.974">  1  3  2 -1</clus>
</clustering>
</event>
<event>
 6    0  0.1221518E+003  0.6451477E+02  0.7546771E-02  0.1379806E+00
         21   -1    0    0  503  501  0.00000000000E+00  0.00000000000E+00  0.16722446291E+02  0.16722446291E+02  0.00000000000E+00 0.  1.
         21   -1    0    0  505  502 -0.00000000000E+00 -0.00000000000E+00 -0.22817992870E+04  0.22817992870E+04  0.00000000000E+00 0. -1.
         21    1    1    2  503  502 -0.10211502463E+03  0.20739459607E+02 -0.11620635152E+04  0.11667258533E+04  0.00000000000E+00 0. -1.
         21    1    1    2  504  506  0.40686698622E+02 -0.51187750459E+02 -0.30136420142E+03  0.30837635308E+03  0.00000000000E+00 0.  1.
         21    1    1    2  505  504  0.13427005524E+00  0.35302518690E+02 -0.72169200325E+03  0.72255493452E+03  0.00000000000E+00 0. -1.
         21    1    1    2  506  501  0.61294055951E+02 -0.48542278381E+01 -0.79957120895E+02  0.10086459242E+03  0.00000000000E+00 0.  1.
<scales pt_clust_3="14000.00000" pt_clust_4="60.15726" pt_clust_5="35.30277" pt_clust_6="64.51477"></scales>
<clustering>
<clus scale="   35.303">  2  5  1 -1</clus>
<clus scale="   60.157">  2  4  1 -1</clus>
<clus scale="   64.515">  1  6  2 -1</clus>
<clus scale="   64.515">  1  3  2 -1</clus>
</clustering>
</event>
<event>
 6    0  0.1221518E+003  0.2092709E+03  0.7546771E-02  0.1142145E+00
         21   -1    0    0  503  501  0.00000000000E+00  0.00000000000E+00  0.18398821721E+03  0.18398821721E+03  0.00000000000E+00 0. -1.
         21   -1    0    0  506  502 -0.00000000000E+00 -0.00000000000E+00 -0.13486515159E+04  0.13486515159E+04  0.00000000000E+00 0. -1.
         21    1    1    2  503  502 -0.76117866896E+02  0.68229826888E+02  0.11403844018E+03  0.15314700381E+03  0.00000000000E+00 0. -1.
         21    1    1    2  504  501  0.25073813589E+03  0.34494932234E+02 -0.46140357669E+03  0.52626302713E+03  0.00000000000E+00 0. -1.
         21    1    1    2  505  504 -0.17001053397E+03 -0.64513754602E+02 -0.47237304925E+03  0.50616391006E+03  0.00000000000E+00 0. -1.
         21    1    1    2  506  505 -0.46097350165E+01 -0.38211004519E+02 -0.34492511293E+03  0.34706579211E+03  0.00000000000E+00 0. -1.
<scales pt_clust_3="101.79291" pt_clust_4="14000.00000" pt_clust_5="209.27093" pt_clust_6="38.48806"></scales>
<clustering>
<clus scale="   38.488">  2  6  1 -1</clus>
<clus scale="  101.793">  1  3  2 -1</clus>
<clus scale="  209.271">  2  5  1 -1</clus>
<clus scale="  101.793">  1  3  2 -1</clus>
</clustering>
</event>
<event>
 6    0  0.1221518E+003  0.6669242E+02  0.7546771E-02  0.1371716E+00
         21   -1    0    0  503  501  0.00000000000E+00  0.00000000000E+00  0.10368525264E+03  0.10368525264E+03  0.00000000000E+00 0. -1.
         21   -1    0    0  504  502 -0.00000000000E+00 -0.00000000000E+00 -0.26557065004E+03  0.26557065004E+03  0.00000000000E+00 0. -1.
         21    1    1    2  503  506 -0.19221682732E+02 -0.23410517660E+02  0.12057144287E+02  0.32602149508E+02  0.00000000000E+00 0. -1.
         21    1    1    2  504  505 -0.10240360019E+03 -0.64585595154E+01 -0.15612998633E+03  0.18682821777E+03  0.00000000000E+00 0. -1.
         21    1    1    2  505  501  0.72067015618E+02  0.31310962120E+02  0.26910447869E+02  0.83055423023E+02  0.00000000000E+00 0. -1.
         21    1    1    2  506  502  0.49558267300E+02 -0.14418849451E+01 -0.44723003220E+02  0.66770112379E+02  0.00000000000E+00 0. -1.
<scales pt_clust_3="30.29068" pt_clust_4="66.69242" pt_clust_5="14000.00000" pt_clust_6="47.17991"></scales>
<clustering>
<clus scale="   30.291">  1  3  2 -1</clus>
<clus scale="   47.180">  2  6  1 -1</clus>
<clus scale="   66.692">  2  4  1 -1</clus>
<clus scale="   30.291">  1  3  2 -1</clus>
</clustering>
</event>
<event>
 6    0  0.1221518E+003  0.1841623E+03  0.7546771E-02  0.1163834E+00
         21   -1    0    0  506  501  0.00000000000E+00  0.00000000000E+00  0.90861351861E+03  0.90861351861E+03  0.00000000000E+00 0. -1.
         21   -1    0    0  504  502 -0.00000000000E+00 -0.00000000000E+00 -0.40351660336E+03  0.40351660336E+03  0.00000000000E+00 0. -1.
         21    1    1    2  503  502 -0.17394037503E+03  0.62891096848E+02 -0.31301628265E+03  0.36357906614E+03  0.00000000000E+00 0. -1.
         21    1    1    2  504  505  0.75471076768E+02  0.63464683020E+02  0.13384152651E+02  0.99512737685E+02  0.00000000000E+00 0. -1.
         21    1    1    2  505  501 -0.38789143531E+02 -0.36320049020E+01  0.42751723107E+03  0.42928868140E+03  0.00000000000E+00 0. -1.
         21    1    1    2  506  503  0.13725844179E+03 -0.12272377497E+03  0.37721181419E+03  0.41974963674E+03  0.00000000000E+00 0. -1.
<scales pt_clust_3="184.16231" pt_clust_4="94.87987" pt_clust_5="38.95881" pt_clust_6="14000.00000"></scales>
<clustering>
<clus scale="   38.959">  1  5  2 -1</clus>
<clus scale="   94.880">  1  4  2 -1</clus>
<clus scale="  184.162">  2  3  1 -1</clus>
<clus scale="   38.959">  1  3  2 -1</clus>
</clustering>
</event>
<event>
 6    0  0.1221518E+003  0.1186019E+03  0.7546771E-02  0.1245421E+00
         21   -1    0    0  504  501  0.00000000000E+00  0.00000000000E+00  0.76588351847E+03  0.76588351847E+03  0.00000000000E+00 0. -1.
         21   -1    0    0  506  502 -0.00000000000E+00 -0.00000000000E+00 -0.31119282851E+03  0.31119282851E+03  0.00000000000E+00 0. -1.
         21    1    1    2  503  505  0.59907263974E+02 -0.19884991375E+02  0.38582923105E+03  0.39095842323E+03  0.00000000000E+00 0. -1.
         21    1    1    2  504  503  0.19720842298E+02  0.33489411145E+02  0.32006562928E+03  0.32241659282E+03  0.00000000000E+00 0.  1.
         21    1    1    2  505  502  0.31272966214E+02 -0.92905807443E+02 -0.27648740372E+02  0.10185254202E+03  0.00000000000E+00 0. -1.
         21    1    1    2  506  501 -0.11090107249E+03  0.79301387673E+02 -0.22355543001E+03  0.26184878891E+03  0.00000000000E+00 0. -1.
<scales pt_clust_3="77.70015" pt_clust_4="38.86454" pt_clust_5="118.60192" pt_clust_6="14000.00000"></scales>
<clustering>
<clus scale="   38.865">  1  4  2 -1</clus>
<clus scale="   77.700">  1  3  2 -1</clus>
<clus scale="  118.602">  1  5  2 -1</clus>
<clus scale="   38.865">  1  3  2 -1</clus>
</clustering>
</event>
<event>
 6    0  0.1221518E+003  0.7071077E+02  0.7546771E-02  0.1357693E+00
         21   -1    0    0  505  501  0.00000000000E+00  0.00000000000E+00  0.82769772096E+03  0.82769772096E+03  0.00000000000E+00 0.  1.
         21   -1    0    0  506  502 -0.00000000000E+00 -0.00000000000E+00 -0.86783543658E+02  0.86783543658E+02  0.00000000000E+00 0.  1.
         21    1    1    2  503  502 -0.24517222354E+02  0.72759881739E+02  0.12517897471E+02  0.77793266673E+02  0.00000000000E+00 0.  1.
         21    1    1    2  504  501 -0.32024478503E+02  0.24792680214E+02  0.89344988184E+02  0.98095724317E+02  0.00000000000E+00 0.  1.
         21    1    1    2  505  503  0.81040913239E+02 -0.71442715911E+02  0.67749684700E+03  0.68605660770E+03  0.00000000000E+00 0.  1.
         21    1    1    2  506  504 -0.24499212382E+02 -0.26109846042E+02 -0.38445555355E+02  0.52535665926E+02  0.00000000000E+00 0.  1.
<scales pt_clust_3="14000.00000" pt_clust_4="41.03317" pt_clust_5="70.71077" pt_clust_6="35.80413"></scales>
<clustering>
<clus scale="   35.804">  2  6  1 -1</clus>
<clus scale="   41.033">  1  4  2 -1</clus>
<clus scale="   70.711">  1  5  2 -1</clus>
<clus scale="   41.033">  1  3  2 -1</clus>
</clustering>
</event>
<event>
 6    0  0.1221518E+003  0.1038647E+03  0.7546771E-02  0.1272373E+00
         21   -1    0    0  503  501  0.00000000000E+00  0.00000000000E+00  0.36744016851E+03  0.36744016851E+03  0.00000000000E+00 0. -1.
         21   -1    0    0  506  502 -0.00000000000E+00 -0.00000000000E+00 -0.21437046441E+03  0.21437046441E+03  0.00000000000E+00 0. -1.
         21    1    1    2  503  505  0.85930068998E+02 -0.45856117437E+02  0.16128218021E+03  0.18841099203E+03  0.00000000000E+00 0. -1.
         21    1    1    2  504  501 -0.10858976780E+03 -0.49605115931E+02  0.88632600863E+02  0.14868807327E+03  0.00000000000E+00 0. -1.
         21    1    1    2  505  502 -0.88563436869E+02  0.22291135849E+02 -0.33492516948E+02  0.97273458760E+02  0.00000000000E+00 0. -1.
         21    1    1    2  506  504  0.11122313567E+03  0.73170097519E+02 -0.63352560024E+02  0.14743810885E+03  0.00000000000E+00 0. -1.
<scales pt_clust_3="89.35340" pt_clust_4="14000.00000" pt_clust_5="91.32566" pt_clust_6="103.86466"></scales>
<clustering>
<clus scale="   91.326">  2  5  1 -1</clus>
<clus scale="   89.353">  1  3  2 -1</clus>
<clus scale="  103.865">  2  6  1 -1</clus>
<clus scale="   89.353">  1  3  2 -1</clus>
</clustering>
</event>
<event>
 6    0  0.1221518E+003  0.2287629E+03  0.7546771E-02  0.1127514E+00
         21   -1    0    0  505  501  0.00000000000E+00  0.00000000000E+00  0.60329416537E+03  0.60329416537E+03  0.00000000000E+00 0. -1.
         21   -1    0    0  503  502 -0.00000000000E+00 -0.00000000000E+00 -0.21944562829E+03  0.21944562829E+03  0.00000000000E+00 0. -1.
         21    1    1    2  503  504  0.18994263406E+03  0.30438723211E+02  0.10864809126E+03  0.22092787927E+03  0.00000000000E+00 0. -1.
         21    1    1    2  504  506  0.47394839219E+02  0.24825731219E+02  0.16738004729E+03  0.17572327093E+03  0.00000000000E+00 0. -1.
         21    1    1    2  505  502 -0.23656834546E+03 -0.89203704275E+02 -0.55859758183E+02  0.25892507703E+03  0.00000000000E+00 0. -1.
         21    1    1    2  506  501 -0.76912781733E+00  0.33939249845E+02  0.16368015671E+03  0.16716356642E+03  0.00000000000E+00 0. -1.
<scales pt_clust_3="14000.00000" pt_clust_4="60.58986" pt_clust_5="228.76291" pt_clust_6="33.94796"></scales>
<clustering>
<clus scale="   33.948">  1  6  2 -1</clus>
<clus scale="   60.590">  1  4  2 -1</clus>
<clus scale="  228.763">  2  5  1 -1</clus>
<clus scale="   33.948">  1  3  2 -1</clus>
</clustering>
</event>
<event>
 6    0  0.1221518E+003  0.1202452E+03  0.7546771E-02  0.1242693E+00
         21   -1    0    0  506  501  0.00000000000E+00  0.00000000000E+00  0.83747133003E+02  0.83747133003E+02  0.00000000000E+00 0. -1.
         21   -1    0    0  504  502 -0.00000000000E+00 -0.00000000000E+00 -0.26325657478E+04  0.26325657478E+04  0.00000000000E+00 0. -1.
         21    1    1    2  503  505  0.78339438642E+02  0.78718434472E+02 -0.40672890485E+03  0.42161838386E+03  0.00000000000E+00 0. -1.
         21    1    1    2  504  501 -0.12388348849E+03 -0.13049849344E+03 -0.33963829671E+03  0.38435809879E+03  0.00000000000E+00 0. -1.
         21    1    1    2  505  502  0.10906272128E+03  0.41301258012E+02 -0.18346522085E+04  0.18383550249E+04  0.00000000000E+00 0. -1.
         21    1    1    2  506  503 -0.63518671434E+02  0.10478800956E+02  0.32200795277E+02  0.71981373332E+02  0.00000000000E+00 0. -1.
<scales pt_clust_3="103.00670" pt_clust_4="14000.00000" pt_clust_5="120.24517" pt_clust_6="64.37722"></scales>
<clustering>
<clus scale="   64.377">  1  6  2 -1</clus>
<clus scale="  103.007">  1  3  2 -1</clus>
<clus scale="  120.245">  2  5  1 -1</clus>
<clus scale="   64.377">  1  3  2 -1</clus>
</clustering>
</event>
<event>
 6    0  0.1221518E+003  0.1033344E+03  0.7546771E-02  0.1273436E+00
         21   -1    0    0  504  501  0.00000000000E+00  0.00000000000E+00  0.86605807305E+03  0.86605807305E+03  0.00000000000E+00 0. -1.
         21   -1    0    0  506  502 -0.00000000000E+00 -0.00000000000E+00 -0.65646900281E+03  0.65646900281E+03  0.00000000000E+00 0. -1.
         21    1    1    2  503  505  0.11179615870E+03 -0.79424831485E+02  0.16687399310E+03  0.21599447801E+03  0.00000000000E+00 0. -1.
         21    1    1    2  504  502 -0.85350359029E+02 -0.15717352659E+02  0.51410836758E+03  0.52138194501E+03  0.00000000000E+00 0. -1.
         21    1    1    2  505  501 -0.81448389092E+01  0.55716837265E+02  0.15104345268E+03  0.16119810469E+03  0.00000000000E+00 0.  1.
         21    1    1    2  506  503 -0.18300960764E+02  0.39425346879E+02 -0.62243674313E+03  0.62395254815E+03  0.00000000000E+00 0. -1.
<scales pt_clust_3="14000.00000" pt_clust_4="103.33443" pt_clust_5="62.69416" pt_clust_6="43.46588"></scales>
<clustering>
<clus scale="   43.466">  2  6  1 -1</clus>
<clus scale="   62.694">  1  5  2 -1</clus>
<clus scale="  103.334">  1  4  2 -1</clus>
<clus scale="   62.694">  1  3  2 -1</clus>
</clustering>
</event>
<event>
 6    0  0.1221518E+003  0.1984592E+03  0.7546771E-02  0.1151045E+00
         21   -1    0    0  506  501  0.00000000000E+00  0.00000000000E+00  0.63375233462E+03  0.63375233462E+03  0.00000000000E+00 0. -1.
         21   -1    0    0  505  502 -0.00000000000E+00 -0.00000000000E+00 -0.21885639972E+03  0.21885639972E+03  0.00000000000E+00 0. -1.
         21    1    1    2  503  501 -0.51625943885E+02 -0.48406002151E+02  0.10336139793E+03  0.12526754451E+03  0.00000000000E+00 0. -1.
         21    1    1    2  504  502 -0.12420548476E+03  0.16676616898E+03  0.38877201634E+03  0.44088733056E+03  0.00000000000E+00 0. -1.
         21    1    1    2  505  503  0.14048625583E+03 -0.13875374583E+03 -0.11696789605E+03  0.22950049840E+03  0.00000000000E+00 0. -1.
         21    1    1    2  506  504  0.35345172808E+02  0.20393579000E+02  0.39730416679E+02  0.56953360873E+02  0.00000000000E+00 0.  1.
<scales pt_clust_3="63.03731" pt_clust_4="198.45924" pt_clust_5="14000.00000" pt_clust_6="40.80661"></scales>
<clustering>
<clus scale="   40.807">  1  6  2 -1</clus>
<clus scale="   63.037">  1  3  2 -1</clus>
<clus scale="  198.459">  1  4  2 -1</clus>
<clus scale="   40.807">  1  3  2 -1</clus>
</clustering>
</event>
<event>
 6    0  0.1221518E+003  0.6326328E+02  0.7546771E-02  0.1384626E+00
         21   -1    0    0  505  501  0.00000000000E+00  0.00000000000E+00  0.35876282087E+03  0.35876282087E+03  0.00000000000E+00 0.  1.
         21   -1    0    0  506  502 -0.00000000000E+00 -0.00000000000E+00 -0.72290722329E+03  0.72290722329E+03  0.00000000000E+00 0.  1.
         21    1    1    2  503  502 -0.40489922380E+01  0.10395744931E+03 -0.99884838853E+02  0.14422387680E+03  0.00000000000E+00 0.  1.
         21    1    1    2  504  501  0.84931186123E+01 -0.76766675887E+02  0.26047807718E+03  0.27168747538E+03  0.00000000000E+00 0.  1.
         21    1    1    2  505  503 -0.68678895500E+01  0.33183898886E+02  0.64803663799E+02  0.73129022241E+02  0.00000000000E+00 0.  1.
         21    1    1    2  506  504  0.24237631757E+01 -0.60374672313E+02 -0.58954130455E+03  0.59262966974E+03  0.00000000000E+00 0.  1.
<scales pt_clust_3="14000.00000" pt_clust_4="46.34981" pt_clust_5="33.88715" pt_clust_6="63.26328"></scales>
<clustering>
<clus scale="   33.887">  1  5  2 -1</clus>
<clus scale="   46.350">  1  4  2 -1</clus>
<clus scale="   63.263">  2  6  1 -1</clus>
<clus scale="   33.887">  1  3  2 -1</clus>
</clustering>
</event>
<event>
 6    0  0.1221518E+003  0.9715408E+02  0.7546771E-02  0.1286397E+00
         21   -1    0    0  503  501  0.00000000000E+00  0.00000000000E+00  0.17827679292E+03  0.17827679292E+03  0.00000000000E+00 0.  1.
         21   -1    0    0  505  502 -0.00000000000E+00 -0.00000000000E+00 -0.34974172764E+03  0.34974172764E+03  0.00000000000E+00 0. -1.
         21    1    1    2  503  504  0.10814304275E+03 -0.64766727758E+02 -0.90051460599E+02  0.15491582319E+03  0.00000000000E+00 0. -1.
         21    1    1    2  504  502  0.29984630317E+02 -0.70490828365E+01 -0.10649772685E+03  0.11086267834E+03  0.00000000000E+00 0. -1.
         21    1    1    2  505  506 -0.70980282459E+02  0.59651494357E+02 -0.89504872509E+02  0.12887056871E+03  0.00000000000E+00 0. -1.
         21    1    1    2  506  501 -0.67147390609E+02  0.12164316238E+02  0.11458912524E+03  0.13336945032E+03  0.00000000000E+00 0.  1.
<scales pt_clust_3="97.15408" pt_clust_4="30.80207" pt_clust_5="14000.00000" pt_clust_6="67.04212"></scales>
<clustering>
<clus scale="   30.802">  2  4  1 -1</clus>
<clus scale="   67.042">  1  6  2 -1</clus>
<clus scale="   97.154">  1  3  2 -1</clus>
<clus scale="   67.042">  1  3  2 -1</clus>
</clustering>
</event>
<event>
 6    0  0.1221518E+003  0.8963974E+02  0.7546771E-02  0.1303726E+00
         21   -1    0    0  503  501  0.00000000000E+00  0.00000000000E+00  0.18434090559E+04  0.18434090559E+04  0.00000000000E+00 0. -1.
         21   -1    0    0  504  502 -0.00000000000E+00 -0.00000000000E+00 -0.93161825364E+02  0.93161825364E+02  0.00000000000E+00 0. -1.
         21    1    1    2  503  505 -0.45845014870E+02 -0.72054914086E+01  0.18823586884E+03  0.19387219195E+03  0.00000000000E+00 0. -1.
         21    1    1    2  504  506 -0.13565279253E+02  0.88607391899E+02 -0.54328488095E+02  0.10481827760E+03  0.00000000000E+00 0. -1.
         21    1    1    2  505  502  0.92794886120E+02 -0.32606022671E+02  0.22834845576E+03  0.24863036993E+03  0.00000000000E+00 0. -1.
         21    1    1    2  506  501 -0.33384591998E+02 -0.48795877819E+02  0.13879913941E+04  0.13892500418E+04  0.00000000000E+00 0. -1.
<scales pt_clust_3="46.40781" pt_clust_4="89.63974" pt_clust_5="14000.00000" pt_clust_6="81.34531"></scales>
<clustering>
<clus scale="   46.408">  1  3  2 -1</clus>
<clus scale="   89.640">  2  4  1 -1</clus>
<clus scale="   81.345">  1  6  2 -1</clus>
<clus scale="   46.408">  1  3  2 -1</clus>
</clustering>
</event>
<event>
 6    0  0.1221518E+003  0.1752780E+03  0.7546771E-02  0.1172453E+00
         21   -1    0    0  505  501  0.00000000000E+00  0.00000000000E+00  0.17928727288E+03  0.17928727288E+03  0.00000000000E+00 0. -1.
         21   -1    0    0  506  502 -0.00000000000E+00 -0.00000000000E+00 -0.44324531339E+03  0.44324531339E+03  0.00000000000E+00 0. -1.
         21    1    1    2  503  502 -0.17052476320E+01  0.62567540086E+02 -0.10583325835E+03  0.12295642933E+03  0.00000000000E+00 0. -1.
         21    1    1    2  504  501  0.75343751615E+02 -0.81977001014E+02  0.72376682946E+02  0.13279794365E+03  0.00000000000E+00 0. -1.
         21    1    1    2  505  503  0.34879482128E+02  0.12489807821E+03 -0.75071673485E+02  0.14983946200E+03  0.00000000000E+00 0. -1.
         21    1    1    2  506  504 -0.10851798611E+03 -0.10548861728E+03 -0.15542979162E+03  0.21693875129E+03  0.00000000000E+00 0. -1.
<scales pt_clust_3="51.27517" pt_clust_4="111.34141" pt_clust_5="51.27517" pt_clust_6="158.98194"></scales>
<clustering>
<clus scale="   51.275">  3  5 -1 -1</clus>
<clus scale="  111.341">  1  4  2 -1</clus>
<clus scale="  158.982">  2  6  1 -1</clus>
<clus scale="  111.341">  1  3  2 -1</clus>
</clustering>
</event>
<event>
 6    0  0.1221518E+003  0.1241063E+03  0.7546771E-02  0.1236473E+00
         21   -1    0    0  502  501  0.00000000000E+00  0.00000000000E+00  0.31733397638E+03  0.31733397638E+03  0.00000000000E+00 0. -1.
         21   -1    0    0  506  502 -0.00000000000E+00 -0.00000000000E+00 -0.11482681269E+03  0.11482681269E+03  0.00000000000E+00 0. -1.
         21    1    1    2  503  505  0.64851576302E+02 -0.49607117473E+02  0.74043135304E+02  0.11022240670E+03  0.00000000000E+00 0. -1.
         21    1    1    2  504  503 -0.16081509808E+02  0.99052231239E+02  0.52611967039E+02  0.11330480372E+03  0.00000000000E+00 0. -1.
         21    1    1    2  505  501  0.33472700329E+02 -0.50884893548E+02  0.10498325432E+03  0.12137206328E+03  0.00000000000E+00 0. -1.
         21    1    1    2  506  504 -0.82242766823E+02  0.14397797832E+01 -0.29131192967E+02  0.87261515368E+02  0.00000000000E+00 0. -1.
<scales pt_clust_3="36.83866" pt_clust_4="116.54671" pt_clust_5="36.83866" pt_clust_6="82.25537"></scales>
<clustering>
<clus scale="   36.839">  3  5 -1 -1</clus>
<clus scale="   82.255">  2  6  1 -1</clus>
<clus scale="  116.547">  2  4  1 -1</clus>
<clus scale="  124.106">  1  3  2 -1</clus>
</clustering>
</event>
<event>
 6    0  0.1221518E+003  0.6761664E+02  0.7546771E-02  0.1368391E+00
         21   -1    0    0  504  501  0.00000000000E+00  0.00000000000E+00  0.20578202131E+04  0.20578202131E+04  0.00000000000E+00 0. -1.
         21   -1    0    0  505  502 -0.00000000000E+00 -0.00000000000E+00 -0.28555681383E+02  0.28555681383E+02  0.00000000000E+00 0. -1.
         21    1    1    2  503  506  0.79744883916E+02  0.55723785622E+02  0.98050916576E+03  0.98532360722E+03  0.00000000000E+00 0. -1.
         21    1    1    2  504  503 -0.86481579116E+01 -0.53880013644E+02  0.79444946263E+03  0.79632141450E+03  0.00000000000E+00 0. -1.
         21    1    1    2  505  501 -0.55521448778E+02  0.44127293114E+02  0.24532291761E+03  0.25536872004E+03  0.00000000000E+00 0. -1.
         21    1    1    2  506  502 -0.15575277227E+02 -0.45971065092E+02  0.89829856704E+01  0.49362152687E+02  0.00000000000E+00 0. -1.
<scales pt_clust_3="67.61664" pt_clust_4="59.93076" pt_clust_5="14000.00000" pt_clust_6="48.53790"></scales>
<clustering>
<clus scale="   48.538">  2  6  1 -1</clus>
<clus scale="   59.931">  1  4  2 -1</clus>
<clus scale="   67.617">  1  3  2 -1</clus>
<clus scale="   59.931">  1  3  2 -1</clus>
</clustering>
</event>
<event>
 6    0  0.1221518E+003  0.2070060E+03  0.7546771E-02  0.1143959E+00
         21   -1    0    0  505  501  0.00000000000E+00  0.00000000000E+00  0.10606514839E+04  0.10606514839E+04  0.00000000000E+00 0. -1.
         21   -1    0    0  504  502 -0.00000000000E+00 -0.00000000000E+00 -0.33689287599E+03  0.33689287599E+03  0.00000000000E+00 0.  1.
         21    1    1    2  503  506  0.13522350672E+03  0.91741315431E+02 -0.56702540480E+02  0.17296544112E+03  0.00000000000E+00 0.  1.
         21    1    1    2  504  501  0.16076190561E+02  0.27931685419E+02  0.81717707632E+03  0.81781232383E+03  0.00000000000E+00 0. -1.
         21    1    1    2  505  503 -0.14577592185E+03 -0.21334983802E+03  0.66957476680E+02  0.26693084584E+03  0.00000000000E+00 0. -1.
         21    1    1    2  506  502 -0.55237754268E+01  0.93676837175E+02 -0.10367340457E+03  0.13983574913E+03  0.00000000000E+00 0.  1.
<scales pt_clust_3="207.00603" pt_clust_4="32.22767" pt_clust_5="14000.00000" pt_clust_6="95.85162"></scales>
<clustering>
<clus scale="   32.228">  1  4  2 -1</clus>
<clus scale="   95.852">  2  6  1 -1</clus>
<clus scale="  207.006">  2  3  1 -1</clus>
<clus scale="   32.228">  1  3  2 -1</clus>
</clustering>
</event>
<event>
 6    0  0.1221518E+003  0.1070340E+03  0.7546771E-02  0.1266163E+00
         21   -1    0    0  504  501  0.00000000000E+00  0.00000000000E+00  0.91248664377E+03  0.91248664377E+03  0.00000000000E+00 0.  1.
         21   -1    0    0  503  502 -0.00000000000E+00 -0.00000000000E+00 -0.71620307759E+02  0.71620307759E+02  0.00000000000E+00 0. -1.
         21    1    1    2  503  505  0.42416193813E+01 -0.32704078439E+02  0.37310497438E+02  0.49795796013E+02  0.00000000000E+00 0. -1.
         21    1    1    2  504  506  0.45863340884E+02  0.86513411373E+02  0.21637482030E+03  0.23749964051E+03  0.00000000000E+00 0.  1.
         21    1    1    2  505  501 -0.20476720071E+02 -0.11116062360E+03  0.61588061507E+03  0.62616684065E+03  0.00000000000E+00 0.  1.
         21    1    1    2  506  502 -0.29628240194E+02  0.57351290668E+02 -0.28699596799E+02  0.70644674355E+02  0.00000000000E+00 0. -1.
<scales pt_clust_3="32.97799" pt_clust_4="107.03405" pt_clust_5="14000.00000" pt_clust_6="41.87769"></scales>
<clustering>
<clus scale="   32.978">  2  3  1 -1</clus>
<clus scale="   41.878">  2  6  1 -1</clus>
<clus scale="  107.034">  2  4  1 -1</clus>
<clus scale="  107.034">  1  3  2 -1</clus>
</clustering>
</event>
<event>
 6    0  0.1221518E+003  0.1877014E+03  0.7546771E-02  0.1160551E+00
         21   -1    0    0  505  501  0.00000000000E+00  0.00000000000E+00  0.67872432924E+03  0.67872432924E+03  0.00000000000E+00 0. -1.
         21   -1    0    0  506  502 -0.00000000000E+00 -0.00000000000E+00 -0.41867051015E+03  0.41867051015E+03  0.00000000000E+00 0.  1.
         21    1    1    2  503  504  0.36184200506E+02 -0.11332604702E+03 -0.17237844100E+03  0.20944310975E+03  0.00000000000E+00 0.  1.
         21    1    1    2  504  501 -0.43639065267E+02  0.17922522869E+03  0.35788556676E+03  0.40262653851E+03  0.00000000000E+00 0. -1.
         21    1    1    2  505  502 -0.24410684514E+02 -0.21779031572E+02  0.27534522299E+03  0.27728180531E+03  0.00000000000E+00 0. -1.
         21    1    1    2  506  503  0.31865549274E+02 -0.44120150101E+02 -0.20079852966E+03  0.20804338583E+03  0.00000000000E+00 0.  1.
<scales pt_clust_3="50.56081" pt_clust_4="172.09875" pt_clust_5="32.71403" pt_clust_6="50.56081"></scales>
<clustering>
<clus scale="   32.714">  1  5  2 -1</clus>
<clus scale="   50.561">  3  6 -1 -1</clus>
<clus scale="  172.099">  1  4  2 -1</clus>
<clus scale="   32.714">  1  3  2 -1</clus>
</clustering>
</event>
<event>
 6    0  0.1221518E+003  0.8815153E+02  0.7546771E-02  0.1307391E+00
         21   -1    0    0  503  501  0.00000000000E+00  0.00000000000E+00  0.80546246164E+02  0.80546246164E+02  0.00000000000E+00 0.  1.
         21   -1    0    0  504  502 -0.00000000000E+00 -0.00000000000E+00 -0.68239369976E+03  0.68239369976E+03  0.00000000000E+00 0.  1.
         21    1    1    2  503  506 -0.33111147286E+02 -0.69313716305E+02  0.33164287893E+02  0.83669644041E+02  0.00000000000E+00 0.  1.
         21    1    1    2  504  505 -0.46210675450E+01 -0.31461498213E+02 -0.12573677565E+03  0.12969547751E+03  0.00000000000E+00 0.  1.
         21    1    1    2  505  501  0.98505832062E+02  0.12415967853E+02 -0.25048906502E+03  0.26944818965E+03  0.00000000000E+00 0.  1.
         21    1    1    2  506  502 -0.60773617231E+02  0.88359246665E+02 -0.25878590081E+03  0.28012663472E+03  0.00000000000E+00 0.  1.
<scales pt_clust_3="78.20057" pt_clust_4="31.79906" pt_clust_5="14000.00000" pt_clust_6="88.15153"></scales>
<clustering>
<clus scale="   31.799">  2  4  1 -1</clus>
<clus scale="   78.201">  1  3  2 -1</clus>
<clus scale="   88.152">  2  6  1 -1</clus>
<clus scale="   78.201">  1  3  2 -1</clus>
</clustering>
</event>
<event>
 6    0  0.1221518E+003  0.1016699E+03  0.7546771E-02  0.1276823E+00
         21   -1    0    0  503  501  0.00000000000E+00  0.00000000000E+00  0.72320025833E+03  0.72320025833E+03  0.00000000000E+00 0.  1.
         21   -1    0    0  504  502 -0.00000000000E+00 -0.00000000000E+00 -0.48226378663E+02  0.48226378663E+02  0.00000000000E+00 0.  1.
         21    1    1    2  503  505  0.42336400459E+02  0.59089365175E+01  0.25242953122E+03  0.25602334770E+03  0.00000000000E+00 0.  1.
         21    1    1    2  504  506 -0.36916038724E+02 -0.12840322199E+02  0.19497016687E+03  0.19884927397E+03  0.00000000000E+00 0.  1.
         21    1    1    2  505  502  0.81982877762E+02 -0.11399227262E+02  0.12544286409E+02  0.83716747128E+02  0.00000000000E+00 0.  1.
         21    1    1    2  506  501 -0.87403239496E+02  0.18330612944E+02  0.21502989516E+03  0.23283726819E+03  0.00000000000E+00 0.  1.
<scales pt_clust_3="42.74677" pt_clust_4="34.80461" pt_clust_5="86.99989" pt_clust_6="34.80461"></scales>
<clustering>
<clus scale="   34.805">  4  6 -1 -1</clus>
<clus scale="   42.747">  1  3  2 -1</clus>
<clus scale="   87.000">  2  5  1 -1</clus>
<clus scale="   42.747">  1  3  2 -1</clus>
</clustering>
</event>
<event>
 6    0  0.1221518E+003  0.1016180E+03  0.7546771E-02  0.1276930E+00
         21   -1    0    0  506  501  0.00000000000E+00  0.00000000000E+00  0.11855177343E+04  0.11855177343E+04  0.00000000000E+00 0.  1.
         21   -1    0    0  505  502 -0.00000000000E+00 -0.00000000000E+00 -0.71508022279E+02  0.71508022279E+02  0.00000000000E+00 0.  1.
         21    1    1    2  503  504 -0.50611158793E+02 -0.83149660388E+02  0.61563343166E+02  0.11517552100E+03  0.00000000000E+00 0.  1.
         21    1    1    2  504  501 -0.42776556449E+02 -0.13577339901E+02  0.79576413297E+03  0.79702869036E+03  0.00000000000E+00 0.  1.
         21    1    1    2  505  503  0.52001805403E+02 -0.16128701503E+02 -0.71338693461E+01  0.54910972211E+02  0.00000000000E+00 0.  1.
         21    1    1    2  506  502  0.41385909840E+02  0.11285570179E+03  0.26381610528E+03  0.28991057305E+03  0.00000000000E+00 0.  1.
<scales pt_clust_3="101.61800" pt_clust_4="44.87959" pt_clust_5="52.20802" pt_clust_6="14000.00000"></scales>
<clustering>
<clus scale="   44.880">  1  4  2 -1</clus>
<clus scale="   52.208">  2  5  1 -1</clus>
<clus scale="  101.618">  2  3  1 -1</clus>
<clus scale="   44.880">  1  3  2 -1</clus>
</clustering>
</event>
<event>
 6    0  0.1221518E+003  0.9339352E+02  0.7546771E-02  0.1294836E+00
         21   -1    0    0  506  501  0.00000000000E+00  0.00000000000E+00  0.28884509886E+03  0.28884509886E+03  0.00000000000E+00 0.  1.
         21   -1    0    0  504  502 -0.00000000000E+00 -0.00000000000E+00 -0.54180311329E+03  0.54180311329E+03  0.00000000000E+00 0. -1.
         21    1    1    2  503  502 -0.78106176308E+01  0.63436382483E+02  0.12851835291E+03  0.14353448159E+03  0.00000000000E+00 0.  1.
         21    1    1    2  504  505  0.16007536549E+02 -0.92974616133E+02 -0.50496501690E+03  0.51370243211E+03  0.00000000000E+00 0. -1.
         21    1    1    2  505  501 -0.53913318622E+02  0.46002104382E+02  0.56401753016E+02  0.90575919955E+02  0.00000000000E+00 0.  1.
         21    1    1    2  506  503  0.45716399704E+02 -0.16463870732E+02  0.67086896538E+02  0.82835378483E+02  0.00000000000E+00 0.  1.
<scales pt_clust_3="93.39352" pt_clust_4="14000.00000" pt_clust_5="55.56439" pt_clust_6="48.59062"></scales>
<clustering>
<clus scale="   48.591">  1  6  2 -1</clus>
<clus scale="   55.564">  1  5  2 -1</clus>
<clus scale="   93.394">  1  3  2 -1</clus>
<clus scale="   48.591">  1  3  2 -1</clus>
</clustering>
</event>
<event>
 6    0  0.1221518E+003  0.1375262E+03  0.7546771E-02  0.1216697E+00
         21   -1    0    0  506  501  0.00000000000E+00  0.00000000000E+00  0.34051010457E+03  0.34051010457E+03  0.00000000000E+00 0. -1.
         21   -1    0    0  504  502 -0.00000000000E+00 -0.00000000000E+00 -0.12597954846E+03  0.12597954846E+03  0.00000000000E+00 0. -1.
         21    1    1    2  503  505 -0.66420969872E+02  0.23477194782E+02  0.50007331972E+02  0.86392460114E+02  0.00000000000E+00 0.  1.
         21    1    1    2  504  501  0.33451183134E+02 -0.97285448762E+02  0.82873030866E+02  0.13210366929E+03  0.00000000000E+00 0. -1.
         21    1    1    2  505  502  0.96515850705E+02  0.95805046029E+02 -0.76482516155E+01  0.13620723929E+03  0.00000000000E+00 0. -1.
         21    1    1    2  506  503 -0.63546063967E+02 -0.21996792048E+02  0.89298444892E+02  0.11178628434E+03  0.00000000000E+00 0.  1.
<scales pt_clust_3="53.29023" pt_clust_4="102.87585" pt_clust_5="126.24717" pt_clust_6="53.29023"></scales>
<clustering>
<clus scale="   53.290">  3  6 -1 -1</clus>
<clus scale="  102.876">  1  4  2 -1</clus>
<clus scale="  126.247">  2  5  1 -1</clus>
<clus scale="  102.876">  1  3  2 -1</clus>
</clustering>
</event>
<event>
 6    0  0.1221518E+003  0.1857388E+03  0.7546771E-02  0.1162362E+00
         21   -1    0    0  503  501  0.00000000000E+00  0.00000000000E+00  0.79791580169E+03  0.79791580169E+03  0.00000000000E+00 0. -1.
         21   -1    0    0  504  502 -0.00000000000E+00 -0.00000000000E+00 -0.35807326919E+03  0.35807326919E+03  0.00000000000E+00 0.  1.
         21    1    1    2  503  505 -0.20534456907E+02 -0.18434644487E+03  0.70265916207E+03  0.72672909237E+03  0.00000000000E+00 0. -1.
         21    1    1    2  504  501 -0.46755508619E+02 -0.23414755196E+02 -0.19241382573E+02  0.55718570966E+02  0.00000000000E+00 0.  1.
         21    1    1    2  505  506  0.46632975263E+02  0.18455891432E+03 -0.79068681980E+02  0.20612734827E+03  0.00000000000E+00 0.  1.
         21    1    1    2  506  502  0.20656990263E+02  0.23202285753E+02 -0.16450656502E+03  0.16741405928E+03  0.00000000000E+00 0.  1.
<scales pt_clust_3="185.73885" pt_clust_4="46.71432" pt_clust_5="14000.00000" pt_clust_6="31.06537"></scales>
<clustering>
<clus scale="   31.065">  2  6  1 -1</clus>
<clus scale="   46.714">  2  4  1 -1</clus>
<clus scale="  185.739">  1  3  2 -1</clus>
<clus scale="  185.739">  1  3  2 -1</clus>
</clustering>
</event>
<event>
 6    0  0.1221518E+003  0.8481649E+02  0.7546771E-02  0.1315913E+00
         21   -1    0    0  504  501  0.00000000000E+00  0.00000000000E+00  0.27473516336E+02  0.27473516336E+02  0.00000000000E+00 0.  1.
         21   -1    0    0  506  502 -0.00000000000E+00 -0.00000000000E+00 -0.18127920709E+04  0.18127920709E+04  0.00000000000E+00 0.  1.
         21    1    1    2  503  505 -0.36731943089E+02 -0.10259370608E+03 -0.81724186335E+03  0.82447496468E+03  0.00000000000E+00 0.  1.
         21    1    1    2  504  502 -0.87299964294E+01 -0.34701729986E+02 -0.31431599103E+01  0.35920778888E+02  0.00000000000E+00 0.  1.
         21    1    1    2  505  501  0.57238972940E+01  0.75888274639E+02 -0.25325766259E+03  0.26444514911E+03  0.00000000000E+00 0.  1.
         21    1    1    2  506  503  0.39738042224E+02  0.61407161430E+02 -0.71167586875E+03  0.71542469460E+03  0.00000000000E+00 0.  1.
<scales pt_clust_3="14000.00000" pt_clust_4="35.78300" pt_clust_5="58.39142" pt_clust_6="84.81649"></scales>
<clustering>
<clus scale="   35.783">  1  4  2 -1</clus>
<clus scale="   58.391">  1  5  2 -1</clus>
<clus scale="   84.816">  2  6  1 -1</clus>
<clus scale="   35.783">  1  3  2 -1</clus>
</clustering>
</event>
<event>
 6    0  0.1221518E+003  0.1495828E+03  0.7546771E-02  0.1200987E+00
         21   -1    0    0  505  501  0.00000000000E+00  0.00000000000E+00  0.10644527267E+03  0.10644527267E+03  0.00000000000E+00 0. -1.
         21   -1    0    0  504  502 -0.00000000000E+00 -0.00000000000E+00 -0.12565628423E+04  0.12565628423E+04  0.00000000000E+00 0.  1.
         21    1    1    2  503  501 -0.28829686043E+02 -0.43809935758E+02  0.59944252958E+02  0.79647816864E+02  0.00000000000E+00 0. -1.
         21    1    1    2  504  506  0.37786577597E+02 -0.12346103526E+03 -0.41988393111E+03  0.43928688608E+03  0.00000000000E+00 0.  1.
         21    1    1    2  505  502 -0.80357408380E+02  0.15215540844E+03 -0.72841764202E+03  0.74846565893E+03  0.00000000000E+00 0.  1.
         21    1    1    2  506  503  0.71400516826E+02  0.15115562579E+02 -0.61760249431E+02  0.95607753058E+02  0.00000000000E+00 0.  1.
<scales pt_clust_3="52.44484" pt_clust_4="149.58278" pt_clust_5="14000.00000" pt_clust_6="58.31240"></scales>
<clustering>
<clus scale="   52.445">  1  3  2 -1</clus>
<clus scale="   58.312">  1  6  2 -1</clus>
<clus scale="  149.583">  2  4  1 -1</clus>
<clus scale="   52.445">  1  3  2 -1</clus>
</clustering>
</event>
<event>
 6    0  0.1221518E+003  0.8523922E+02  0.7546771E-02  0.1314808E+00
         21   -1    0    0  503  501  0.00000000000E+00  0.00000000000E+00  0.17435229714E+03  0.17435229714E+03  0.00000000000E+00 0.  1.
         21   -1    0    0  505  502 -0.00000000000E+00 -0.00000000000E+00 -0.85034998016E+03  0.85034998016E+03  0.00000000000E+00 0.  1.
         21    1    1    2  503  506 -0.39150576032E+01  0.94912206224E+02 -0.77372133632E+02  0.12251571993E+03  0.00000000000E+00 0.  1.
         21    1    1    2  504  501  0.74220692104E+02 -0.48701758630E+02  0.12933041680E+03  0.15686595915E+03  0.00000000000E+00 0.  1.
         21    1    1    2  505  504 -0.92533028277E+02 -0.15422136982E+02 -0.27076238457E+03  0.28655273952E+03  0.00000000000E+00 0.  1.
         21    1    1    2  506  502  0.22227393776E+02 -0.30788310613E+02 -0.45719358162E+03  0.45876785871E+03  0.00000000000E+00 0.  1.
<scales pt_clust_3="85.23922" pt_clust_4="14000.00000" pt_clust_5="85.32600" pt_clust_6="37.97337"></scales>
<clustering>
<clus scale="   37.973">  2  6  1 -1</clus>
<clus scale="   85.326">  2  5  1 -1</clus>
<clus scale="   85.239">  2  3  1 -1</clus>
<clus scale="   85.239">  1  3  2 -1</clus>
</clustering>
</event>
<event>
 6    0  0.1221518E+003  0.1403238E+03  0.7546771E-02  0.1212894E+00
         21   -1    0    0  503  501  0.00000000000E+00  0.00000000000E+00  0.14303270290E+04  0.14303270290E+04  0.00000000000E+00 0.  1.
         21   -1    0    0  505  502 -0.00000000000E+00 -0.00000000000E+00 -0.81003207480E+02  0.81003207480E+02  0.00000000000E+00 0. -1.
         21    1    1    2  503  502  0.16282395724E+03  0.10759607275E+02  0.65086735645E+02  0.17568065732E+03  0.00000000000E+00 0. -1.
         21    1    1    2  504  501 -0.39378641494E+02 -0.10115980812E+02  0.25196885160E+03  0.25522796212E+03  0.00000000000E+00 0.  1.
         21    1    1    2  505  506 -0.10711713325E+03 -0.47092738094E+02  0.12280156264E+03  0.16962320008E+03  0.00000000000E+00 0. -1.
         21    1    1    2  506  504 -0.16328182497E+02  0.46449111630E+02  0.90946667159E+03  0.91079841691E+03  0.00000000000E+00 0.  1.
<scales pt_clust_3="14000.00000" pt_clust_4="40.65723" pt_clust_5="140.32381" pt_clust_6="60.66922"></scales>
<clustering>
<clus scale="   40.657">  1  4  2 -1</clus>
<clus scale="   60.669">  1  6  2 -1</clus>
<clus scale="  140.324">  1  5  2 -1</clus>
<clus scale="   40.657">  1  3  2 -1</clus>
</clustering>
</event>
<event>
 6    0  0.1221518E+003  0.3444791E+03  0.7546771E-02  0.1064904E+00
         21   -1    0    0  504  501  0.00000000000E+00  0.00000000000E+00  0.12787084425E+04  0.12787084425E+04  0.00000000000E+00 0. -1.
         21   -1    0    0  506  502 -0.00000000000E+00 -0.00000000000E+00 -0.34524396503E+03  0.34524396503E+03  0.00000000000E+00 0. -1.
         21    1    1    2  503  501 -0.44270485217E+02 -0.56613286532E+02  0.42966499676E+03  0.43563396276E+03  0.00000000000E+00 0. -1.
         21    1    1    2  504  505  0.31182600607E+03 -0.18155659916E+03 -0.11373059782E+03  0.37832909701E+03  0.00000000000E+00 0. -1.
         21    1    1    2  505  502  0.68765387771E+00  0.36759644470E+02 -0.50502579948E+02  0.62468031111E+02  0.00000000000E+00 0. -1.
         21    1    1    2  506  503 -0.26824317473E+03  0.20141024123E+03  0.66803265851E+03  0.74752131668E+03  0.00000000000E+00 0. -1.
<scales pt_clust_3="71.56421" pt_clust_4="14000.00000" pt_clust_5="36.76608" pt_clust_6="344.47910"></scales>
<clustering>
<clus scale="   36.766">  2  5  1 -1</clus>
<clus scale="   71.564">  1  3  2 -1</clus>
<clus scale="  344.479">  1  6  2 -1</clus>
<clus scale="   71.564">  1  3  2 -1</clus>
</clustering>
</event>
<event>
 6    0  0.1221518E+003  0.1034228E+03  0.7546771E-02  0.1273258E+00
         21   -1    0    0  503  501  0.00000000000E+00  0.00000000000E+00  0.84154030884E+02  0.84154030884E+02  0.00000000000E+00 0. -1.
         21   -1    0    0  505  502 -0.00000000000E+00 -0.00000000000E+00 -0.16104433651E+04  0.16104433651E+04  0.00000000000E+00 0.  1.
         21    1    1    2  503  504 -0.82834851766E+01 -0.12087799036E+03  0.24441183888E+02  0.12360208797E+03  0.00000000000E+00 0. -1.
         21    1    1    2  504  506  0.29011888800E+02  0.78313712407E+02 -0.76330523016E+03  0.76786040504E+03  0.00000000000E+00 0.  1.
         21    1    1    2  505  501  0.27536844798E+02  0.16767026012E+02 -0.30978591637E+02  0.44711118556E+02  0.00000000000E+00 0. -1.
         21    1    1    2  506  502 -0.48265248422E+02  0.25797251944E+02 -0.75644669634E+03  0.75842378445E+03  0.00000000000E+00 0.  1.
<scales pt_clust_3="14000.00000" pt_clust_4="103.42285" pt_clust_5="32.23990" pt_clust_6="54.51851"></scales>
<clustering>
<clus scale="   32.240">  1  5  2 -1</clus>
<clus scale="   54.519">  2  6  1 -1</clus>
<clus scale="  103.423">  2  4  1 -1</clus>
<clus scale="   32.240">  1  3  2 -1</clus>
</clustering>
</event>
<event>
 6    0  0.2038863E+003  0.1246959E+03  0.7546771E-02  0.1235545E+00
         21   -1    0    0  503  501  0.00000000000E+00  0.00000000000E+00  0.60283231312E+03  0.60283231312E+03  0.00000000000E+00 0. -1.
         21   -1    0    0  505  502 -0.00000000000E+00 -0.00000000000E+00 -0.32779318335E+03  0.32779318335E+03  0.00000000000E+00 0.  1.
         21    1    1    2  503  502  0.14955581855E+02  0.38432456673E+02  0.61078603095E+02  0.73697482389E+02  0.00000000000E+00 0. -1.
         21    1    1    2  504  506  0.63286684469E+02  0.28504028600E+01  0.10550664411E+03  0.12306494700E+03  0.00000000000E+00 0. -1.
         21    1    1    2  505  504 -0.13215137036E+03 -0.54944667754E+01 -0.29603092968E+03  0.32423523125E+03  0.00000000000E+00 0.  1.
         21    1    1    2  506  501  0.53909104041E+02 -0.35788392757E+02  0.40448481224E+03  0.40962783583E+03  0.00000000000E+00 0. -1.
<scales pt_clust_3="41.23982" pt_clust_4="124.69590" pt_clust_5="14000.00000" pt_clust_6="65.60857"></scales>
<clustering>
<clus scale="   41.240">  1  3  2 -1</clus>
<clus scale="   65.609">  1  6  2 -1</clus>
<clus scale="  124.696">  1  4  2 -1</clus>
<clus scale="   41.240">  1  3  2 -1</clus>
</clustering>
</event>
<event>
 6    0  0.1221518E+003  0.1048738E+03  0.7546771E-02  0.1270368E+00
         21   -1    0    0  503  501  0.00000000000E+00  0.00000000000E+00  0.80401509113E+03  0.80401509113E+03  0.00000000000E+00 0.  1.
         21   -1    0    0  506  502 -0.00000000000E+00 -0.00000000000E+00 -0.18503316806E+03  0.18503316806E+03  0.00000000000E+00 0.  1.
         21    1    1    2  503  505  0.41730315572E+02  0.51824783387E+01  0.23927539609E+03  0.24294236455E+03  0.00000000000E+00 0.  1.
         21    1    1    2  504  502 -0.63984824730E+02 -0.82225724232E+02 -0.15153681178E+03  0.18389815890E+03  0.00000000000E+00 0.  1.
         21    1    1    2  505  504  0.33805530799E+02  0.12211342171E+03  0.28928928776E+03  0.31582082529E+03  0.00000000000E+00 0.  1.
         21    1    1    2  506  501 -0.11551021641E+02 -0.45070175817E+02  0.24195405100E+03  0.24638691045E+03  0.00000000000E+00 0.  1.
<scales pt_clust_3="42.05089" pt_clust_4="104.87381" pt_clust_5="14000.00000" pt_clust_6="43.32026"></scales>
<clustering>
<clus scale="   42.051">  1  3  2 -1</clus>
<clus scale="   43.320">  1  6  2 -1</clus>
<clus scale="  104.874">  2  4  1 -1</clus>
<clus scale="   42.051">  1  3  2 -1</clus>
</clustering>
</event>
<event>
 6    0  0.1221518E+003  0.1296791E+03  0.7546771E-02  0.1227933E+00
         21   -1    0    0  504  501  0.00000000000E+00  0.00000000000E+00  0.65110543093E+03  0.65110543093E+03  0.00000000000E+00 0.  1.
         21   -1    0    0  505  502 -0.00000000000E+00 -0.00000000000E+00 -0.22628359073E+03  0.22628359073E+03  0.00000000000E+00 0.  1.
         21    1    1    2  503  502  0.76842552342E+02  0.94785206954E+02 -0.19828893844E+03  0.23282507686E+03  0.00000000000E+00 0.  1.
         21    1    1    2  504  503 -0.28975814351E+02  0.13261990863E+02  0.65635127027E+02  0.72961963507E+02  0.00000000000E+00 0.  1.
         21    1    1    2  505  506 -0.33393001320E+02 -0.26093131165E+02  0.16082788331E+03  0.16631762408E+03  0.00000000000E+00 0.  1.
         21    1    1    2  506  501 -0.14473736670E+02 -0.81954066652E+02  0.39664776830E+03  0.40528435721E+03  0.00000000000E+00 0.  1.
<scales pt_clust_3="121.78816" pt_clust_4="31.86657" pt_clust_5="31.78755" pt_clust_6="31.78755"></scales>
<clustering>
<clus scale="   31.788">  5  6 -1 -1</clus>
<clus scale="   31.867">  1  4  2 -1</clus>
<clus scale="  121.788">  2  3  1 -1</clus>
<clus scale="   31.867">  1  3  2 -1</clus>
</clustering>
</event>
<event>
 6    0  0.1221518E+003  0.3644700E+03  0.7546771E-02  0.1056828E+00
         21   -1    0    0  505  501  0.00000000000E+00  0.00000000000E+00  0.31678186138E+03  0.31678186138E+03  0.00000000000E+00 0.  1.
         21   -1    0    0  503  502 -0.00000000000E+00 -0.00000000000E+00 -0.68956756164E+03  0.68956756164E+03  0.00000000000E+00 0. -1.
         21    1    1    2  503  501 -0.24772886924E+01 -0.40012686872E+02  0.30530446154E+02  0.50391072745E+02  0.00000000000E+00 0.  1.
         21    1    1    2  504  506  0.36317992509E+03  0.13631075005E+03 -0.57768337433E+02  0.39219569016E+03  0.00000000000E+00 0.  1.
         21    1    1    2  505  504 -0.24696685507E+02  0.17343291147E+02  0.33193121164E+02  0.44860888483E+02  0.00000000000E+00 0. -1.
         21    1    1    2  506  502 -0.33600595089E+03 -0.11364135433E+03 -0.37874093014E+03  0.51890177164E+03  0.00000000000E+00 0. -1.
<scales pt_clust_3="37.97532" pt_clust_4="364.46997" pt_clust_5="30.17807" pt_clust_6="14000.00000"></scales>
<clustering>
<clus scale="   30.178">  1  5  2 -1</clus>
<clus scale="   37.975">  1  3  2 -1</clus>
<clus scale="  364.470">  1  4  2 -1</clus>
<clus scale="   30.178">  1  3  2 -1</clus>
</clustering>
</event>
<event>
 6    0  0.1221518E+003  0.1368240E+03  0.7546771E-02  0.1217668E+00
         21   -1    0    0  505  501  0.00000000000E+00  0.00000000000E+00  0.20376995960E+03  0.20376995960E+03  0.00000000000E+00 0.  1.
         21   -1    0    0  503  502 -0.00000000000E+00 -0.00000000000E+00 -0.19032962088E+04  0.19032962088E+04  0.00000000000E+00 0.  1.
         21    1    1    2  503  504  0.11844414757E+03 -0.10481160173E+03 -0.31739209358E+03  0.35461560741E+03  0.00000000000E+00 0.  1.
         21    1    1    2  504  501 -0.19919721475E+02  0.43821696834E+02 -0.57765667802E+01  0.48482008424E+02  0.00000000000E+00 0.  1.
         21    1    1    2  505  506 -0.97901180283E+02  0.28702398161E+02  0.14773242188E+03  0.17953645099E+03  0.00000000000E+00 0.  1.
         21    1    1    2  506  502 -0.62324581310E+00  0.32287506735E+02 -0.15240900107E+04  0.15244321015E+04  0.00000000000E+00 0.  1.
<scales pt_clust_3="14000.00000" pt_clust_4="50.26726" pt_clust_5="136.82396" pt_clust_6="32.29352"></scales>
<clustering>
<clus scale="   32.294">  2  6  1 -1</clus>
<clus scale="   50.267">  1  4  2 -1</clus>
<clus scale="  136.824">  1  5  2 -1</clus>
<clus scale="   50.267">  1  3  2 -1</clus>
</clustering>
</event>
<event>
 6    0  0.1221518E+003  0.1354641E+03  0.7546771E-02  0.1219566E+00
         21   -1    0    0  506  501  0.00000000000E+00  0.00000000000E+00  0.16031527463E+04  0.16031527463E+04  0.00000000000E+00 0. -1.
         21   -1    0    0  504  502 -0.00000000000E+00 -0.00000000000E+00 -0.56314354123E+03  0.56314354123E+03  0.00000000000E+00 0. -1.
         21    1    1    2  503  502 -0.11095508399E+03 -0.77628304476E+02 -0.11925606777E+03  0.18044166376E+03  0.00000000000E+00 0. -1.
         21    1    1    2  504  505  0.22569859424E+02 -0.20771352865E+02 -0.38820022634E+03  0.38941014803E+03  0.00000000000E+00 0. -1.
         21    1    1    2  505  501 -0.28061176507E+02 -0.16988285318E+02  0.12950571608E+04  0.12954725321E+04  0.00000000000E+00 0. -1.
         21    1    1    2  506  503  0.11644640107E+03  0.11538794266E+03  0.25240833839E+03  0.30097194374E+03  0.00000000000E+00 0. -1.
<scales pt_clust_3="135.46414" pt_clust_4="30.67324" pt_clust_5="32.79275" pt_clust_6="14000.00000"></scales>
<clustering>
<clus scale="   30.673">  2  4  1 -1</clus>
<clus scale="   32.793">  1  5  2 -1</clus>
<clus scale="  135.464">  2  3  1 -1</clus>
<clus scale="   32.793">  1  3  2 -1</clus>
</clustering>
</event>
<event>
 6    0  0.1221518E+003  0.1217978E+03  0.7546771E-02  0.1240160E+00
         21   -1    0    0  506  501  0.00000000000E+00  0.00000000000E+00  0.17255034933E+04  0.17255034933E+04  0.00000000000E+00 0. -1.
         21   -1    0    0  505  502 -0.00000000000E+00 -0.00000000000E+00 -0.18415401990E+03  0.18415401990E+03  0.00000000000E+00 0.  1.
         21    1    1    2  503  501 -0.83164776631E+01 -0.53231318552E+02  0.81546795426E+03  0.81724581461E+03  0.00000000000E+00 0. -1.
         21    1    1    2  504  502 -0.75333034321E+02  0.95639344891E+02 -0.15337225962E+03  0.19581879474E+03  0.00000000000E+00 0.  1.
         21    1    1    2  505  503  0.11856849789E+03 -0.63224800747E+02  0.64669062665E+03  0.66050331621E+03  0.00000000000E+00 0. -1.
         21    1    1    2  506  504 -0.34918985904E+02  0.20816774408E+02  0.23256315209E+03  0.23608958763E+03  0.00000000000E+00 0. -1.
<scales pt_clust_3="50.02745" pt_clust_4="14000.00000" pt_clust_5="121.79783" pt_clust_6="40.65309"></scales>
<clustering>
<clus scale="   40.653">  1  6  2 -1</clus>
<clus scale="   50.027">  1  3  2 -1</clus>
<clus scale="  121.798">  1  5  2 -1</clus>
<clus scale="   40.653">  1  3  2 -1</clus>
</clustering>
</event>
<event>
 6    0  0.1221518E+003  0.1413204E+03  0.7546771E-02  0.1211563E+00
         21   -1    0    0  506  501  0.00000000000E+00  0.00000000000E+00  0.33073662092E+03  0.33073662092E+03  0.00000000000E+00 0. -1.
         21   -1    0    0  501  502 -0.00000000000E+00 -0.00000000000E+00 -0.13253362955E+03  0.13253362955E+03  0.00000000000E+00 0. -1.
         21    1    1    2  503  505 -0.30326769011E+02  0.30573205417E+02  0.84956481067E+01  0.43893163988E+02  0.00000000000E+00 0. -1.
         21    1    1    2  504  502 -0.32668047704E+01 -0.10857725720E+03 -0.22388747392E+02  0.11090964252E+03  0.00000000000E+00 0. -1.
         21    1    1    2  505  504  0.21506629705E+02  0.13109755636E+03  0.57862608815E+02  0.14490405758E+03  0.00000000000E+00 0. -1.
         21    1    1    2  506  503  0.12086944076E+02 -0.53093504578E+02  0.15423348184E+03  0.16356338639E+03  0.00000000000E+00 0. -1.
<scales pt_clust_3="40.36196" pt_clust_4="122.25267" pt_clust_5="40.36196" pt_clust_6="54.45195"></scales>
<clustering>
<clus scale="   40.362">  3  5 -1 -1</clus>
<clus scale="   54.452">  1  6  2 -1</clus>
<clus scale="  122.253">  2  4  1 -1</clus>
<clus scale="   54.452">  1  3  2 -1</clus>
</clustering>
</event>
<event>
 6    0  0.1221518E+003  0.1449614E+03  0.7546771E-02  0.1206805E+00
         21   -1    0    0  506  501  0.00000000000E+00  0.00000000000E+00  0.27200948258E+03  0.27200948258E+03  0.00000000000E+00 0.  1.
         21   -1    0    0  504  502 -0.00000000000E+00 -0.00000000000E+00 -0.73350329937E+03  0.73350329937E+03  0.00000000000E+00 0. -1.
         21    1    1    2  503  501  0.55213529797E+02 -0.36467443311E+02  0.15612243941E+03  0.16956598828E+03  0.00000000000E+00 0.  1.
         21    1    1    2  504  505  0.33127125197E+01  0.15139060992E+03 -0.66136810976E+03  0.67848203177E+03  0.00000000000E+00 0. -1.
         21    1    1    2  505  503 -0.66538665279E+02 -0.76801771713E+02  0.56762143849E+02  0.11639521936E+03  0.00000000000E+00 0.  1.
         21    1    1    2  506  502  0.80124229620E+01 -0.38121394896E+02 -0.13010290290E+02  0.41069542534E+02  0.00000000000E+00 0.  1.
<scales pt_clust_3="85.42007" pt_clust_4="14000.00000" pt_clust_5="144.96136" pt_clust_6="38.95433"></scales>
<clustering>
<clus scale="   38.954">  1  6  2 -1</clus>
<clus scale="   85.420">  1  3  2 -1</clus>
<clus scale="  144.961">  1  5  2 -1</clus>
<clus scale="   38.954">  1  3  2 -1</clus>
</clustering>
</event>
<event>
 6    0  0.1221518E+003  0.8835236E+02  0.7546771E-02  0.1306891E+00
         21   -1    0    0  503  501  0.00000000000E+00  0.00000000000E+00  0.26659109347E+02  0.26659109347E+02  0.00000000000E+00 0.  1.
         21   -1    0    0  505  502 -0.00000000000E+00 -0.00000000000E+00 -0.11321716611E+04  0.11321716611E+04  0.00000000000E+00 0.  1.
         21    1    1    2  503  506 -0.15093282204E+02  0.34269736164E+02 -0.21292384783E+02  0.43076532291E+02  0.00000000000E+00 0.  1.
         21    1    1    2  504  502  0.44545217982E+02  0.10939814215E+02 -0.51985732687E+03  0.52187699344E+03  0.00000000000E+00 0.  1.
         21    1    1    2  505  501 -0.10095108902E+03 -0.41330596404E+02 -0.27643747759E+03  0.29718179552E+03  0.00000000000E+00 0.  1.
         21    1    1    2  506  504  0.71499153239E+02 -0.38789539750E+01 -0.28792536254E+03  0.29669544923E+03  0.00000000000E+00 0.  1.
<scales pt_clust_3="37.44625" pt_clust_4="45.51493" pt_clust_5="88.35236" pt_clust_6="14000.00000"></scales>
<clustering>
<clus scale="   37.446">  1  3  2 -1</clus>
<clus scale="   45.515">  2  4  1 -1</clus>
<clus scale="   88.352">  2  5  1 -1</clus>
<clus scale="   37.446">  1  3  2 -1</clus>
</clustering>
</event>
<event>
 6    0  0.1221518E+003  0.1368501E+03  0.7546771E-02  0.1217631E+00
         21   -1    0    0  506  501  0.00000000000E+00  0.00000000000E+00  0.87365117682E+03  0.87365117682E+03  0.00000000000E+00 0. -1.
         21   -1    0    0  501  502 -0.00000000000E+00 -0.00000000000E+00 -0.90828438206E+03  0.90828438206E+03  0.00000000000E+00 0. -1.
         21    1    1    2  503  504  0.20027549020E+02 -0.17579028045E+03  0.10373893020E+03  0.20509775977E+03  0.00000000000E+00 0. -1.
         21    1    1    2  504  502  0.51340649817E+01  0.42936449546E+02 -0.84724443791E+03  0.84834723721E+03  0.00000000000E+00 0. -1.
         21    1    1    2  505  503  0.23997829415E+01  0.11324620310E+03  0.34653218913E+03  0.36457512200E+03  0.00000000000E+00 0. -1.
         21    1    1    2  506  505 -0.27561396943E+02  0.19607627812E+02  0.36234011333E+03  0.36391543990E+03  0.00000000000E+00 0. -1.
<scales pt_clust_3="14000.00000" pt_clust_4="43.25981" pt_clust_5="136.85015" pt_clust_6="33.82439"></scales>
<clustering>
<clus scale="   33.824">  1  6  2 -1</clus>
<clus scale="   43.260">  2  4  1 -1</clus>
<clus scale="  136.850">  1  5  2 -1</clus>
<clus scale="   33.824">  1  3  2 -1</clus>
</clustering>
</event>
<event>
 6    0  0.1221518E+003  0.1113461E+03  0.7546771E-02  0.1258097E+00
         21   -1    0    0  506  501  0.00000000000E+00  0.00000000000E+00  0.17521632106E+04  0.17521632106E+04  0.00000000000E+00 0. -1.
         21   -1    0    0  504  502 -0.00000000000E+00 -0.00000000000E+00 -0.13782596746E+03  0.13782596746E+03  0.00000000000E+00 0. -1.
         21    1    1    2  503  502 -0.10255633767E+03 -0.60729318528E+02 -0.69466420790E+02  0.13795447126E+03  0.00000000000E+00 0. -1.
         21    1    1    2  504  505  0.33483347799E+02  0.10438655721E+03  0.72355035689E+02  0.13135044383E+03  0.00000000000E+00 0.  1.
         21    1    1    2  505  501  0.10075592583E+03 -0.50155981058E+02  0.15103620024E+04  0.15145496880E+04  0.00000000000E+00 0. -1.
         21    1    1    2  506  503 -0.31682935962E+02  0.64987423771E+01  0.10108662580E+03  0.10613457495E+03  0.00000000000E+00 0. -1.
<scales pt_clust_3="111.34612" pt_clust_4="14000.00000" pt_clust_5="84.21603" pt_clust_6="32.34257"></scales>
<clustering>
<clus scale="   32.343">  1  6  2 -1</clus>
<clus scale="   84.216">  1  5  2 -1</clus>
<clus scale="  111.346">  2  3  1 -1</clus>
<clus scale="   32.343">  1  3  2 -1</clus>
</clustering>
</event>
<event>
 6    0  0.1221518E+003  0.1059343E+03  0.7546771E-02  0.1268290E+00
         21   -1    0    0  503  501  0.00000000000E+00  0.00000000000E+00  0.20396962173E+04  0.20396962173E+04  0.00000000000E+00 0. -1.
         21   -1    0    0  505  502 -0.00000000000E+00 -0.00000000000E+00 -0.13528613842E+03  0.13528613842E+03  0.00000000000E+00 0. -1.
         21    1    1    2  503  506 -0.27664858570E+02  0.41634427315E+02  0.12979352335E+04  0.12988974710E+04  0.00000000000E+00 0. -1.
         21    1    1    2  504  501 -0.36708793181E+02 -0.40833728416E+02  0.24836676425E+03  0.25436387019E+03  0.00000000000E+00 0. -1.
         21    1    1    2  505  504  0.98970585233E+02 -0.44847428529E+02 -0.10744550574E+03  0.15281035727E+03  0.00000000000E+00 0. -1.
         21    1    1    2  506  502 -0.34596933482E+02  0.44046729630E+02  0.46555358696E+03  0.46891065730E+03  0.00000000000E+00 0. -1.
<scales pt_clust_3="49.98770" pt_clust_4="53.27288" pt_clust_5="14000.00000" pt_clust_6="105.93432"></scales>
<clustering>
<clus scale="   49.988">  1  3  2 -1</clus>
<clus scale="   53.273">  1  4  2 -1</clus>
<clus scale="  105.934">  1  6  2 -1</clus>
<clus scale="   49.988">  1  3  2 -1</clus>
</clustering>
</event>
<event>
 6    0  0.1221518E+003  0.9514993E+02  0.7546771E-02  0.1290839E+00
         21   -1    0    0  504  501  0.00000000000E+00  0.00000000000E+00  0.11160971334E+04  0.11160971334E+04  0.00000000000E+00 0. -1.
         21   -1    0    0  503  502 -0.00000000000E+00 -0.00000000000E+00 -0.51577119807E+02  0.51577119807E+02  0.00000000000E+00 0. -1.
         21    1    1    2  503  505  0.51201290635E+02  0.26026137834E+02  0.24132434613E+02  0.62300131730E+02  0.00000000000E+00 0. -1.
         21    1    1    2  504  502  0.38326109618E+02 -0.22122014366E+02  0.57980399926E+02  0.72938336790E+02  0.00000000000E+00 0. -1.
         21    1    1    2  505  506 -0.10593614181E+03  0.87989347962E+02  0.19059631063E+03  0.23514154274E+03  0.00000000000E+00 0. -1.
         21    1    1    2  506  501  0.16408741554E+02 -0.91893471430E+02  0.79181086846E+03  0.79729424199E+03  0.00000000000E+00 0. -1.
<scales pt_clust_3="69.75528" pt_clust_4="44.25239" pt_clust_5="14000.00000" pt_clust_6="95.14993"></scales>
<clustering>
<clus scale="   44.252">  2  4  1 -1</clus>
<clus scale="   69.755">  2  3  1 -1</clus>
<clus scale="   95.150">  1  6  2 -1</clus>
<clus scale="   95.150">  1  3  2 -1</clus>
</clustering>
</event>
<event>
 6    0  0.1221518E+003  0.1240138E+03  0.7546771E-02  0.1236619E+00
         21   -1    0    0  502  501  0.00000000000E+00  0.00000000000E+00  0.35786992582E+03  0.35786992582E+03  0.00000000000E+00 0.  1.
         21   -1    0    0  504  502 -0.00000000000E+00 -0.00000000000E+00 -0.69103079066E+03  0.69103079066E+03  0.00000000000E+00 0.  1.
         21    1    1    2  503  505 -0.56584255664E+02 -0.59082853679E+02  0.16743221654E+03  0.18634942641E+03  0.00000000000E+00 0.  1.
         21    1    1    2  504  506  0.25851411888E+02 -0.27001764337E+02 -0.60218307983E+03  0.60334223489E+03  0.00000000000E+00 0.  1.
         21    1    1    2  505  501  0.40641074885E+01 -0.37993130704E+02  0.12451310082E+03  0.13024402952E+03  0.00000000000E+00 0.  1.
         21    1    1    2  506  503  0.26668736287E+02  0.12407774872E+03 -0.22923102370E+02  0.12896502567E+03  0.00000000000E+00 0.  1.
<scales pt_clust_3="36.27449" pt_clust_4="37.38169" pt_clust_5="36.27449" pt_clust_6="112.08111"></scales>
<clustering>
<clus scale="   36.274">  3  5 -1 -1</clus>
<clus scale="   37.382">  2  4  1 -1</clus>
<clus scale="  112.081">  2  6  1 -1</clus>
<clus scale="  124.014">  1  3  2 -1</clus>
</clustering>
</event>
<event>
 6    0  0.1221518E+003  0.1163623E+03  0.7546771E-02  0.1249222E+00
         21   -1    0    0  506  501  0.00000000000E+00  0.00000000000E+00  0.43222951125E+03  0.43222951125E+03  0.00000000000E+00 0.  1.
         21   -1    0    0  503  502 -0.00000000000E+00 -0.00000000000E+00 -0.67321330611E+02  0.67321330611E+02  0.00000000000E+00 0. -1.
         21    1    1    2  503  505 -0.48995557387E+02  0.90866716140E+00  0.50565319471E+01  0.49264173950E+02  0.00000000000E+00 0.  1.
         21    1    1    2  504  502 -0.16694635949E+01  0.43303259622E+02  0.74050938401E+02  0.85799189277E+02  0.00000000000E+00 0.  1.
         21    1    1    2  505  501  0.16308941916E+02 -0.10549922830E+03  0.48958638746E+02  0.11744367614E+03  0.00000000000E+00 0. -1.
         21    1    1    2  506  504  0.34356079066E+02  0.61287301515E+02  0.23684207155E+03  0.24704380249E+03  0.00000000000E+00 0.  1.
<scales pt_clust_3="49.00398" pt_clust_4="36.18098" pt_clust_5="106.85404" pt_clust_6="36.18098"></scales>
<clustering>
<clus scale="   36.181">  4  6 -1 -1</clus>
<clus scale="   49.004">  2  3  1 -1</clus>
<clus scale="  106.854">  2  5  1 -1</clus>
<clus scale="  116.362">  1  3  2 -1</clus>
</clustering>
</event>
<event>
 6    0  0.1221518E+003  0.7653515E+02  0.7546771E-02  0.1339182E+00
         21   -1    0    0  504  501  0.00000000000E+00  0.00000000000E+00  0.19720857646E+04  0.19720857646E+04  0.00000000000E+00 0. -1.
         21   -1    0    0  506  502 -0.00000000000E+00 -0.00000000000E+00 -0.20832726060E+02  0.20832726060E+02  0.00000000000E+00 0.  1.
         21    1    1    2  503  502 -0.73262768675E+01  0.35446101838E+02  0.10398340983E+03  0.11010290636E+03  0.00000000000E+00 0.  1.
         21    1    1    2  504  503 -0.11938840060E+03 -0.70460663399E+01  0.31231164069E+03  0.33442756788E+03  0.00000000000E+00 0.  1.
         21    1    1    2  505  501  0.68093108027E+02 -0.28103384521E+02  0.13910331684E+04  0.13929823212E+04  0.00000000000E+00 0. -1.
         21    1    1    2  506  505  0.58621569441E+02 -0.29665097740E+00  0.14392481963E+03  0.15540569524E+03  0.00000000000E+00 0. -1.
<scales pt_clust_3="36.19531" pt_clust_4="14000.00000" pt_clust_5="76.53515" pt_clust_6="57.35000"></scales>
<clustering>
<clus scale="   36.195">  2  3  1 -1</clus>
<clus scale="   57.350">  2  6  1 -1</clus>
<clus scale="   76.535">  1  5  2 -1</clus>
<clus scale="   76.535">  1  3  2 -1</clus>
</clustering>
</event>
<event>
 6    0  0.1221518E+003  0.1009637E+03  0.7546771E-02  0.1278282E+00
         21   -1    0    0  505  501  0.00000000000E+00  0.00000000000E+00  0.15296593887E+03  0.15296593887E+03  0.00000000000E+00 0. -1.
         21   -1    0    0  506  502 -0.00000000000E+00 -0.00000000000E+00 -0.35146944598E+03  0.35146944598E+03  0.00000000000E+00 0. -1.
         21    1    1    2  503  502 -0.41359326928E+02 -0.49872621458E+02 -0.29396625712E+02  0.71147971849E+02  0.00000000000E+00 0. -1.
         21    1    1    2  504  501 -0.55378556719E+02  0.79000402830E+02 -0.31924998888E+02  0.10162211248E+03  0.00000000000E+00 0. -1.
         21    1    1    2  505  503  0.11856550015E+03  0.33784786581E+02  0.49964077840E+02  0.13302480485E+03  0.00000000000E+00 0. -1.
         21    1    1    2  506  504 -0.21827616503E+02 -0.62912567952E+02 -0.18714596034E+03  0.19864049567E+03  0.00000000000E+00 0. -1.
<scales pt_clust_3="64.79099" pt_clust_4="93.71649" pt_clust_5="14000.00000" pt_clust_6="100.96366"></scales>
<clustering>
<clus scale="   64.791">  2  3  1 -1</clus>
<clus scale="   93.716">  1  4  2 -1</clus>
<clus scale="  100.964">  2  6  1 -1</clus>
<clus scale="   93.716">  1  3  2 -1</clus>
</clustering>
</event>
<event>
 6    0  0.1221518E+003  0.1049124E+03  0.7546771E-02  0.1270292E+00
         21   -1    0    0  505  501  0.00000000000E+00  0.00000000000E+00  0.16871263429E+04  0.16871263429E+04  0.00000000000E+00 0. -1.
         21   -1    0    0  503  502 -0.00000000000E+00 -0.00000000000E+00 -0.11897875517E+04  0.11897875517E+04  0.00000000000E+00 0.  1.
         21    1    1    2  503  501 -0.61261350146E+02 -0.14490929380E+02 -0.63432707748E+03  0.63744315925E+03  0.00000000000E+00 0.  1.
         21    1    1    2  504  502 -0.44727937862E+02  0.45008362630E+02 -0.52184414344E+03  0.52568778868E+03  0.00000000000E+00 0.  1.
         21    1    1    2  505  506  0.36375798056E+02  0.35495217169E+02  0.16058618606E+04  0.16066659343E+04  0.00000000000E+00 0. -1.
         21    1    1    2  506  504  0.69613489952E+02 -0.66012650418E+02  0.47648151447E+02  0.10711701235E+03  0.00000000000E+00 0. -1.
<scales pt_clust_3="62.11444" pt_clust_4="104.91240" pt_clust_5="50.82430" pt_clust_6="14000.00000"></scales>
<clustering>
<clus scale="   50.824">  1  5  2 -1</clus>
<clus scale="   62.114">  2  3  1 -1</clus>
<clus scale="  104.912">  2  4  1 -1</clus>
<clus scale="   50.824">  1  3  2 -1</clus>
</clustering>
</event>
<event>
 6    0  0.1221518E+003  0.1071991E+03  0.7546771E-02  0.1265846E+00
         21   -1    0    0  506  501  0.00000000000E+00  0.00000000000E+00  0.15989611417E+03  0.15989611417E+03  0.00000000000E+00 0.  1.
         21   -1    0    0  503  502 -0.00000000000E+00 -0.00000000000E+00 -0.76892506566E+03  0.76892506566E+03  0.00000000000E+00 0. -1.
         21    1    1    2  503  505  0.56522624018E+02 -0.48227729973E+02 -0.39122747977E+03  0.39822061962E+03  0.00000000000E+00 0. -1.
         21    1    1    2  504  501  0.35957035357E+02 -0.25854154474E+02  0.99836343798E+02  0.10921831915E+03  0.00000000000E+00 0.  1.
         21    1    1    2  505  504 -0.15240599538E+03  0.27849927463E+02 -0.84942934070E+02  0.17668759984E+03  0.00000000000E+00 0. -1.
         21    1    1    2  506  502  0.59926336005E+02  0.46231956984E+02 -0.23269488145E+03  0.24469464123E+03  0.00000000000E+00 0. -1.
<scales pt_clust_3="77.08903" pt_clust_4="44.28708" pt_clust_5="107.19906" pt_clust_6="14000.00000"></scales>
<clustering>
<clus scale="   44.287">  1  4  2 -1</clus>
<clus scale="   77.089">  2  3  1 -1</clus>
<clus scale="  107.199">  1  5  2 -1</clus>
<clus scale="   44.287">  1  3  2 -1</clus>
</clustering>
</event>
<event>
 6    0  0.1221518E+003  0.7478115E+02  0.7546771E-02  0.1344550E+00
         21   -1    0    0  506  501  0.00000000000E+00  0.00000000000E+00  0.44622627955E+03  0.44622627955E+03  0.00000000000E+00 0.  1.
         21   -1    0    0  505  502 -0.00000000000E+00 -0.00000000000E+00 -0.52284796917E+03  0.52284796917E+03  0.00000000000E+00 0.  1.
         21    1    1    2  503  502  0.46575891710E+02  0.72575309797E+02 -0.11792821333E+02  0.87037692500E+02  0.00000000000E+00 0.  1.
         21    1    1    2  504  503  0.26136868344E+02 -0.46841905201E+02 -0.41524213150E+02  0.67834801153E+02  0.00000000000E+00 0. -1.
         21    1    1    2  505  501  0.72104684308E+00 -0.49534275660E+02 -0.41349331004E+03  0.41645033536E+03  0.00000000000E+00 0.  1.
         21    1    1    2  506  504 -0.73433806898E+02  0.23800871063E+02  0.39018865490E+03  0.39775141970E+03  0.00000000000E+00 0.  1.
<scales pt_clust_3="68.47407" pt_clust_4="74.78115" pt_clust_5="49.53952" pt_clust_6="14000.00000"></scales>
<clustering>
<clus scale="   49.540">  2  5  1 -1</clus>
<clus scale="   68.474">  2  3  1 -1</clus>
<clus scale="   74.781">  2  4  1 -1</clus>
<clus scale="   74.781">  1  3  2 -1</clus>
</clustering>
</event>
<event>
 6    0  0.1221518E+003  0.1045903E+03  0.7546771E-02  0.1270929E+00
         21   -1    0    0  506  501  0.00000000000E+00  0.00000000000E+00  0.40293337624E+03  0.40293337624E+03  0.00000000000E+00 0.  1.
         21   -1    0    0  504  502 -0.00000000000E+00 -0.00000000000E+00 -0.95871654926E+03  0.95871654926E+03  0.00000000000E+00 0.  1.
         21    1    1    2  503  502 -0.40441220737E+01  0.51464381784E+02 -0.44569635877E+03  0.44867603205E+03  0.00000000000E+00 0.  1.
         21    1    1    2  504  501 -0.14264380583E+02  0.32829165837E+02  0.29483457630E+02  0.46373494119E+02  0.00000000000E+00 0. -1.
         21    1    1    2  505  503  0.87322844920E+02  0.13130774758E+02 -0.48922153186E+03  0.49712715046E+03  0.00000000000E+00 0.  1.
         21    1    1    2  506  505 -0.69014342264E+02 -0.97424322379E+02  0.34965125997E+03  0.36947324887E+03  0.00000000000E+00 0.  1.
<scales pt_clust_3="51.76120" pt_clust_4="35.79423" pt_clust_5="104.59033" pt_clust_6="14000.00000"></scales>
<clustering>
<clus scale="   35.794">  1  4  2 -1</clus>
<clus scale="   51.761">  2  3  1 -1</clus>
<clus scale="  104.590">  2  5  1 -1</clus>
<clus scale="   35.794">  1  3  2 -1</clus>
</clustering>
</event>
<event>
 6    0  0.1221518E+003  0.1179291E+03  0.7546771E-02  0.1246553E+00
         21   -1    0    0  505  501  0.00000000000E+00  0.00000000000E+00  0.29657687437E+02  0.29657687437E+02  0.00000000000E+00 0.  1.
         21   -1    0    0  503  502 -0.00000000000E+00 -0.00000000000E+00 -0.79980403253E+03  0.79980403253E+03  0.00000000000E+00 0.  1.
         21    1    1    2  503  506 -0.14200051365E+02  0.63193460486E+02 -0.20689961098E+03  0.21680060869E+03  0.00000000000E+00 0.  1.
         21    1    1    2  504  502  0.20289849952E+02 -0.44366800069E+02 -0.66288181245E+02  0.82305613006E+02  0.00000000000E+00 0.  1.
         21    1    1    2  505  504  0.75956386759E+02 -0.45041872048E+02 -0.16205705295E+03  0.18455522571E+03  0.00000000000E+00 0.  1.
         21    1    1    2  506  501 -0.82046185346E+02  0.26215211631E+02 -0.33490149992E+03  0.34580027255E+03  0.00000000000E+00 0.  1.
<scales pt_clust_3="64.76924" pt_clust_4="31.67365" pt_clust_5="31.67365" pt_clust_6="109.96070"></scales>
<clustering>
<clus scale="   31.674">  4  5 -1 -1</clus>
<clus scale="   64.769">  2  3  1 -1</clus>
<clus scale="  109.961">  2  6  1 -1</clus>
<clus scale="  117.929">  1  3  2 -1</clus>
</clustering>
</event>
<event>
 6    0  0.1221518E+003  0.1122424E+03  0.7546771E-02  0.1256473E+00
         21   -1    0    0  506  501  0.00000000000E+00  0.00000000000E+00  0.41523753143E+02  0.41523753143E+02  0.00000000000E+00 0.  1.
         21   -1    0    0  505  502 -0.00000000000E+00 -0.00000000000E+00 -0.14181146699E+04  0.14181146699E+04  0.00000000000E+00 0. -1.
         21    1    1    2  503  502  0.46604389614E+02  0.11798705302E+02 -0.77195264463E+03  0.77344816512E+03  0.00000000000E+00 0. -1.
         21    1    1    2  504  503 -0.93962422044E+02 -0.44463373166E+02 -0.37692929506E+03  0.39100079512E+03  0.00000000000E+00 0. -1.
         21    1    1    2  505  501  0.58488176183E+02  0.72198025376E+02 -0.36841960541E+02  0.99953747694E+02  0.00000000000E+00 0.  1.
         21    1    1    2  506  504 -0.11130143753E+02 -0.39533357513E+02 -0.19086701650E+03  0.19523571508E+03  0.00000000000E+00 0. -1.
<scales pt_clust_3="48.07472" pt_clust_4="35.44944" pt_clust_5="97.04464" pt_clust_6="35.44944"></scales>
<clustering>
<clus scale="   35.449">  4  6 -1 -1</clus>
<clus scale="   48.075">  2  3  1 -1</clus>
<clus scale="   97.045">  1  5  2 -1</clus>
<clus scale="   97.045">  1  3  2 -1</clus>
</clustering>
</event>
<event>
 6    0  0.1221518E+003  0.8309716E+02  0.7546771E-02  0.1320485E+00
         21   -1    0    0  506  501  0.00000000000E+00  0.00000000000E+00  0.86112742975E+02  0.86112742975E+02  0.00000000000E+00 0.  1.
         21   -1    0    0  504  502 -0.00000000000E+00 -0.00000000000E+00 -0.39967129000E+03  0.39967129000E+03  0.00000000000E+00 0.  1.
         21    1    1    2  503  501  0.24678307545E+01 -0.33054983376E+02  0.48370998731E+02  0.58638516633E+02  0.00000000000E+00 0.  1.
         21    1    1    2  504  505  0.36194668207E+02 -0.27638866835E+02 -0.66872521015E+02  0.80906705738E+02  0.00000000000E+00 0.  1.
         21    1    1    2  505  503 -0.10002383782E+03  0.14346512198E+02 -0.13461515537E+03  0.16832061846E+03  0.00000000000E+00 0.  1.
         21    1    1    2  506  502  0.61361338858E+02  0.46347338013E+02 -0.16044186937E+03  0.17791819214E+03  0.00000000000E+00 0.  1.
<scales pt_clust_3="33.14698" pt_clust_4="50.56176" pt_clust_5="83.09716" pt_clust_6="14000.00000"></scales>
<clustering>
<clus scale="   33.147">  1  3  2 -1</clus>
<clus scale="   50.562">  2  4  1 -1</clus>
<clus scale="   83.097">  1  5  2 -1</clus>
<clus scale="   33.147">  1  3  2 -1</clus>
</clustering>
</event>
<event>
 6    0  0.1221518E+003  0.9913535E+02  0.7546771E-02  0.1282125E+00
         21   -1    0    0  503  501  0.00000000000E+00  0.00000000000E+00  0.31464897713E+04  0.31464897713E+04  0.00000000000E+00 0.  1.
         21   -1    0    0  504  502 -0.00000000000E+00 -0.00000000000E+00 -0.14063684674E+03  0.14063684674E+03  0.00000000000E+00 0. -1.
         21    1    1    2  503  506  0.59231070507E+02 -0.37187364913E+02  0.25245043662E+04  0.25254729289E+04  0.00000000000E+00 0.  1.
         21    1    1    2  504  505 -0.10651675252E+03  0.53121829200E+02  0.22624820690E+03  0.25564819270E+03  0.00000000000E+00 0. -1.
         21    1    1    2  505  501 -0.47553544786E+01 -0.48850902421E+02  0.37128314454E+03  0.37451328078E+03  0.00000000000E+00 0.  1.
         21    1    1    2  506  502  0.52041036492E+02  0.32916438134E+02 -0.11618279304E+03  0.13149221566E+03  0.00000000000E+00 0. -1.
<scales pt_clust_3="99.13535" pt_clust_4="14000.00000" pt_clust_5="49.08181" pt_clust_6="61.49421"></scales>
<clustering>
<clus scale="   49.082">  1  5  2 -1</clus>
<clus scale="   61.494">  2  6  1 -1</clus>
<clus scale="   99.135">  1  3  2 -1</clus>
<clus scale="   49.082">  1  3  2 -1</clus>
</clustering>
</event>
<event>
 6    0  0.1221518E+003  0.1028918E+03  0.7546771E-02  0.1274330E+00
         21   -1    0    0  506  501  0.00000000000E+00  0.00000000000E+00  0.85128150413E+03  0.85128150413E+03  0.00000000000E+00 0. -1.
         21   -1    0    0  503  502 -0.00000000000E+00 -0.00000000000E+00 -0.49101008391E+03  0.49101008391E+03  0.00000000000E+00 0. -1.
         21    1    1    2  503  504  0.90791644855E+01 -0.98207696242E+02 -0.38814204150E+03  0.40047650019E+03  0.00000000000E+00 0. -1.
         21    1    1    2  504  505  0.72436390269E+02 -0.22851494991E+02  0.77683556446E+02  0.10864601420E+03  0.00000000000E+00 0. -1.
         21    1    1    2  505  501 -0.82805876006E+01 -0.48061798694E+02  0.64528359219E+03  0.64712395951E+03  0.00000000000E+00 0. -1.
         21    1    1    2  506  502 -0.73234967154E+02  0.16912098993E+03  0.25446313088E+02  0.18604511415E+03  0.00000000000E+00 0. -1.
<scales pt_clust_3="102.89175" pt_clust_4="81.93286" pt_clust_5="48.76992" pt_clust_6="14000.00000"></scales>
<clustering>
<clus scale="   48.770">  1  5  2 -1</clus>
<clus scale="   81.933">  1  4  2 -1</clus>
<clus scale="  102.892">  2  3  1 -1</clus>
<clus scale="   48.770">  1  3  2 -1</clus>
</clustering>
</event>
<event>
 6    0  0.1221518E+003  0.6899730E+02  0.7546771E-02  0.1363536E+00
         21   -1    0    0  505  501  0.00000000000E+00  0.00000000000E+00  0.18705543047E+03  0.18705543047E+03  0.00000000000E+00 0. -1.
         21   -1    0    0  506  502 -0.00000000000E+00 -0.00000000000E+00 -0.34706156545E+03  0.34706156545E+03  0.00000000000E+00 0. -1.
         21    1    1    2  503  504 -0.72739907779E+02 -0.32597190091E+02  0.77307627631E+02  0.11104116478E+03  0.00000000000E+00 0. -1.
         21    1    1    2  504  501  0.63689595992E+02 -0.14386499966E+01  0.63663277906E+02  0.90063573687E+02  0.00000000000E+00 0. -1.
         21    1    1    2  505  502 -0.45341684800E+01 -0.49224732754E+02 -0.17145749912E+03  0.17844132650E+03  0.00000000000E+00 0. -1.
         21    1    1    2  506  503  0.13584480267E+02  0.83260572842E+02 -0.12951954139E+03  0.15457093096E+03  0.00000000000E+00 0. -1.
<scales pt_clust_3="68.99730" pt_clust_4="14000.00000" pt_clust_5="49.43312" pt_clust_6="43.75642"></scales>
<clustering>
<clus scale="   49.433">  2  5  1 -1</clus>
<clus scale="   43.756">  2  6  1 -1</clus>
<clus scale="   68.997">  2  3  1 -1</clus>
<clus scale="   68.997">  1  3  2 -1</clus>
</clustering>
</event>
<event>
 6    0  0.1221518E+003  0.1883635E+03  0.7546771E-02  0.1159946E+00
         21   -1    0    0  506  501  0.00000000000E+00  0.00000000000E+00  0.51442696001E+03  0.51442696001E+03  0.00000000000E+00 0.  1.
         21   -1    0    0  501  502 -0.00000000000E+00 -0.00000000000E+00 -0.21145223185E+03  0.21145223185E+03  0.00000000000E+00 0. -1.
         21    1    1    2  503  505  0.24071846981E+02 -0.39832455131E+02 -0.69664958709E+01  0.47059646871E+02  0.00000000000E+00 0.  1.
         21    1    1    2  504  502 -0.38615957235E+02 -0.72997177837E+02 -0.88915248838E+02  0.12134950186E+03  0.00000000000E+00 0.  1.
         21    1    1    2  505  504  0.21716979468E+02 -0.41942872963E+02 -0.58149094282E+02  0.74914277380E+02  0.00000000000E+00 0. -1.
         21    1    1    2  506  503 -0.71728692133E+01  0.15477250593E+03  0.45700556716E+03  0.48255576575E+03  0.00000000000E+00 0.  1.
<scales pt_clust_3="42.73961" pt_clust_4="81.92155" pt_clust_5="81.92155" pt_clust_6="154.93863"></scales>
<clustering>
<clus scale="   42.740">  3  5 -1 -1</clus>
<clus scale="   81.922">  3  4 -1 -1</clus>
<clus scale="  154.939">  1  6  2 -1</clus>
<clus scale="  154.939">  1  3  2 -1</clus>
</clustering>
</event>
<event>
 6    0  0.1221518E+003  0.1581300E+03  0.7546771E-02  0.1190824E+00
         21   -1    0    0  505  501  0.00000000000E+00  0.00000000000E+00  0.35241555273E+03  0.35241555273E+03  0.00000000000E+00 0.  1.
         21   -1    0    0  504  502 -0.00000000000E+00 -0.00000000000E+00 -0.36474897410E+03  0.36474897410E+03  0.00000000000E+00 0. -1.
         21    1    1    2  503  501  0.16987583886E+03 -0.13660110389E+02  0.27724640558E+03  0.32543811800E+03  0.00000000000E+00 0.  1.
         21    1    1    2  504  506 -0.10233027571E+03 -0.29015386436E+02 -0.25033481934E+03  0.27199430095E+03  0.00000000000E+00 0. -1.
         21    1    1    2  505  502 -0.25138125263E+02  0.51949801230E+02  0.47737051260E+01  0.57909372732E+02  0.00000000000E+00 0.  1.
         21    1    1    2  506  503 -0.42407437881E+02 -0.92743044049E+01 -0.44018712731E+02  0.61822735141E+02  0.00000000000E+00 0. -1.
<scales pt_clust_3="150.43404" pt_clust_4="31.13152" pt_clust_5="57.71228" pt_clust_6="31.13152"></scales>
<clustering>
<clus scale="   31.132">  4  6 -1 -1</clus>
<clus scale="   57.712">  1  5  2 -1</clus>
<clus scale="  150.434">  1  3  2 -1</clus>
<clus scale="   57.712">  1  3  2 -1</clus>
</clustering>
</event>
<event>
 6    0  0.1221518E+003  0.9235401E+02  0.7546771E-02  0.1297249E+00
         21   -1    0    0  503  501  0.00000000000E+00  0.00000000000E+00  0.85163353957E+03  0.85163353957E+03  0.00000000000E+00 0.  1.
         21   -1    0    0  505  502 -0.00000000000E+00 -0.00000000000E+00 -0.13694719982E+03  0.13694719982E+03  0.00000000000E+00 0. -1.
         21    1    1    2  503  502 -0.32469931721E+02 -0.12212858052E+02  0.87872296263E+02  0.94472169544E+02  0.00000000000E+00 0. -1.
         21    1    1    2  504  501  0.50304946858E+02 -0.82222724803E+02  0.69001280892E+03  0.69671288249E+03  0.00000000000E+00 0.  1.
         21    1    1    2  505  506 -0.68668527986E+02  0.12883783121E+02 -0.72699715906E+02  0.10082959534E+03  0.00000000000E+00 0. -1.
         21    1    1    2  506  504  0.50833512849E+02  0.81551799734E+02  0.95009504661E+01  0.96566092021E+02  0.00000000000E+00 0. -1.
<scales pt_clust_3="34.69078" pt_clust_4="92.35401" pt_clust_5="70.41609" pt_clust_6="14000.00000"></scales>
<clustering>
<clus scale="   34.691">  1  3  2 -1</clus>
<clus scale="   70.416">  2  5  1 -1</clus>
<clus scale="   92.354">  1  4  2 -1</clus>
<clus scale="   34.691">  1  3  2 -1</clus>
</clustering>
</event>
<event>
 6    0  0.1221518E+003  0.7508599E+02  0.7546771E-02  0.1343605E+00
         21   -1    0    0  504  501  0.00000000000E+00  0.00000000000E+00  0.23816081088E+03  0.23816081088E+03  0.00000000000E+00 0.  1.
         21   -1    0    0  505  502 -0.00000000000E+00 -0.00000000000E+00 -0.16362272589E+03  0.16362272589E+03  0.00000000000E+00 0.  1.
         21    1    1    2  503  506  0.10429469681E+03  0.57482745228E+02 -0.28318560870E+02  0.12240747800E+03  0.00000000000E+00 0.  1.
         21    1    1    2  504  502 -0.58663466840E+02 -0.65459878639E+02  0.85549139108E+02  0.12265827838E+03  0.00000000000E+00 0.  1.
         21    1    1    2  505  503 -0.59359874355E+02 -0.30271256095E+02 -0.46368985724E+02  0.81178977981E+02  0.00000000000E+00 0.  1.
         21    1    1    2  506  501  0.13728644388E+02  0.38248389506E+02  0.63676492474E+02  0.75538802415E+02  0.00000000000E+00 0.  1.
<scales pt_clust_3="75.08599" pt_clust_4="14000.00000" pt_clust_5="63.64066" pt_clust_6="40.63761"></scales>
<clustering>
<clus scale="   40.638">  1  6  2 -1</clus>
<clus scale="   63.641">  2  5  1 -1</clus>
<clus scale="   75.086">  2  3  1 -1</clus>
<clus scale="   40.638">  1  3  2 -1</clus>
</clustering>
</event>
<event>
 6    0  0.1221518E+003  0.9475275E+02  0.7546771E-02  0.1291734E+00
         21   -1    0    0  504  501  0.00000000000E+00  0.00000000000E+00  0.12903096854E+03  0.12903096854E+03  0.00000000000E+00 0. -1.
         21   -1    0    0  505  502 -0.00000000000E+00 -0.00000000000E+00 -0.13181070550E+04  0.13181070550E+04  0.00000000000E+00 0. -1.
         21    1    1    2  503  506  0.53389775507E+02 -0.12505368729E+03 -0.85683986942E+03  0.86756178723E+03  0.00000000000E+00 0. -1.
         21    1    1    2  504  502 -0.34282995089E+02 -0.37667237308E+02  0.27261420581E+01  0.51005650365E+02  0.00000000000E+00 0.  1.
         21    1    1    2  505  503 -0.72059140716E+02  0.37563443706E+02 -0.37751809266E+03  0.38616504548E+03  0.00000000000E+00 0. -1.
         21    1    1    2  506  501  0.52952360298E+02  0.12515748089E+03  0.42555733591E+02  0.14240554043E+03  0.00000000000E+00 0. -1.
<scales pt_clust_3="94.75275" pt_clust_4="50.93275" pt_clust_5="81.83833" pt_clust_6="14000.00000"></scales>
<clustering>
<clus scale="   50.933">  1  4  2 -1</clus>
<clus scale="   81.838">  2  5  1 -1</clus>
<clus scale="   94.753">  2  3  1 -1</clus>
<clus scale="   50.933">  1  3  2 -1</clus>
</clustering>
</event>
<event>
 6    0  0.1221518E+003  0.1084857E+03  0.7546771E-02  0.1263400E+00
         21   -1    0    0  503  501  0.00000000000E+00  0.00000000000E+00  0.92175545492E+03  0.92175545492E+03  0.00000000000E+00 0.  1.
         21   -1    0    0  505  502 -0.00000000000E+00 -0.00000000000E+00 -0.14866819466E+03  0.14866819466E+03  0.00000000000E+00 0. -1.
         21    1    1    2  503  504 -0.31544297537E+02  0.10794496190E+03  0.83927076228E+03  0.84677185234E+03  0.00000000000E+00 0.  1.
         21    1    1    2  504  506  0.35199603848E+02 -0.63296740982E+02  0.11906635398E+01  0.72435538306E+02  0.00000000000E+00 0. -1.
         21    1    1    2  505  501 -0.48082820427E+02 -0.64791484216E+02 -0.19800279766E+02  0.83077946086E+02  0.00000000000E+00 0. -1.
         21    1    1    2  506  502  0.44427514116E+02  0.20143263301E+02 -0.47573885793E+02  0.68138312837E+02  0.00000000000E+00 0. -1.
<scales pt_clust_3="108.48569" pt_clust_4="14000.00000" pt_clust_5="58.09314" pt_clust_6="48.78068"></scales>
<clustering>
<clus scale="   48.781">  2  6  1 -1</clus>
<clus scale="   58.093">  2  5  1 -1</clus>
<clus scale="  108.486">  1  3  2 -1</clus>
<clus scale="  108.486">  1  3  2 -1</clus>
</clustering>
</event>
<event>
 6    0  0.1221518E+003  0.1023304E+03  0.7546771E-02  0.1275470E+00
         21   -1    0    0  503  501  0.00000000000E+00  0.00000000000E+00  0.11390755410E+03  0.11390755410E+03  0.00000000000E+00 0. -1.
         21   -1    0    0  505  502 -0.00000000000E+00 -0.00000000000E+00 -0.89686092580E+03  0.89686092580E+03  0.00000000000E+00 0.  1.
         21    1    1    2  503  504 -0.12214693253E+03  0.21880514414E+02  0.57907642645E+02  0.13693766872E+03  0.00000000000E+00 0. -1.
         21    1    1    2  504  502  0.12499997408E+02 -0.49561787290E+02 -0.34595957298E+03  0.34971509380E+03  0.00000000000E+00 0.  1.
         21    1    1    2  505  506  0.50876071305E+02  0.42420967956E+02 -0.43097888274E+03  0.43603980383E+03  0.00000000000E+00 0.  1.
         21    1    1    2  506  501  0.58770863821E+02 -0.14739695080E+02 -0.63922558630E+02  0.88075913546E+02  0.00000000000E+00 0. -1.
<scales pt_clust_3="102.33038" pt_clust_4="51.11380" pt_clust_5="60.83494" pt_clust_6="14000.00000"></scales>
<clustering>
<clus scale="   51.114">  2  4  1 -1</clus>
<clus scale="   60.835">  2  5  1 -1</clus>
<clus scale="  102.330">  1  3  2 -1</clus>
<clus scale="  102.330">  1  3  2 -1</clus>
</clustering>
</event>
<event>
 6    0  0.1221518E+003  0.7708912E+02  0.7546771E-02  0.1337521E+00
         21   -1    0    0  506  501  0.00000000000E+00  0.00000000000E+00  0.94716210598E+02  0.94716210598E+02  0.00000000000E+00 0. -1.
         21   -1    0    0  503  502 -0.00000000000E+00 -0.00000000000E+00 -0.65586437831E+03  0.65586437831E+03  0.00000000000E+00 0.  1.
         21    1    1    2  503  505  0.80683026459E+02 -0.43975946789E+02 -0.29340557341E+03  0.30745807057E+03  0.00000000000E+00 0.  1.
         21    1    1    2  504  501 -0.35652958528E+02  0.20598346904E+02  0.65151628630E+02  0.77072433853E+02  0.00000000000E+00 0. -1.
         21    1    1    2  505  504 -0.17141627661E+02 -0.46399147911E+02 -0.39834403556E+02  0.63509810521E+02  0.00000000000E+00 0.  1.
         21    1    1    2  506  502 -0.27888440270E+02  0.69776747796E+02 -0.29305981937E+03  0.30254027396E+03  0.00000000000E+00 0.  1.
<scales pt_clust_3="77.08912" pt_clust_4="41.17554" pt_clust_5="50.27424" pt_clust_6="14000.00000"></scales>
<clustering>
<clus scale="   41.176">  1  4  2 -1</clus>
<clus scale="   50.274">  1  5  2 -1</clus>
<clus scale="   77.089">  1  3  2 -1</clus>
<clus scale="   41.176">  1  3  2 -1</clus>
</clustering>
</event>
<event>
 6    0  0.1221518E+003  0.1580978E+03  0.7546771E-02  0.1190861E+00
         21   -1    0    0  506  501  0.00000000000E+00  0.00000000000E+00  0.31636686421E+03  0.31636686421E+03  0.00000000000E+00 0.  1.
         21   -1    0    0  505  502 -0.00000000000E+00 -0.00000000000E+00 -0.50726994622E+03  0.50726994622E+03  0.00000000000E+00 0.  1.
         21    1    1    2  503  504 -0.13324162509E+03 -0.10301058666E+03  0.10981225686E+02  0.16877529126E+03  0.00000000000E+00 0.  1.
         21    1    1    2  504  501  0.97110839531E+02 -0.59613304264E+02  0.16877216427E+03  0.20363767980E+03  0.00000000000E+00 0.  1.
         21    1    1    2  505  503 -0.58015747696E+02  0.33486609274E+02 -0.22581499271E+03  0.23554105994E+03  0.00000000000E+00 0.  1.
         21    1    1    2  506  502  0.94146533256E+02  0.12913728165E+03 -0.14484147926E+03  0.21568277945E+03  0.00000000000E+00 0.  1.
<scales pt_clust_3="158.09776" pt_clust_4="109.72816" pt_clust_5="66.98642" pt_clust_6="14000.00000"></scales>
<clustering>
<clus scale="   66.986">  2  5  1 -1</clus>
<clus scale="  109.728">  1  4  2 -1</clus>
<clus scale="  158.098">  1  3  2 -1</clus>
<clus scale="  109.728">  1  3  2 -1</clus>
</clustering>
</event>
<event>
 6    0  0.1221518E+003  0.1359887E+03  0.7546771E-02  0.1218831E+00
         21   -1    0    0  506  501  0.00000000000E+00  0.00000000000E+00  0.21228295561E+03  0.21228295561E+03  0.00000000000E+00 0.  1.
         21   -1    0    0  504  502 -0.00000000000E+00 -0.00000000000E+00 -0.20755715962E+03  0.20755715962E+03  0.00000000000E+00 0.  1.
         21    1    1    2  503  505 -0.75117424194E+02  0.53476928973E+02  0.71223987612E+02  0.11651294246E+03  0.00000000000E+00 0.  1.
         21    1    1    2  504  501  0.99908797392E+02 -0.86148824343E+02 -0.13151216126E+03  0.18627623652E+03  0.00000000000E+00 0.  1.
         21    1    1    2  505  502  0.11719305233E+02  0.35058535667E+02 -0.57284209766E+01  0.37406655091E+02  0.00000000000E+00 0.  1.
         21    1    1    2  506  503 -0.36510678431E+02 -0.23866402971E+01  0.70742390612E+02  0.79644281157E+02  0.00000000000E+00 0.  1.
<scales pt_clust_3="35.92302" pt_clust_4="123.45349" pt_clust_5="36.96543" pt_clust_6="35.92302"></scales>
<clustering>
<clus scale="   35.923">  3  6 -1 -1</clus>
<clus scale="   36.965">  2  5  1 -1</clus>
<clus scale="  123.453">  2  4  1 -1</clus>
<clus scale="  135.989">  1  3  2 -1</clus>
</clustering>
</event>
<event>
 6    0  0.2415766E+003  0.1126031E+03  0.7546771E-02  0.1255824E+00
         21   -1    0    0  503  501  0.00000000000E+00  0.00000000000E+00  0.10137590419E+04  0.10137590419E+04  0.00000000000E+00 0. -1.
         21   -1    0    0  506  502 -0.00000000000E+00 -0.00000000000E+00 -0.71326176183E+03  0.71326176183E+03  0.00000000000E+00 0.  1.
         21    1    1    2  503  504 -0.72429962170E+01  0.31928624095E+02  0.74726313362E+03  0.74798000568E+03  0.00000000000E+00 0. -1.
         21    1    1    2  504  505  0.12109185297E+03 -0.59261582726E+02  0.23643322889E+03  0.27216877809E+03  0.00000000000E+00 0. -1.
         21    1    1    2  505  502 -0.44051912576E+02  0.13199793206E+02 -0.57805478004E+03  0.57988113805E+03  0.00000000000E+00 0.  1.
         21    1    1    2  506  501 -0.69796944182E+02  0.14133165425E+02 -0.10514430235E+03  0.12699088195E+03  0.00000000000E+00 0.  1.
<scales pt_clust_3="32.73985" pt_clust_4="112.60309" pt_clust_5="46.04237" pt_clust_6="14000.00000"></scales>
<clustering>
<clus scale="   32.740">  1  3  2 -1</clus>
<clus scale="   46.042">  2  5  1 -1</clus>
<clus scale="  112.603">  1  4  2 -1</clus>
<clus scale="   32.740">  1  3  2 -1</clus>
</clustering>
</event>
<event>
 6    0  0.1221518E+003  0.6182216E+02  0.7546771E-02  0.1390340E+00
         21   -1    0    0  506  501  0.00000000000E+00  0.00000000000E+00  0.21281431256E+03  0.21281431256E+03  0.00000000000E+00 0.  1.
         21   -1    0    0  504  502 -0.00000000000E+00 -0.00000000000E+00 -0.26594472384E+03  0.26594472384E+03  0.00000000000E+00 0. -1.
         21    1    1    2  503  501 -0.33030400748E+02  0.87187349821E+01  0.90670775721E+02  0.96892792730E+02  0.00000000000E+00 0.  1.
         21    1    1    2  504  503 -0.35852629980E+02 -0.18570613527E+02  0.64865047816E+01  0.40894419027E+02  0.00000000000E+00 0.  1.
         21    1    1    2  505  502 -0.41580602552E+02 -0.42279830176E+02 -0.20036635231E+03  0.20895742553E+03  0.00000000000E+00 0. -1.
         21    1    1    2  506  505  0.11046363328E+03  0.52131708720E+02  0.50078660525E+02  0.13201439911E+03  0.00000000000E+00 0. -1.
<scales pt_clust_3="34.16173" pt_clust_4="45.64470" pt_clust_5="14000.00000" pt_clust_6="61.82216"></scales>
<clustering>
<clus scale="   34.162">  1  3  2 -1</clus>
<clus scale="   45.645">  1  4  2 -1</clus>
<clus scale="   61.822">  1  6  2 -1</clus>
<clus scale="   34.162">  1  3  2 -1</clus>
</clustering>
</event>
<event>
 6    0  0.1221518E+003  0.8677903E+02  0.7546771E-02  0.1310845E+00
         21   -1    0    0  506  501  0.00000000000E+00  0.00000000000E+00  0.97871637807E+02  0.97871637807E+02  0.00000000000E+00 0.  1.
         21   -1    0    0  504  502 -0.00000000000E+00 -0.00000000000E+00 -0.50719459362E+03  0.50719459362E+03  0.00000000000E+00 0.  1.
         21    1    1    2  503  501 -0.11012677290E+03  0.11997621236E+02  0.25692907696E+02  0.11371883982E+03  0.00000000000E+00 0.  1.
         21    1    1    2  504  503 -0.27612710576E+02 -0.36042830937E+02 -0.11964277036E+03  0.12796851155E+03  0.00000000000E+00 0.  1.
         21    1    1    2  505  502  0.97048772647E+02 -0.84962450954E+01 -0.28900740674E+03  0.30498513341E+03  0.00000000000E+00 0.  1.
         21    1    1    2  506  505  0.40690710825E+02  0.32541454796E+02 -0.26365686403E+02  0.58393746645E+02  0.00000000000E+00 0. -1.
<scales pt_clust_3="14000.00000" pt_clust_4="45.40427" pt_clust_5="86.77903" pt_clust_6="47.24583"></scales>
<clustering>
<clus scale="   45.404">  2  4  1 -1</clus>
<clus scale="   47.246">  1  6  2 -1</clus>
<clus scale="   86.779">  2  5  1 -1</clus>
<clus scale="   47.246">  1  3  2 -1</clus>
</clustering>
</event>
<event>
 6    0  0.1221518E+003  0.8755300E+02  0.7546771E-02  0.1308888E+00
         21   -1    0    0  505  501  0.00000000000E+00  0.00000000000E+00  0.31991693804E+02  0.31991693804E+02  0.00000000000E+00 0. -1.
         21   -1    0    0  503  502 -0.00000000000E+00 -0.00000000000E+00 -0.66135623017E+03  0.66135623017E+03  0.00000000000E+00 0. -1.
         21    1    1    2  503  506  0.69792109719E+02  0.14632724315E+02 -0.10536263943E+03  0.12722555163E+03  0.00000000000E+00 0. -1.
         21    1    1    2  504  502 -0.71261522190E+02  0.83856156798E+00 -0.33277741074E+03  0.34032295372E+03  0.00000000000E+00 0. -1.
         21    1    1    2  505  504 -0.32538560292E+02 -0.57361660701E+02 -0.11116791022E+03  0.12925719434E+03  0.00000000000E+00 0. -1.
         21    1    1    2  506  501  0.34007972763E+02  0.41890374818E+02 -0.80056575979E+02  0.96542224292E+02  0.00000000000E+00 0.  1.
<scales pt_clust_3="36.10093" pt_clust_4="77.09159" pt_clust_5="65.94784" pt_clust_6="36.10093"></scales>
<clustering>
<clus scale="   36.101">  3  6 -1 -1</clus>
<clus scale="   65.948">  1  5  2 -1</clus>
<clus scale="   77.092">  2  4  1 -1</clus>
<clus scale="   65.948">  1  3  2 -1</clus>
</clustering>
</event>
<event>
 6    0  0.1221518E+003  0.1069241E+03  0.7546771E-02  0.1266374E+00
         21   -1    0    0  505  501  0.00000000000E+00  0.00000000000E+00  0.53269386018E+03  0.53269386018E+03  0.00000000000E+00 0.  1.
         21   -1    0    0  504  502 -0.00000000000E+00 -0.00000000000E+00 -0.25237912094E+03  0.25237912094E+03  0.00000000000E+00 0.  1.
         21    1    1    2  503  502  0.89491645138E+02  0.10592902932E+03 -0.16559665725E+03  0.21599066344E+03  0.00000000000E+00 0.  1.
         21    1    1    2  504  506  0.26857917013E+00 -0.80343551492E+02  0.18476938402E+02  0.82441225451E+02  0.00000000000E+00 0. -1.
         21    1    1    2  505  503 -0.15858626216E+03 -0.23174022844E+01  0.26762151967E+03  0.31108881480E+03  0.00000000000E+00 0.  1.
         21    1    1    2  506  501  0.68826037851E+02 -0.23268075543E+02  0.15981293841E+03  0.17555227743E+03  0.00000000000E+00 0.  1.
<scales pt_clust_3="106.92414" pt_clust_4="84.13087" pt_clust_5="14000.00000" pt_clust_6="72.65278"></scales>
<clustering>
<clus scale="   72.653">  1  6  2 -1</clus>
<clus scale="   84.131">  2  4  1 -1</clus>
<clus scale="  106.924">  2  3  1 -1</clus>
<clus scale="   72.653">  1  3  2 -1</clus>
</clustering>
</event>
<event>
 6    0  0.1221518E+003  0.8124244E+02  0.7546771E-02  0.1325562E+00
         21   -1    0    0  505  501  0.00000000000E+00  0.00000000000E+00  0.43423699581E+03  0.43423699581E+03  0.00000000000E+00 0. -1.
         21   -1    0    0  506  502 -0.00000000000E+00 -0.00000000000E+00 -0.49172745666E+03  0.49172745666E+03  0.00000000000E+00 0.  1.
         21    1    1    2  503  502 -0.82622551994E+00 -0.41719116488E+02 -0.17332827896E+03  0.17828028387E+03  0.00000000000E+00 0.  1.
         21    1    1    2  504  501 -0.41708470051E+02  0.20308350765E+02  0.14651771577E+03  0.15368626035E+03  0.00000000000E+00 0.  1.
         21    1    1    2  505  503 -0.34042633136E+02  0.11165968727E+03 -0.28800194847E+03  0.31076021135E+03  0.00000000000E+00 0.  1.
         21    1    1    2  506  504  0.76577328707E+02 -0.90248921552E+02  0.25732205080E+03  0.28323769690E+03  0.00000000000E+00 0. -1.
<scales pt_clust_3="41.72730" pt_clust_4="46.19315" pt_clust_5="14000.00000" pt_clust_6="81.24244"></scales>
<clustering>
<clus scale="   41.727">  2  3  1 -1</clus>
<clus scale="   46.193">  1  4  2 -1</clus>
<clus scale="   81.242">  1  6  2 -1</clus>
<clus scale="   46.193">  1  3  2 -1</clus>
</clustering>
</event>
<event>
 6    0  0.1221518E+003  0.1070475E+03  0.7546771E-02  0.1266137E+00
         21   -1    0    0  505  501  0.00000000000E+00  0.00000000000E+00  0.73247410029E+03  0.73247410029E+03  0.00000000000E+00 0. -1.
         21   -1    0    0  503  502 -0.00000000000E+00 -0.00000000000E+00 -0.13077410036E+04  0.13077410036E+04  0.00000000000E+00 0.  1.
         21    1    1    2  503  501 -0.13699366979E+03 -0.97439343761E+01  0.67166220830E+03  0.68555986747E+03  0.00000000000E+00 0. -1.
         21    1    1    2  504  506  0.13030081294E+03 -0.37537771598E+02 -0.40704534053E+03  0.42903763867E+03  0.00000000000E+00 0.  1.
         21    1    1    2  505  504  0.31078664480E+02  0.69233884138E+01  0.36231562775E+02  0.48234249596E+02  0.00000000000E+00 0.  1.
         21    1    1    2  506  502 -0.24385807629E+02  0.40358317561E+02 -0.87611533385E+03  0.87738334815E+03  0.00000000000E+00 0.  1.
<scales pt_clust_3="107.04753" pt_clust_4="14000.00000" pt_clust_5="31.84049" pt_clust_6="47.14428"></scales>
<clustering>
<clus scale="   31.840">  1  5  2 -1</clus>
<clus scale="   47.144">  2  6  1 -1</clus>
<clus scale="  107.048">  1  3  2 -1</clus>
<clus scale="   31.840">  1  3  2 -1</clus>
</clustering>
</event>
<event>
 6    0  0.1221518E+003  0.1191230E+03  0.7546771E-02  0.1244551E+00
         21   -1    0    0  503  501  0.00000000000E+00  0.00000000000E+00  0.91025951616E+03  0.91025951616E+03  0.00000000000E+00 0. -1.
         21   -1    0    0  505  502 -0.00000000000E+00 -0.00000000000E+00 -0.26494057537E+03  0.26494057537E+03  0.00000000000E+00 0.  1.
         21    1    1    2  503  502 -0.92058206917E+02  0.34829057340E+02 -0.16919398521E+03  0.19574059703E+03  0.00000000000E+00 0.  1.
         21    1    1    2  504  506 -0.34665857795E+02  0.90334431046E+01 -0.46748176936E+01  0.36127257181E+02  0.00000000000E+00 0. -1.
         21    1    1    2  505  504  0.78704316894E+01 -0.30071773500E+02 -0.53826128184E+02  0.62157118109E+02  0.00000000000E+00 0. -1.
         21    1    1    2  506  501  0.11885363302E+03 -0.13790726944E+02  0.87301387187E+03  0.88117511921E+03  0.00000000000E+00 0. -1.
<scales pt_clust_3="119.12300" pt_clust_4="34.42911" pt_clust_5="31.08465" pt_clust_6="14000.00000"></scales>
<clustering>
<clus scale="   31.085">  2  5  1 -1</clus>
<clus scale="   34.429">  2  4  1 -1</clus>
<clus scale="  119.123">  2  3  1 -1</clus>
<clus scale="  119.123">  1  3  2 -1</clus>
</clustering>
</event>
<event>
 6    0  0.1221518E+003  0.8286482E+02  0.7546771E-02  0.1321113E+00
         21   -1    0    0  506  501  0.00000000000E+00  0.00000000000E+00  0.83444567971E+03  0.83444567971E+03  0.00000000000E+00 0.  1.
         21   -1    0    0  503  502 -0.00000000000E+00 -0.00000000000E+00 -0.17746935349E+03  0.17746935349E+03  0.00000000000E+00 0.  1.
         21    1    1    2  503  505  0.79106889411E+02 -0.19647472732E+02 -0.12436992352E+03  0.14870037328E+03  0.00000000000E+00 0.  1.
         21    1    1    2  504  502  0.14451196611E+02  0.59026118344E+02  0.59581004173E+02  0.85104734231E+02  0.00000000000E+00 0.  1.
         21    1    1    2  505  501 -0.11960470632E+03 -0.71553907885E+02  0.14965498148E+03  0.20450393881E+03  0.00000000000E+00 0.  1.
         21    1    1    2  506  504  0.26046620294E+02  0.32175262274E+02  0.57211026408E+03  0.57360598689E+03  0.00000000000E+00 0.  1.
<scales pt_clust_3="82.86482" pt_clust_4="71.29253" pt_clust_5="14000.00000" pt_clust_6="41.39654"></scales>
<clustering>
<clus scale="   41.397">  1  6  2 -1</clus>
<clus scale="   71.293">  1  4  2 -1</clus>
<clus scale="   82.865">  2  3  1 -1</clus>
<clus scale="   41.397">  1  3  2 -1</clus>
</clustering>
</event>
<event>
 6    0  0.1221518E+003  0.1404312E+03  0.7546771E-02  0.1212750E+00
         21   -1    0    0  503  501  0.00000000000E+00  0.00000000000E+00  0.31006474928E+03  0.31006474928E+03  0.00000000000E+00 0. -1.
         21   -1    0    0  505  502 -0.00000000000E+00 -0.00000000000E+00 -0.86272952480E+03  0.86272952480E+03  0.00000000000E+00 0. -1.
         21    1    1    2  503  506 -0.49440314723E+02 -0.66628929168E+02  0.13095706334E+03  0.15502745357E+03  0.00000000000E+00 0. -1.
         21    1    1    2  504  502 -0.51587009947E+02  0.10178548842E+02 -0.47507464674E+03  0.47797567138E+03  0.00000000000E+00 0. -1.
         21    1    1    2  505  501  0.11556751704E+03  0.10730687608E+03 -0.35263970291E+03  0.38629700584E+03  0.00000000000E+00 0. -1.
         21    1    1    2  506  504 -0.14540192374E+02 -0.50856495750E+02  0.14409251080E+03  0.15349414328E+03  0.00000000000E+00 0. -1.
<scales pt_clust_3="32.30495" pt_clust_4="52.58158" pt_clust_5="134.47653" pt_clust_6="32.30495"></scales>
<clustering>
<clus scale="   32.305">  3  6 -1 -1</clus>
<clus scale="   52.582">  2  4  1 -1</clus>
<clus scale="  134.477">  2  5  1 -1</clus>
<clus scale="  140.431">  1  3  2 -1</clus>
</clustering>
</event>
<event>
 6    0  0.1221518E+003  0.1111922E+03  0.7546771E-02  0.1258378E+00
         21   -1    0    0  506  501  0.00000000000E+00  0.00000000000E+00  0.10610809679E+03  0.10610809679E+03  0.00000000000E+00 0.  1.
         21   -1    0    0  505  502 -0.00000000000E+00 -0.00000000000E+00 -0.32442482526E+03  0.32442482526E+03  0.00000000000E+00 0.  1.
         21    1    1    2  503  501  0.12282064726E+02  0.34868491422E+02 -0.19082239271E+02  0.41602796343E+02  0.00000000000E+00 0.  1.
         21    1    1    2  504  502 -0.99161640621E+02  0.87789402951E+01 -0.13690385636E+03  0.16927128123E+03  0.00000000000E+00 0.  1.
         21    1    1    2  505  503 -0.10342332227E+02  0.35188882009E+02 -0.84888809778E+02  0.92473408494E+02  0.00000000000E+00 0. -1.
         21    1    1    2  506  504  0.97221908122E+02 -0.78836313726E+02  0.22558176930E+02  0.12718543599E+03  0.00000000000E+00 0.  1.
<scales pt_clust_3="40.89128" pt_clust_4="111.19217" pt_clust_5="36.67726" pt_clust_6="14000.00000"></scales>
<clustering>
<clus scale="   36.677">  2  5  1 -1</clus>
<clus scale="   40.891">  1  3  2 -1</clus>
<clus scale="  111.192">  2  4  1 -1</clus>
<clus scale="   40.891">  1  3  2 -1</clus>
</clustering>
</event>
<event>
 6    0  0.1221518E+003  0.1035643E+03  0.7546771E-02  0.1272974E+00
         21   -1    0    0  503  501  0.00000000000E+00  0.00000000000E+00  0.19381368326E+03  0.19381368326E+03  0.00000000000E+00 0. -1.
         21   -1    0    0  504  502 -0.00000000000E+00 -0.00000000000E+00 -0.69142868174E+03  0.69142868174E+03  0.00000000000E+00 0. -1.
         21    1    1    2  503  506 -0.66265204451E+02  0.65641122909E+02 -0.24537063174E+02  0.96446367515E+02  0.00000000000E+00 0. -1.
         21    1    1    2  504  501  0.71062868766E+02  0.10041597527E+03  0.35232858921E+02  0.12796348602E+03  0.00000000000E+00 0. -1.
         21    1    1    2  505  502 -0.69137351752E+02 -0.75620245477E+02 -0.53660070923E+03  0.54629544761E+03  0.00000000000E+00 0. -1.
         21    1    1    2  506  505  0.64339687436E+02 -0.90436852699E+02  0.28289915001E+02  0.11453706385E+03  0.00000000000E+00 0. -1.
<scales pt_clust_3="93.27290" pt_clust_4="14000.00000" pt_clust_5="103.56425" pt_clust_6="69.78753"></scales>
<clustering>
<clus scale="   93.273">  1  3  2 -1</clus>
<clus scale="   69.788">  1  6  2 -1</clus>
<clus scale="  103.564">  2  5  1 -1</clus>
<clus scale="   93.273">  1  3  2 -1</clus>
</clustering>
</event>
<event>
 6    0  0.1221518E+003  0.7335608E+02  0.7546771E-02  0.1349039E+00
         21   -1    0    0  505  501  0.00000000000E+00  0.00000000000E+00  0.90643463060E+03  0.90643463060E+03  0.00000000000E+00 0.  1.
         21   -1    0    0  506  502 -0.00000000000E+00 -0.00000000000E+00 -0.30152031171E+02  0.30152031171E+02  0.00000000000E+00 0. -1.
         21    1    1    2  503  502 -0.30289604184E+02  0.47789494561E+02  0.34173704093E+02  0.66099455093E+02  0.00000000000E+00 0. -1.
         21    1    1    2  504  501  0.10347785298E+03 -0.51161028987E+02  0.52461010147E+03  0.53716000922E+03  0.00000000000E+00 0.  1.
         21    1    1    2  505  503 -0.35180993580E+02  0.35240259275E+02  0.19278412723E+03  0.19911127014E+03  0.00000000000E+00 0.  1.
         21    1    1    2  506  504 -0.38007255214E+02 -0.31868724849E+02  0.12471466664E+03  0.13421592732E+03  0.00000000000E+00 0.  1.
<scales pt_clust_3="14000.00000" pt_clust_4="73.35608" pt_clust_5="50.70562" pt_clust_6="49.60007"></scales>
<clustering>
<clus scale="   49.600">  2  6  1 -1</clus>
<clus scale="   50.706">  1  5  2 -1</clus>
<clus scale="   73.356">  1  4  2 -1</clus>
<clus scale="   50.706">  1  3  2 -1</clus>
</clustering>
</event>
<event>
 6    0  0.1221518E+003  0.8362783E+02  0.7546771E-02  0.1319060E+00
         21   -1    0    0  504  501  0.00000000000E+00  0.00000000000E+00  0.14305702787E+03  0.14305702787E+03  0.00000000000E+00 0. -1.
         21   -1    0    0  506  502 -0.00000000000E+00 -0.00000000000E+00 -0.35120716138E+04  0.35120716138E+04  0.00000000000E+00 0.  1.
         21    1    1    2  503  502  0.36835667172E+02 -0.72321919924E+02 -0.20973124046E+04  0.20988822380E+04  0.00000000000E+00 0.  1.
         21    1    1    2  504  503  0.18446602266E+02 -0.38321299368E+02 -0.59301272143E+02  0.72975612353E+02  0.00000000000E+00 0.  1.
         21    1    1    2  505  501 -0.16420396515E+02  0.12206955062E+03  0.10705622287E+03  0.16319203248E+03  0.00000000000E+00 0. -1.
         21    1    1    2  506  505 -0.38861872923E+02 -0.11426331326E+02 -0.13194571320E+04  0.13200787588E+04  0.00000000000E+00 0.  1.
<scales pt_clust_3="83.62783" pt_clust_4="42.34925" pt_clust_5="14000.00000" pt_clust_6="40.50687"></scales>
<clustering>
<clus scale="   40.507">  2  6  1 -1</clus>
<clus scale="   42.349">  1  4  2 -1</clus>
<clus scale="   83.628">  2  3  1 -1</clus>
<clus scale="   42.349">  1  3  2 -1</clus>
</clustering>
</event>
<event>
 6    0  0.1221518E+003  0.1828564E+03  0.7546771E-02  0.1165067E+00
         21   -1    0    0  505  501  0.00000000000E+00  0.00000000000E+00  0.13489425741E+04  0.13489425741E+04  0.00000000000E+00 0.  1.
         21   -1    0    0  504  502 -0.00000000000E+00 -0.00000000000E+00 -0.32045740279E+03  0.32045740279E+03  0.00000000000E+00 0.  1.
         21    1    1    2  503  501 -0.30217581317E+02 -0.18137742435E+03  0.24722619885E+03  0.30810982731E+03  0.00000000000E+00 0.  1.
         21    1    1    2  504  503 -0.20392260940E+02  0.27695371007E+02 -0.24720751518E+03  0.24958852827E+03  0.00000000000E+00 0.  1.
         21    1    1    2  505  506 -0.28452604086E+02 -0.96672682887E+01  0.87074871313E+03  0.87126708200E+03  0.00000000000E+00 0.  1.
         21    1    1    2  506  502  0.79062446343E+02  0.16334932163E+03  0.15771777452E+03  0.24043453932E+03  0.00000000000E+00 0.  1.
<scales pt_clust_3="182.85636" pt_clust_4="34.41570" pt_clust_5="30.05007" pt_clust_6="14000.00000"></scales>
<clustering>
<clus scale="   30.050">  1  5  2 -1</clus>
<clus scale="   34.416">  2  4  1 -1</clus>
<clus scale="  182.856">  1  3  2 -1</clus>
<clus scale="   30.050">  1  3  2 -1</clus>
</clustering>
</event>
<event>
 6    0  0.1221518E+003  0.7977248E+02  0.7546771E-02  0.1329698E+00
         21   -1    0    0  503  501  0.00000000000E+00  0.00000000000E+00  0.26865794266E+04  0.26865794266E+04  0.00000000000E+00 0.  1.
         21   -1    0    0  506  502 -0.00000000000E+00 -0.00000000000E+00 -0.46939620557E+02  0.46939620557E+02  0.00000000000E+00 0.  1.
         21    1    1    2  503  504 -0.16232291373E+02  0.34840820434E+02  0.36496556134E+03  0.36698396561E+03  0.00000000000E+00 0. -1.
         21    1    1    2  504  502  0.12203539516E+02  0.56358727003E+02  0.65781941331E+02  0.87478547607E+02  0.00000000000E+00 0.  1.
         21    1    1    2  505  501  0.31008595267E+02 -0.11600945292E+03  0.22323255466E+04  0.22355529679E+04  0.00000000000E+00 0.  1.
         21    1    1    2  506  505 -0.26979843410E+02  0.24809905486E+02 -0.23433243317E+02  0.43503565980E+02  0.00000000000E+00 0.  1.
<scales pt_clust_3="40.98830" pt_clust_4="14000.00000" pt_clust_5="79.77248" pt_clust_6="36.65301"></scales>
<clustering>
<clus scale="   36.653">  2  6  1 -1</clus>
<clus scale="   40.988">  1  3  2 -1</clus>
<clus scale="   79.772">  1  5  2 -1</clus>
<clus scale="   40.988">  1  3  2 -1</clus>
</clustering>
</event>
<event>
 6    0  0.1221518E+003  0.7188850E+02  0.7546771E-02  0.1353786E+00
         21   -1    0    0  506  501  0.00000000000E+00  0.00000000000E+00  0.74517298425E+03  0.74517298425E+03  0.00000000000E+00 0.  1.
         21   -1    0    0  504  502 -0.00000000000E+00 -0.00000000000E+00 -0.33288788500E+03  0.33288788500E+03  0.00000000000E+00 0.  1.
         21    1    1    2  503  501 -0.30257963330E+02  0.21435215738E+02  0.53877793898E+02  0.65405118255E+02  0.00000000000E+00 0.  1.
         21    1    1    2  504  505 -0.71824729325E+02  0.64897969565E+00 -0.30580095187E+03  0.31412328007E+03  0.00000000000E+00 0.  1.
         21    1    1    2  505  503  0.21955529808E+02  0.49364367653E+02  0.45660092324E+02  0.70737049090E+02  0.00000000000E+00 0.  1.
         21    1    1    2  506  502  0.80127162847E+02 -0.71448563087E+02  0.61854816489E+03  0.62779542184E+03  0.00000000000E+00 0.  1.
<scales pt_clust_3="37.08117" pt_clust_4="14000.00000" pt_clust_5="54.73263" pt_clust_6="71.88850"></scales>
<clustering>
<clus scale="   37.081">  1  3  2 -1</clus>
<clus scale="   54.733">  1  5  2 -1</clus>
<clus scale="   71.889">  1  6  2 -1</clus>
<clus scale="   37.081">  1  3  2 -1</clus>
</clustering>
</event>
<event>
 6    0  0.1224088E+003  0.1103709E+03  0.7546771E-02  0.1259885E+00
         21   -1    0    0  503  501  0.00000000000E+00  0.00000000000E+00  0.40489434943E+02  0.40489434943E+02  0.00000000000E+00 0. -1.
         21   -1    0    0  504  502 -0.00000000000E+00 -0.00000000000E+00 -0.32552339821E+04  0.32552339821E+04  0.00000000000E+00 0.  1.
         21    1    1    2  503  506 -0.30604807368E+02  0.20707975946E+02 -0.14478960714E+03  0.14943060208E+03  0.00000000000E+00 0.  1.
         21    1    1    2  504  505 -0.62345115557E+02 -0.81752686642E+02 -0.26261373804E+04  0.26281491503E+04  0.00000000000E+00 0.  1.
         21    1    1    2  505  501  0.66309528700E+02  0.85365441262E+02 -0.44005678242E+02  0.11670780555E+03  0.00000000000E+00 0. -1.
         21    1    1    2  506  502  0.26640394225E+02 -0.24320730566E+02 -0.39981188135E+03  0.40143585914E+03  0.00000000000E+00 0.  1.
<scales pt_clust_3="35.11392" pt_clust_4="110.37093" pt_clust_5="14000.00000" pt_clust_6="36.07227"></scales>
<clustering>
<clus scale="   36.072">  2  6  1 -1</clus>
<clus scale="   35.114">  1  3  2 -1</clus>
<clus scale="  110.371">  2  4  1 -1</clus>
<clus scale="   35.114">  1  3  2 -1</clus>
</clustering>
</event>
<event>
 6    0  0.1221518E+003  0.8111299E+02  0.7546771E-02  0.1325922E+00
         21   -1    0    0  506  501  0.00000000000E+00  0.00000000000E+00  0.13749653176E+04  0.13749653176E+04  0.00000000000E+00 0.  1.
         21   -1    0    0  504  502 -0.00000000000E+00 -0.00000000000E+00 -0.32847913191E+02  0.32847913191E+02  0.00000000000E+00 0. -1.
         21    1    1    2  503  502 -0.63833432935E+02 -0.28572584836E+02  0.75020270065E+02  0.10256286211E+03  0.00000000000E+00 0.  1.
         21    1    1    2  504  501  0.89377496324E+02  0.93055355791E+02  0.21827471108E+03  0.25355765732E+03  0.00000000000E+00 0. -1.
         21    1    1    2  505  503 -0.24241734780E+02 -0.24166227879E+02  0.33861663544E+03  0.34034231896E+03  0.00000000000E+00 0.  1.
         21    1    1    2  506  505 -0.13023286089E+01 -0.40316543076E+02  0.71020578779E+03  0.71135039237E+03  0.00000000000E+00 0.  1.
<scales pt_clust_3="69.93640" pt_clust_4="73.21722" pt_clust_5="32.15653" pt_clust_6="32.15653"></scales>
<clustering>
<clus scale="   32.157">  5  6 -1 -1</clus>
<clus scale="   69.936">  2  3  1 -1</clus>
<clus scale="   73.217">  2  4  1 -1</clus>
<clus scale="   81.113">  1  3  2 -1</clus>
</clustering>
</event>
<event>
 6    0  0.1221518E+003  0.1248100E+03  0.7546771E-02  0.1235367E+00
         21   -1    0    0  504  501  0.00000000000E+00  0.00000000000E+00  0.10658000747E+04  0.10658000747E+04  0.00000000000E+00 0. -1.
         21   -1    0    0  506  502 -0.00000000000E+00 -0.00000000000E+00 -0.39251216713E+03  0.39251216713E+03  0.00000000000E+00 0. -1.
         21    1    1    2  503  501  0.80998238677E+02  0.65399639397E+02  0.90288326934E+03  0.90886524059E+03  0.00000000000E+00 0. -1.
         21    1    1    2  504  502  0.81343500862E+01  0.80570381740E+02 -0.33086497342E+03  0.34063086281E+03  0.00000000000E+00 0. -1.
         21    1    1    2  505  503 -0.36404456773E+02 -0.10930232028E+03  0.83170549573E+02  0.14209018970E+03  0.00000000000E+00 0.  1.
         21    1    1    2  506  505 -0.52728131990E+02 -0.36667700856E+02  0.18099062115E+02  0.66725948766E+02  0.00000000000E+00 0.  1.
<scales pt_clust_3="107.14830" pt_clust_4="80.97996" pt_clust_5="47.78978" pt_clust_6="47.78978"></scales>
<clustering>
<clus scale="   47.790">  5  6 -1 -1</clus>
<clus scale="   80.980">  2  4  1 -1</clus>
<clus scale="  107.148">  1  3  2 -1</clus>
<clus scale="  107.148">  1  3  2 -1</clus>
</clustering>
</event>
<event>
 6    0  0.1221518E+003  0.7871794E+02  0.7546771E-02  0.1332730E+00
         21   -1    0    0  504  501  0.00000000000E+00  0.00000000000E+00  0.13311936650E+04  0.13311936650E+04  0.00000000000E+00 0. -1.
         21   -1    0    0  505  502 -0.00000000000E+00 -0.00000000000E+00 -0.10612816637E+03  0.10612816637E+03  0.00000000000E+00 0. -1.
         21    1    1    2  503  502 -0.30105857091E+02  0.17552310321E+02 -0.10035475703E+02  0.36265093428E+02  0.00000000000E+00 0. -1.
         21    1    1    2  504  506 -0.97166484668E+01  0.51372415859E+02  0.77474565121E+03  0.77650779934E+03  0.00000000000E+00 0. -1.
         21    1    1    2  505  501  0.10770949813E+03 -0.26987209273E+02 -0.39884441957E+02  0.11798480479E+03  0.00000000000E+00 0. -1.
         21    1    1    2  506  503 -0.67886992573E+02 -0.41937516907E+02  0.50023976509E+03  0.50656413381E+03  0.00000000000E+00 0.  1.
<scales pt_clust_3="34.84891" pt_clust_4="52.52653" pt_clust_5="14000.00000" pt_clust_6="78.71794"></scales>
<clustering>
<clus scale="   34.849">  2  3  1 -1</clus>
<clus scale="   52.527">  1  4  2 -1</clus>
<clus scale="   78.718">  1  6  2 -1</clus>
<clus scale="   52.527">  1  3  2 -1</clus>
</clustering>
</event>
<event>
 6    0  0.1221518E+003  0.1923959E+03  0.7546771E-02  0.1156318E+00
         21   -1    0    0  503  501  0.00000000000E+00  0.00000000000E+00  0.90796695492E+03  0.90796695492E+03  0.00000000000E+00 0.  1.
         21   -1    0    0  505  502 -0.00000000000E+00 -0.00000000000E+00 -0.21292772575E+03  0.21292772575E+03  0.00000000000E+00 0.  1.
         21    1    1    2  503  504  0.75773130792E+02 -0.15443702475E+03  0.56519839743E+03  0.59079741910E+03  0.00000000000E+00 0.  1.
         21    1    1    2  504  502 -0.41647030058E+02 -0.60219794739E+02 -0.15183160100E+03  0.16856373825E+03  0.00000000000E+00 0.  1.
         21    1    1    2  505  506 -0.92439530957E+01  0.16542644213E+03  0.24322541368E+03  0.29429570212E+03  0.00000000000E+00 0. -1.
         21    1    1    2  506  501 -0.24882147638E+02  0.49230377356E+02  0.38447019056E+02  0.67237821202E+02  0.00000000000E+00 0.  1.
<scales pt_clust_3="181.35929" pt_clust_4="73.21816" pt_clust_5="37.05843" pt_clust_6="37.05843"></scales>
<clustering>
<clus scale="   37.058">  5  6 -1 -1</clus>
<clus scale="   73.218">  2  4  1 -1</clus>
<clus scale="  181.359">  1  3  2 -1</clus>
<clus scale="  181.359">  1  3  2 -1</clus>
</clustering>
</event>
<event>
 6    0  0.1221518E+003  0.9170781E+02  0.7546771E-02  0.1298768E+00
         21   -1    0    0  505  501  0.00000000000E+00  0.00000000000E+00  0.11279077626E+03  0.11279077626E+03  0.00000000000E+00 0. -1.
         21   -1    0    0  501  502 -0.00000000000E+00 -0.00000000000E+00 -0.12812857364E+04  0.12812857364E+04  0.00000000000E+00 0. -1.
         21    1    1    2  503  506  0.91274553474E+02  0.56621607058E+02 -0.93038397679E+03  0.93656360957E+03  0.00000000000E+00 0. -1.
         21    1    1    2  504  503 -0.64384993026E+02 -0.40738299415E+02  0.54400568834E+02  0.93618685397E+02  0.00000000000E+00 0. -1.
         21    1    1    2  505  504  0.86838920921E+01 -0.33102969424E+02  0.25975433725E+02  0.42964400656E+02  0.00000000000E+00 0. -1.
         21    1    1    2  506  502 -0.35573452540E+02  0.17219661780E+02 -0.31848698595E+03  0.32092981709E+03  0.00000000000E+00 0. -1.
<scales pt_clust_3="14000.00000" pt_clust_4="91.70781" pt_clust_5="34.22304" pt_clust_6="39.17726"></scales>
<clustering>
<clus scale="   34.223">  1  5  2 -1</clus>
<clus scale="   39.177">  2  6  1 -1</clus>
<clus scale="   91.708">  1  4  2 -1</clus>
<clus scale="   34.223">  1  3  2 -1</clus>
</clustering>
</event>
<event>
 6    0  0.1221518E+003  0.1784203E+03  0.7546771E-02  0.1169341E+00
         21   -1    0    0  504  501  0.00000000000E+00  0.00000000000E+00  0.21976433884E+03  0.21976433884E+03  0.00000000000E+00 0.  1.
         21   -1    0    0  505  502 -0.00000000000E+00 -0.00000000000E+00 -0.50493225628E+03  0.50493225628E+03  0.00000000000E+00 0.  1.
         21    1    1    2  503  502 -0.53329352039E+01 -0.89054562594E+02 -0.22281749689E+03  0.24001415007E+03  0.00000000000E+00 0.  1.
         21    1    1    2  504  503  0.35610387684E+02  0.19613096850E+02  0.81031885835E+02  0.90658368621E+02  0.00000000000E+00 0.  1.
         21    1    1    2  505  506  0.83852927000E+02 -0.11019288713E+03 -0.11364131824E+03  0.17913161349E+03  0.00000000000E+00 0.  1.
         21    1    1    2  506  501 -0.11413037948E+03  0.17963435287E+03 -0.29740988154E+02  0.21489246294E+03  0.00000000000E+00 0.  1.
<scales pt_clust_3="87.84814" pt_clust_4="40.65431" pt_clust_5="14000.00000" pt_clust_6="178.42030"></scales>
<clustering>
<clus scale="   40.654">  1  4  2 -1</clus>
<clus scale="   87.848">  2  3  1 -1</clus>
<clus scale="  178.420">  1  6  2 -1</clus>
<clus scale="   40.654">  1  3  2 -1</clus>
</clustering>
</event>
<event>
 6    0  0.1221518E+003  0.1248386E+03  0.7546771E-02  0.1235322E+00
         21   -1    0    0  503  501  0.00000000000E+00  0.00000000000E+00  0.50069467818E+02  0.50069467818E+02  0.00000000000E+00 0. -1.
         21   -1    0    0  505  502 -0.00000000000E+00 -0.00000000000E+00 -0.71237956603E+03  0.71237956603E+03  0.00000000000E+00 0. -1.
         21    1    1    2  503  506 -0.42392422420E+02 -0.25794053690E+02 -0.30177604556E+02  0.58078726752E+02  0.00000000000E+00 0. -1.
         21    1    1    2  504  501 -0.65071471544E+01 -0.38958323657E+02 -0.60342966654E+02  0.72120507284E+02  0.00000000000E+00 0. -1.
         21    1    1    2  505  504  0.85708984976E+02 -0.80680687368E+02 -0.29082128849E+03  0.31373942254E+03  0.00000000000E+00 0. -1.
         21    1    1    2  506  502 -0.36809415402E+02  0.14543306471E+03 -0.28096823851E+03  0.31851037727E+03  0.00000000000E+00 0. -1.
<scales pt_clust_3="58.53906" pt_clust_4="39.49802" pt_clust_5="14000.00000" pt_clust_6="124.83865"></scales>
<clustering>
<clus scale="   39.498">  1  4  2 -1</clus>
<clus scale="   58.539">  1  3  2 -1</clus>
<clus scale="  124.839">  1  6  2 -1</clus>
<clus scale="   39.498">  1  3  2 -1</clus>
</clustering>
</event>
<event>
 6    0  0.1221518E+003  0.1449858E+03  0.7546771E-02  0.1206773E+00
         21   -1    0    0  504  501  0.00000000000E+00  0.00000000000E+00  0.17886062858E+03  0.17886062858E+03  0.00000000000E+00 0. -1.
         21   -1    0    0  506  502 -0.00000000000E+00 -0.00000000000E+00 -0.22769997966E+03  0.22769997966E+03  0.00000000000E+00 0. -1.
         21    1    1    2  503  501  0.41846587917E+02 -0.12180149917E+03  0.10153939917E+03  0.16400302346E+03  0.00000000000E+00 0. -1.
         21    1    1    2  504  502  0.33077245753E+02  0.53378101064E+01 -0.98406567498E+01  0.34920408483E+02  0.00000000000E+00 0.  1.
         21    1    1    2  505  503 -0.47539835912E+02  0.49219616624E+02 -0.28494202610E+02  0.74125071612E+02  0.00000000000E+00 0. -1.
         21    1    1    2  506  505 -0.27383997758E+02  0.67244072439E+02 -0.11204389089E+03  0.13351210468E+03  0.00000000000E+00 0. -1.
<scales pt_clust_3="129.75371" pt_clust_4="33.50517" pt_clust_5="61.49373" pt_clust_6="61.49373"></scales>
<clustering>
<clus scale="   33.505">  2  4  1 -1</clus>
<clus scale="   61.494">  5  6 -1 -1</clus>
<clus scale="  129.754">  1  3  2 -1</clus>
<clus scale="  129.754">  1  3  2 -1</clus>
</clustering>
</event>
<event>
 6    0  0.1221518E+003  0.1537388E+03  0.7546771E-02  0.1195953E+00
         21   -1    0    0  503  501  0.00000000000E+00  0.00000000000E+00  0.12020129201E+04  0.12020129201E+04  0.00000000000E+00 0. -1.
         21   -1    0    0  505  502 -0.00000000000E+00 -0.00000000000E+00 -0.83318876379E+02  0.83318876379E+02  0.00000000000E+00 0. -1.
         21    1    1    2  503  504  0.37404941119E+02  0.41376795344E+02  0.57290979460E+03  0.57561862510E+03  0.00000000000E+00 0. -1.
         21    1    1    2  504  506  0.12728541721E+03  0.17897546495E+02  0.39926711625E+03  0.41944740996E+03  0.00000000000E+00 0. -1.
         21    1    1    2  505  501 -0.37805845950E+02  0.55292132680E+02  0.29864483163E+01  0.67047899280E+02  0.00000000000E+00 0. -1.
         21    1    1    2  506  502 -0.12688451238E+03 -0.11456647452E+03  0.14353068454E+03  0.22321786212E+03  0.00000000000E+00 0. -1.
<scales pt_clust_3="55.77785" pt_clust_4="153.73885" pt_clust_5="67.77651" pt_clust_6="14000.00000"></scales>
<clustering>
<clus scale="   55.778">  1  3  2 -1</clus>
<clus scale="   67.777">  2  5  1 -1</clus>
<clus scale="  153.739">  1  4  2 -1</clus>
<clus scale="   55.778">  1  3  2 -1</clus>
</clustering>
</event>
<event>
 6    0  0.1221518E+003  0.1339689E+03  0.7546771E-02  0.1221683E+00
         21   -1    0    0  506  501  0.00000000000E+00  0.00000000000E+00  0.58413959180E+03  0.58413959180E+03  0.00000000000E+00 0. -1.
         21   -1    0    0  505  502 -0.00000000000E+00 -0.00000000000E+00 -0.35131946935E+03  0.35131946935E+03  0.00000000000E+00 0. -1.
         21    1    1    2  503  504  0.16032719047E+03 -0.84977410783E+02  0.32508245459E+03  0.37229634786E+03  0.00000000000E+00 0. -1.
         21    1    1    2  504  502 -0.11112015256E+03  0.42571583446E+02 -0.13323411135E+03  0.17863750012E+03  0.00000000000E+00 0. -1.
         21    1    1    2  505  501  0.20380116532E+01  0.32565531074E+02 -0.16697400854E+03  0.17013226277E+03  0.00000000000E+00 0. -1.
         21    1    1    2  506  503 -0.51245049563E+02  0.98402962632E+01  0.20794578776E+03  0.21439295040E+03  0.00000000000E+00 0. -1.
<scales pt_clust_3="14000.00000" pt_clust_4="133.96892" pt_clust_5="32.62924" pt_clust_6="52.25742"></scales>
<clustering>
<clus scale="   32.629">  2  5  1 -1</clus>
<clus scale="   52.257">  1  6  2 -1</clus>
<clus scale="  133.969">  2  4  1 -1</clus>
<clus scale="   52.257">  1  3  2 -1</clus>
</clustering>
</event>
<event>
 6    0  0.1221518E+003  0.1321928E+03  0.7546771E-02  0.1224238E+00
         21   -1    0    0  506  501  0.00000000000E+00  0.00000000000E+00  0.39026169948E+03  0.39026169948E+03  0.00000000000E+00 0.  1.
         21   -1    0    0  504  502 -0.00000000000E+00 -0.00000000000E+00 -0.36518520831E+03  0.36518520831E+03  0.00000000000E+00 0. -1.
         21    1    1    2  503  505  0.29100450800E+02  0.48557676856E+02  0.10531004669E+03  0.11956124018E+03  0.00000000000E+00 0.  1.
         21    1    1    2  504  503 -0.31621106727E+02  0.25340654157E+02 -0.91656275286E+02  0.10021434999E+03  0.00000000000E+00 0.  1.
         21    1    1    2  505  501 -0.12717797957E+02  0.67556918856E+02  0.24923935195E+03  0.25854580683E+03  0.00000000000E+00 0.  1.
         21    1    1    2  506  502  0.15238453884E+02 -0.14145524987E+03 -0.23781663218E+03  0.27712551080E+03  0.00000000000E+00 0. -1.
<scales pt_clust_3="53.61895" pt_clust_4="40.52213" pt_clust_5="53.61895" pt_clust_6="118.17889"></scales>
<clustering>
<clus scale="   40.522">  2  4  1 -1</clus>
<clus scale="   53.619">  3  5 -1 -1</clus>
<clus scale="  118.179">  2  6  1 -1</clus>
<clus scale="  132.193">  1  3  2 -1</clus>
</clustering>
</event>
<event>
 6    0  0.1221518E+003  0.1281287E+03  0.7546771E-02  0.1230259E+00
         21   -1    0    0  506  501  0.00000000000E+00  0.00000000000E+00  0.12666028385E+03  0.12666028385E+03  0.00000000000E+00 0.  1.
         21   -1    0    0  503  502 -0.00000000000E+00 -0.00000000000E+00 -0.77449084305E+03  0.77449084305E+03  0.00000000000E+00 0. -1.
         21    1    1    2  503  505  0.11198535123E+03  0.21733267256E+02  0.47951794336E+02  0.12374339730E+03  0.00000000000E+00 0.  1.
         21    1    1    2  504  502  0.26967631739E+02  0.21686508380E+02 -0.92333520618E+02  0.98605460483E+02  0.00000000000E+00 0. -1.
         21    1    1    2  505  501  0.13868260350E+02 -0.47353853931E+02  0.66985082809E+01  0.49795442969E+02  0.00000000000E+00 0.  1.
         21    1    1    2  506  504 -0.15282124332E+03  0.39340782952E+01 -0.61014734119E+03  0.62900682615E+03  0.00000000000E+00 0. -1.
<scales pt_clust_3="14000.00000" pt_clust_4="34.60575" pt_clust_5="48.93343" pt_clust_6="128.12871"></scales>
<clustering>
<clus scale="   34.606">  2  4  1 -1</clus>
<clus scale="   48.933">  1  5  2 -1</clus>
<clus scale="  128.129">  2  6  1 -1</clus>
<clus scale="   48.933">  1  3  2 -1</clus>
</clustering>
</event>
<event>
 6    0  0.1221518E+003  0.1416784E+03  0.7546771E-02  0.1211088E+00
         21   -1    0    0  503  501  0.00000000000E+00  0.00000000000E+00  0.24791048274E+03  0.24791048274E+03  0.00000000000E+00 0.  1.
         21   -1    0    0  504  502 -0.00000000000E+00 -0.00000000000E+00 -0.36872215561E+03  0.36872215561E+03  0.00000000000E+00 0.  1.
         21    1    1    2  503  502 -0.12648854389E+03 -0.96290675452E+02  0.16456107766E+03  0.22880470755E+03  0.00000000000E+00 0.  1.
         21    1    1    2  504  505  0.76291050460E+01  0.58328191404E+02 -0.20665020149E+03  0.21485969127E+03  0.00000000000E+00 0.  1.
         21    1    1    2  505  506  0.89529468220E+02  0.65451278488E+02 -0.71966172544E+02  0.13220637476E+03  0.00000000000E+00 0.  1.
         21    1    1    2  506  501  0.29329970626E+02 -0.27488794440E+02 -0.67563764878E+01  0.40761864775E+02  0.00000000000E+00 0.  1.
<scales pt_clust_3="14000.00000" pt_clust_4="58.41098" pt_clust_5="141.67844" pt_clust_6="40.19802"></scales>
<clustering>
<clus scale="   40.198">  1  6  2 -1</clus>
<clus scale="   58.411">  2  4  1 -1</clus>
<clus scale="  141.678">  2  5  1 -1</clus>
<clus scale="   40.198">  1  3  2 -1</clus>
</clustering>
</event>
<event>
 6    0  0.1221518E+003  0.1143053E+03  0.7546771E-02  0.1252799E+00
         21   -1    0    0  505  501  0.00000000000E+00  0.00000000000E+00  0.16407601162E+03  0.16407601162E+03  0.00000000000E+00 0. -1.
         21   -1    0    0  506  502 -0.00000000000E+00 -0.00000000000E+00 -0.33034673595E+03  0.33034673595E+03  0.00000000000E+00 0.  1.
         21    1    1    2  503  504 -0.49741012627E+02 -0.65782302835E+01 -0.13834714528E+02  0.52046525119E+02  0.00000000000E+00 0.  1.
         21    1    1    2  504  501  0.18730001984E+02  0.12321145902E+03  0.92048171221E+02  0.15493463923E+03  0.00000000000E+00 0. -1.
         21    1    1    2  505  502  0.54610120988E+02 -0.77862479599E+02 -0.10952028925E+03  0.14505007687E+03  0.00000000000E+00 0.  1.
         21    1    1    2  506  503 -0.23599110345E+02 -0.38770749138E+02 -0.13496389177E+03  0.14239150635E+03  0.00000000000E+00 0.  1.
<scales pt_clust_3="55.40245" pt_clust_4="114.30532" pt_clust_5="14000.00000" pt_clust_6="45.38820"></scales>
<clustering>
<clus scale="   45.388">  2  6  1 -1</clus>
<clus scale="   55.402">  2  3  1 -1</clus>
<clus scale="  114.305">  1  4  2 -1</clus>
<clus scale="  114.305">  1  3  2 -1</clus>
</clustering>
</event>
<event>
 6    0  0.1221518E+003  0.9632908E+02  0.7546771E-02  0.1288210E+00
         21   -1    0    0  505  501  0.00000000000E+00  0.00000000000E+00  0.34511471574E+02  0.34511471574E+02  0.00000000000E+00 0.  1.
         21   -1    0    0  506  502 -0.00000000000E+00 -0.00000000000E+00 -0.97210922427E+03  0.97210922427E+03  0.00000000000E+00 0.  1.
         21    1    1    2  503  502 -0.24880567799E+02 -0.73767031732E+02 -0.24231762081E+03  0.25451610357E+03  0.00000000000E+00 0.  1.
         21    1    1    2  504  501  0.11009367494E+03  0.76015511225E+02 -0.32007493494E+03  0.34691056367E+03  0.00000000000E+00 0.  1.
         21    1    1    2  505  503 -0.39342407936E+02 -0.11551111400E+02 -0.17737447931E+02  0.44675164196E+02  0.00000000000E+00 0.  1.
         21    1    1    2  506  504 -0.45870699200E+02  0.93026319076E+01 -0.35746774903E+03  0.36051886441E+03  0.00000000000E+00 0.  1.
<scales pt_clust_3="14000.00000" pt_clust_4="96.32908" pt_clust_5="41.00309" pt_clust_6="49.45287"></scales>
<clustering>
<clus scale="   41.003">  1  5  2 -1</clus>
<clus scale="   49.453">  2  6  1 -1</clus>
<clus scale="   96.329">  1  4  2 -1</clus>
<clus scale="   41.003">  1  3  2 -1</clus>
</clustering>
</event>
<event>
 6    0  0.1221518E+003  0.9105310E+02  0.7546771E-02  0.1300321E+00
         21   -1    0    0  504  501  0.00000000000E+00  0.00000000000E+00  0.21052168768E+03  0.21052168768E+03  0.00000000000E+00 0. -1.
         21   -1    0    0  506  502 -0.00000000000E+00 -0.00000000000E+00 -0.71269054146E+03  0.71269054146E+03  0.00000000000E+00 0.  1.
         21    1    1    2  503  501 -0.47031398579E+02 -0.73031435284E+02  0.13433497496E+03  0.15997321178E+03  0.00000000000E+00 0. -1.
         21    1    1    2  504  505  0.12108297303E+03  0.70009135585E+02 -0.64607746395E+02  0.15406662947E+03  0.00000000000E+00 0.  1.
         21    1    1    2  505  502 -0.34083120882E+01  0.45832951272E+02 -0.49236655325E+03  0.49450692490E+03  0.00000000000E+00 0.  1.
         21    1    1    2  506  503 -0.70643262361E+02 -0.42810651573E+02 -0.79529529089E+02  0.11466546299E+03  0.00000000000E+00 0. -1.
<scales pt_clust_3="91.05310" pt_clust_4="14000.00000" pt_clust_5="45.95950" pt_clust_6="75.58343"></scales>
<clustering>
<clus scale="   45.960">  2  5  1 -1</clus>
<clus scale="   75.583">  2  6  1 -1</clus>
<clus scale="   91.053">  1  3  2 -1</clus>
<clus scale="   91.053">  1  3  2 -1</clus>
</clustering>
</event>
<event>
 6    0  0.1221518E+003  0.7718280E+02  0.7546771E-02  0.1337242E+00
         21   -1    0    0  504  501  0.00000000000E+00  0.00000000000E+00  0.27060101552E+03  0.27060101552E+03  0.00000000000E+00 0. -1.
         21   -1    0    0  503  502 -0.00000000000E+00 -0.00000000000E+00 -0.12766604454E+03  0.12766604454E+03  0.00000000000E+00 0. -1.
         21    1    1    2  503  505  0.31738750067E+02  0.47132313740E+02 -0.63414923362E+01  0.57175324917E+02  0.00000000000E+00 0. -1.
         21    1    1    2  504  502  0.30498729206E+02 -0.29524831808E+02  0.33157888037E+02  0.53864029886E+02  0.00000000000E+00 0. -1.
         21    1    1    2  505  506  0.32573109889E+01 -0.99001693010E+02 -0.33655376025E+02  0.10461658391E+03  0.00000000000E+00 0. -1.
         21    1    1    2  506  501 -0.65494790262E+02  0.81394211078E+02  0.14977395131E+03  0.18261112134E+03  0.00000000000E+00 0. -1.
<scales pt_clust_3="56.18325" pt_clust_4="42.44865" pt_clust_5="77.18280" pt_clust_6="14000.00000"></scales>
<clustering>
<clus scale="   42.449">  1  4  2 -1</clus>
<clus scale="   56.183">  2  3  1 -1</clus>
<clus scale="   77.183">  2  5  1 -1</clus>
<clus scale="   42.449">  1  3  2 -1</clus>
</clustering>
</event>
<event>
 6    0  0.1221518E+003  0.3312274E+03  0.7546771E-02  0.1070595E+00
         21   -1    0    0  505  501  0.00000000000E+00  0.00000000000E+00  0.33972402478E+03  0.33972402478E+03  0.00000000000E+00 0.  1.
         21   -1    0    0  501  502 -0.00000000000E+00 -0.00000000000E+00 -0.14802835871E+04  0.14802835871E+04  0.00000000000E+00 0. -1.
         21    1    1    2  503  504  0.54403603960E+02  0.93927912131E+02  0.64675737278E+02  0.12635329752E+03  0.00000000000E+00 0.  1.
         21    1    1    2  504  506 -0.21903802731E+03 -0.19116372042E+03 -0.41321038714E+03  0.50523662718E+03  0.00000000000E+00 0.  1.
         21    1    1    2  505  503  0.19400301557E+03  0.12207341808E+03  0.13139038961E+03  0.26420167284E+03  0.00000000000E+00 0.  1.
         21    1    1    2  506  502 -0.29368592221E+02 -0.24837609797E+02 -0.92341530202E+03  0.92421601430E+03  0.00000000000E+00 0. -1.
<scales pt_clust_3="52.12184" pt_clust_4="322.46356" pt_clust_5="52.12184" pt_clust_6="38.46324"></scales>
<clustering>
<clus scale="   38.463">  2  6  1 -1</clus>
<clus scale="   52.122">  3  5 -1 -1</clus>
<clus scale="  322.464">  2  4  1 -1</clus>
<clus scale="  331.227">  1  3  2 -1</clus>
</clustering>
</event>
<event>
 6    0  0.1221518E+003  0.1636841E+03  0.7546771E-02  0.1184599E+00
         21   -1    0    0  503  501  0.00000000000E+00  0.00000000000E+00  0.27890630066E+02  0.27890630066E+02  0.00000000000E+00 0.  1.
         21   -1    0    0  504  502 -0.00000000000E+00 -0.00000000000E+00 -0.21017543304E+04  0.21017543304E+04  0.00000000000E+00 0. -1.
         21    1    1    2  503  502 -0.39186553838E+02  0.13066128817E+02 -0.33114854612E+02  0.52942452908E+02  0.00000000000E+00 0.  1.
         21    1    1    2  504  506  0.27935103324E+02 -0.11964222940E+02 -0.49636983433E+03  0.49729923091E+03  0.00000000000E+00 0. -1.
         21    1    1    2  505  501 -0.56767736613E+02  0.14547237561E+03 -0.54061365851E+03  0.56271477300E+03  0.00000000000E+00 0.  1.
         21    1    1    2  506  505  0.68019187127E+02 -0.14657428148E+03 -0.10037653529E+04  0.10166885037E+04  0.00000000000E+00 0. -1.
<scales pt_clust_3="40.49560" pt_clust_4="30.38935" pt_clust_5="14000.00000" pt_clust_6="163.68413"></scales>
<clustering>
<clus scale="   30.389">  2  4  1 -1</clus>
<clus scale="   40.496">  1  3  2 -1</clus>
<clus scale="  163.684">  2  6  1 -1</clus>
<clus scale="   40.496">  1  3  2 -1</clus>
</clustering>
</event>
<event>
 6    0  0.1221518E+003  0.1098810E+03  0.7546771E-02  0.1260790E+00
         21   -1    0    0  505  501  0.00000000000E+00  0.00000000000E+00  0.20514365568E+03  0.20514365568E+03  0.00000000000E+00 0. -1.
         21   -1    0    0  506  502 -0.00000000000E+00 -0.00000000000E+00 -0.19146144896E+03  0.19146144896E+03  0.00000000000E+00 0. -1.
         21    1    1    2  503  504  0.51901116193E+01 -0.39199297156E+02 -0.91785267970E+02  0.99940270024E+02  0.00000000000E+00 0. -1.
         21    1    1    2  504  502  0.13774816699E+02 -0.31424970790E+02 -0.26846014754E+02  0.43565845251E+02  0.00000000000E+00 0. -1.
         21    1    1    2  505  503 -0.90541642275E+02  0.64595469577E+02  0.14226630423E+03  0.18058257113E+03  0.00000000000E+00 0. -1.
         21    1    1    2  506  501  0.71576713956E+02  0.60287983686E+01 -0.99528147865E+01  0.72516418228E+02  0.00000000000E+00 0. -1.
<scales pt_clust_3="31.90609" pt_clust_4="31.90609" pt_clust_5="104.40626" pt_clust_6="71.83016"></scales>
<clustering>
<clus scale="   31.906">  3  4 -1 -1</clus>
<clus scale="   71.830">  2  6  1 -1</clus>
<clus scale="  104.406">  1  5  2 -1</clus>
<clus scale="  104.406">  1  3  2 -1</clus>
</clustering>
</event>
<event>
 6    0  0.1221518E+003  0.1433864E+03  0.7546771E-02  0.1208844E+00
         21   -1    0    0  503  501  0.00000000000E+00  0.00000000000E+00  0.47675810509E+02  0.47675810509E+02  0.00000000000E+00 0. -1.
         21   -1    0    0  505  502 -0.00000000000E+00 -0.00000000000E+00 -0.11969451046E+04  0.11969451046E+04  0.00000000000E+00 0. -1.
         21    1    1    2  503  506 -0.24624231822E+02 -0.22716048205E+02 -0.18533141667E+02  0.38286407235E+02  0.00000000000E+00 0. -1.
         21    1    1    2  504  501 -0.31064014709E+02 -0.95079537352E+02 -0.19931316713E+03  0.22300410315E+03  0.00000000000E+00 0. -1.
         21    1    1    2  505  504  0.16905472156E+03  0.72190502354E+02 -0.66997994172E+03  0.69474030387E+03  0.00000000000E+00 0. -1.
         21    1    1    2  506  502 -0.11336647503E+03  0.45605083204E+02 -0.26144304358E+03  0.28859010086E+03  0.00000000000E+00 0. -1.
<scales pt_clust_3="33.50182" pt_clust_4="109.30888" pt_clust_5="143.38645" pt_clust_6="14000.00000"></scales>
<clustering>
<clus scale="   33.502">  1  3  2 -1</clus>
<clus scale="  109.309">  1  4  2 -1</clus>
<clus scale="  143.386">  2  5  1 -1</clus>
<clus scale="   33.502">  1  3  2 -1</clus>
</clustering>
</event>
<event>
 6    0  0.1221518E+003  0.8592996E+02  0.7546771E-02  0.1313018E+00
         21   -1    0    0  505  501  0.00000000000E+00  0.00000000000E+00  0.38102167457E+03  0.38102167457E+03  0.00000000000E+00 0. -1.
         21   -1    0    0  504  502 -0.00000000000E+00 -0.00000000000E+00 -0.71248704500E+03  0.71248704500E+03  0.00000000000E+00 0. -1.
         21    1    1    2  503  506 -0.11584724452E+03 -0.53239867809E+01  0.54320574679E+02  0.12806113279E+03  0.00000000000E+00 0. -1.
         21    1    1    2  504  503  0.53476730088E+02  0.71361520212E+01 -0.65722300507E+03  0.65943366893E+03  0.00000000000E+00 0. -1.
         21    1    1    2  505  502 -0.33566460676E+02  0.85263577835E+01  0.13184665932E+03  0.13631928563E+03  0.00000000000E+00 0.  1.
         21    1    1    2  506  501  0.95936975106E+02 -0.10338523024E+02  0.13959040064E+03  0.16969463221E+03  0.00000000000E+00 0. -1.
<scales pt_clust_3="85.92996" pt_clust_4="53.80692" pt_clust_5="34.63244" pt_clust_6="14000.00000"></scales>
<clustering>
<clus scale="   34.632">  1  5  2 -1</clus>
<clus scale="   53.807">  2  4  1 -1</clus>
<clus scale="   85.930">  2  3  1 -1</clus>
<clus scale="   34.632">  1  3  2 -1</clus>
</clustering>
</event>
<event>
 6    0  0.1221518E+003  0.1111364E+03  0.7546771E-02  0.1258480E+00
         21   -1    0    0  504  501  0.00000000000E+00  0.00000000000E+00  0.11071886246E+03  0.11071886246E+03  0.00000000000E+00 0.  1.
         21   -1    0    0  503  502 -0.00000000000E+00 -0.00000000000E+00 -0.71456033327E+03  0.71456033327E+03  0.00000000000E+00 0.  1.
         21    1    1    2  503  505 -0.12602052613E+02 -0.41273817464E+02 -0.31643183530E+03  0.31936099657E+03  0.00000000000E+00 0.  1.
         21    1    1    2  504  502 -0.87700325636E+02  0.99678194000E+02 -0.30159123688E+03  0.32952141606E+03  0.00000000000E+00 0.  1.
         21    1    1    2  505  506  0.25557268277E+02 -0.88022759948E+02  0.25660074155E+02  0.95182034210E+02  0.00000000000E+00 0.  1.
         21    1    1    2  506  501  0.74745109973E+02  0.29618383412E+02 -0.11478472785E+02  0.81214748896E+02  0.00000000000E+00 0.  1.
<scales pt_clust_3="43.15483" pt_clust_4="111.13641" pt_clust_5="14000.00000" pt_clust_6="77.35452"></scales>
<clustering>
<clus scale="   43.155">  2  3  1 -1</clus>
<clus scale="   77.355">  1  6  2 -1</clus>
<clus scale="  111.136">  2  4  1 -1</clus>
<clus scale="   77.355">  1  3  2 -1</clus>
</clustering>
</event>
<event>
 6    0  0.1221518E+003  0.8548862E+02  0.7546771E-02  0.1314160E+00
         21   -1    0    0  505  501  0.00000000000E+00  0.00000000000E+00  0.37574743128E+03  0.37574743128E+03  0.00000000000E+00 0.  1.
         21   -1    0    0  506  502 -0.00000000000E+00 -0.00000000000E+00 -0.95620721881E+02  0.95620721881E+02  0.00000000000E+00 0.  1.
         21    1    1    2  503  502  0.31573966801E+02  0.59936109077E+01 -0.76605846109E+01  0.33038209816E+02  0.00000000000E+00 0. -1.
         21    1    1    2  504  501  0.56410926363E+01  0.91025969179E+02  0.27945379373E+03  0.29395913291E+03  0.00000000000E+00 0.  1.
         21    1    1    2  505  503 -0.58381392772E+02 -0.57602528513E+02  0.38304962052E+02  0.90519105336E+02  0.00000000000E+00 0.  1.
         21    1    1    2  506  504  0.21166333335E+02 -0.39417051573E+02 -0.29971461770E+02  0.53851705100E+02  0.00000000000E+00 0.  1.
<scales pt_clust_3="32.13781" pt_clust_4="14000.00000" pt_clust_5="85.48862" pt_clust_6="52.94407"></scales>
<clustering>
<clus scale="   32.138">  2  3  1 -1</clus>
<clus scale="   52.944">  2  6  1 -1</clus>
<clus scale="   85.489">  2  5  1 -1</clus>
<clus scale="   85.489">  1  3  2 -1</clus>
</clustering>
</event>
<event>
 6    0  0.1221518E+003  0.1023039E+03  0.7546771E-02  0.1275524E+00
         21   -1    0    0  503  501  0.00000000000E+00  0.00000000000E+00  0.53130469758E+03  0.53130469758E+03  0.00000000000E+00 0. -1.
         21   -1    0    0  504  502 -0.00000000000E+00 -0.00000000000E+00 -0.94815953612E+03  0.94815953612E+03  0.00000000000E+00 0.  1.
         21    1    1    2  503  505 -0.29669776018E+02 -0.21174074367E+02  0.10283575277E+03  0.10910467030E+03  0.00000000000E+00 0. -1.
         21    1    1    2  504  501  0.74097166842E+02 -0.40838733427E+02  0.73881077776E+02  0.11232366596E+03  0.00000000000E+00 0.  1.
         21    1    1    2  505  506 -0.60616110734E+02  0.97888367629E+02  0.32182122927E+03  0.34179723376E+03  0.00000000000E+00 0. -1.
         21    1    1    2  506  502  0.16188719910E+02 -0.35875559835E+02 -0.91539289836E+03  0.91623866367E+03  0.00000000000E+00 0.  1.
<scales pt_clust_3="36.45047" pt_clust_4="102.30392" pt_clust_5="14000.00000" pt_clust_6="39.36607"></scales>
<clustering>
<clus scale="   36.450">  1  3  2 -1</clus>
<clus scale="   39.366">  2  6  1 -1</clus>
<clus scale="  102.304">  2  4  1 -1</clus>
<clus scale="   36.450">  1  3  2 -1</clus>
</clustering>
</event>
<event>
 6    0  0.1221518E+003  0.8863005E+02  0.7546771E-02  0.1306204E+00
         21   -1    0    0  503  501  0.00000000000E+00  0.00000000000E+00  0.26197668072E+02  0.26197668072E+02  0.00000000000E+00 0.  1.
         21   -1    0    0  504  502 -0.00000000000E+00 -0.00000000000E+00 -0.13436143702E+04  0.13436143702E+04  0.00000000000E+00 0.  1.
         21    1    1    2  503  506  0.60679844379E+02 -0.63621945541E+02 -0.92618232064E+02  0.12770251516E+03  0.00000000000E+00 0.  1.
         21    1    1    2  504  505  0.29905440791E+01  0.34150373397E+02 -0.12874691411E+03  0.13323272590E+03  0.00000000000E+00 0.  1.
         21    1    1    2  505  501  0.50209590780E+02  0.12982632637E+02 -0.28141486798E+03  0.28615359455E+03  0.00000000000E+00 0.  1.
         21    1    1    2  506  502 -0.11387997924E+03  0.16488939507E+02 -0.81463668796E+03  0.82272320265E+03  0.00000000000E+00 0.  1.
<scales pt_clust_3="88.63005" pt_clust_4="34.28106" pt_clust_5="55.06096" pt_clust_6="14000.00000"></scales>
<clustering>
<clus scale="   34.281">  2  4  1 -1</clus>
<clus scale="   55.061">  2  5  1 -1</clus>
<clus scale="   88.630">  1  3  2 -1</clus>
<clus scale="   88.630">  1  3  2 -1</clus>
</clustering>
</event>
<event>
 6    0  0.1221518E+003  0.8471352E+02  0.7546771E-02  0.1316183E+00
         21   -1    0    0  503  501  0.00000000000E+00  0.00000000000E+00  0.76328925824E+03  0.76328925824E+03  0.00000000000E+00 0. -1.
         21   -1    0    0  506  502 -0.00000000000E+00 -0.00000000000E+00 -0.52571079702E+02  0.52571079702E+02  0.00000000000E+00 0. -1.
         21    1    1    2  503  505 -0.68240040904E+02 -0.24509457047E+02  0.46763924146E+02  0.86280248428E+02  0.00000000000E+00 0. -1.
         21    1    1    2  504  501  0.66446325705E+02  0.56961241018E+02  0.56225776935E+03  0.56902855497E+03  0.00000000000E+00 0. -1.
         21    1    1    2  505  502  0.15955385136E+02 -0.73687226521E+02  0.85616300367E+02  0.11408125418E+03  0.00000000000E+00 0. -1.
         21    1    1    2  506  504 -0.14161669936E+02  0.41235442551E+02  0.16080184677E+02  0.46470280363E+02  0.00000000000E+00 0. -1.
<scales pt_clust_3="14000.00000" pt_clust_4="84.71352" pt_clust_5="58.93934" pt_clust_6="43.59948"></scales>
<clustering>
<clus scale="   43.599">  2  6  1 -1</clus>
<clus scale="   58.939">  2  5  1 -1</clus>
<clus scale="   84.714">  1  4  2 -1</clus>
<clus scale="   84.714">  1  3  2 -1</clus>
</clustering>
</event>
<event>
 6    0  0.1221518E+003  0.2765643E+03  0.7546771E-02  0.1097580E+00
         21   -1    0    0  505  501  0.00000000000E+00  0.00000000000E+00  0.16101763115E+03  0.16101763115E+03  0.00000000000E+00 0.  1.
         21   -1    0    0  504  502 -0.00000000000E+00 -0.00000000000E+00 -0.17992126610E+04  0.17992126610E+04  0.00000000000E+00 0. -1.
         21    1    1    2  503  506 -0.17995393923E+03  0.88814230358E+02 -0.32864984299E+02  0.20335066991E+03  0.00000000000E+00 0.  1.
         21    1    1    2  504  501  0.91795284899E+01 -0.31304044344E+02 -0.57604252738E+03  0.57696551048E+03  0.00000000000E+00 0.  1.
         21    1    1    2  505  503 -0.48896895527E+02  0.31226997502E+02  0.48978481923E+02  0.75927093034E+02  0.00000000000E+00 0. -1.
         21    1    1    2  506  502  0.21967130627E+03 -0.88737183516E+02 -0.10782660001E+04  0.11039870188E+04  0.00000000000E+00 0. -1.
<scales pt_clust_3="56.44230" pt_clust_4="32.62218" pt_clust_5="56.44230" pt_clust_6="255.99608"></scales>
<clustering>
<clus scale="   32.622">  2  4  1 -1</clus>
<clus scale="   56.442">  3  5 -1 -1</clus>
<clus scale="  255.996">  2  6  1 -1</clus>
<clus scale="  276.564">  1  3  2 -1</clus>
</clustering>
</event>
<event>
 6    0  0.1221518E+003  0.1627676E+03  0.7546771E-02  0.1185607E+00
         21   -1    0    0  504  501  0.00000000000E+00  0.00000000000E+00  0.81870238437E+03  0.81870238437E+03  0.00000000000E+00 0.  1.
         21   -1    0    0  506  502 -0.00000000000E+00 -0.00000000000E+00 -0.93270946028E+02  0.93270946028E+02  0.00000000000E+00 0.  1.
         21    1    1    2  503  501 -0.90851179069E+01  0.42421275799E+02  0.17716851051E+03  0.18240281008E+03  0.00000000000E+00 0.  1.
         21    1    1    2  504  502  0.48022593154E+01 -0.11900891475E+03  0.10051470504E+03  0.15585053550E+03  0.00000000000E+00 0. -1.
         21    1    1    2  505  503  0.16529072962E+03  0.34911193558E+02  0.32744382795E+03  0.36845525806E+03  0.00000000000E+00 0.  1.
         21    1    1    2  506  505 -0.16100787103E+03  0.41676445397E+02  0.12030439485E+03  0.20526472676E+03  0.00000000000E+00 0.  1.
<scales pt_clust_3="43.38322" pt_clust_4="110.53831" pt_clust_5="162.76756" pt_clust_6="14000.00000"></scales>
<clustering>
<clus scale="   43.383">  1  3  2 -1</clus>
<clus scale="  110.538">  2  4  1 -1</clus>
<clus scale="  162.768">  1  5  2 -1</clus>
<clus scale="   43.383">  1  3  2 -1</clus>
</clustering>
</event>
<event>
 6    0  0.1221518E+003  0.1267395E+03  0.7546771E-02  0.1232375E+00
         21   -1    0    0  503  501  0.00000000000E+00  0.00000000000E+00  0.76923940409E+03  0.76923940409E+03  0.00000000000E+00 0.  1.
         21   -1    0    0  504  502 -0.00000000000E+00 -0.00000000000E+00 -0.20639424570E+03  0.20639424570E+03  0.00000000000E+00 0. -1.
         21    1    1    2  503  505  0.89617955245E+02 -0.55938989809E+02  0.32614505078E+02  0.11056335028E+03  0.00000000000E+00 0.  1.
         21    1    1    2  504  506 -0.71959920725E+02  0.75923713524E+02 -0.11713422408E+03  0.15704479271E+03  0.00000000000E+00 0. -1.
         21    1    1    2  505  502  0.16020575847E+02 -0.39209809548E+02 -0.14693278735E+02  0.44832582518E+02  0.00000000000E+00 0.  1.
         21    1    1    2  506  501 -0.33678610366E+02  0.19225085833E+02  0.66205815613E+03  0.66319292429E+03  0.00000000000E+00 0.  1.
<scales pt_clust_3="38.06522" pt_clust_4="111.57496" pt_clust_5="38.06522" pt_clust_6="38.77954"></scales>
<clustering>
<clus scale="   38.065">  3  5 -1 -1</clus>
<clus scale="   38.780">  1  6  2 -1</clus>
<clus scale="  111.575">  2  4  1 -1</clus>
<clus scale="   38.780">  1  3  2 -1</clus>
</clustering>
</event>
<event>
 6    0  0.1221518E+003  0.7355703E+02  0.7546771E-02  0.1348399E+00
         21   -1    0    0  505  501  0.00000000000E+00  0.00000000000E+00  0.18136315959E+03  0.18136315959E+03  0.00000000000E+00 0. -1.
         21   -1    0    0  506  502 -0.00000000000E+00 -0.00000000000E+00 -0.61141436727E+03  0.61141436727E+03  0.00000000000E+00 0. -1.
         21    1    1    2  503  504  0.13336744816E+01  0.78537136682E+02 -0.90737840570E+02  0.12001340024E+03  0.00000000000E+00 0. -1.
         21    1    1    2  504  501  0.22229659630E+02 -0.70014503179E+02  0.14953767898E+03  0.16660644002E+03  0.00000000000E+00 0. -1.
         21    1    1    2  505  502 -0.69992909766E+02 -0.15985923588E+02 -0.18072089610E+03  0.19445976308E+03  0.00000000000E+00 0. -1.
         21    1    1    2  506  503  0.46429575654E+02  0.74632900850E+01 -0.30813014999E+03  0.31169792352E+03  0.00000000000E+00 0. -1.
<scales pt_clust_3="14000.00000" pt_clust_4="73.55703" pt_clust_5="42.64109" pt_clust_6="47.02559"></scales>
<clustering>
<clus scale="   47.026">  2  6  1 -1</clus>
<clus scale="   42.641">  2  5  1 -1</clus>
<clus scale="   73.557">  1  4  2 -1</clus>
<clus scale="   73.557">  1  3  2 -1</clus>
</clustering>
</event>
<event>
 6    0  0.1221518E+003  0.1349944E+03  0.7546771E-02  0.1220228E+00
         21   -1    0    0  502  501  0.00000000000E+00  0.00000000000E+00  0.18085682789E+04  0.18085682789E+04  0.00000000000E+00 0.  1.
         21   -1    0    0  504  502 -0.00000000000E+00 -0.00000000000E+00 -0.60226283170E+02  0.60226283170E+02  0.00000000000E+00 0.  1.
         21    1    1    2  503  506  0.98410264457E+02  0.16682008289E+02  0.11424176469E+03  0.15170382444E+03  0.00000000000E+00 0.  1.
         21    1    1    2  504  503  0.46873140969E+02 -0.45657953432E+00 -0.20432351872E+02  0.51134927517E+02  0.00000000000E+00 0.  1.
         21    1    1    2  505  501 -0.92790149514E+00 -0.45670163684E+02  0.30432828272E+03  0.30773743438E+03  0.00000000000E+00 0.  1.
         21    1    1    2  506  505 -0.14435550393E+03  0.29444734929E+02  0.13502043002E+04  0.13582183757E+04  0.00000000000E+00 0.  1.
<scales pt_clust_3="14000.00000" pt_clust_4="46.87275" pt_clust_5="45.67959" pt_clust_6="134.99438"></scales>
<clustering>
<clus scale="   45.680">  1  5  2 -1</clus>
<clus scale="   46.873">  2  4  1 -1</clus>
<clus scale="  134.994">  1  6  2 -1</clus>
<clus scale="   45.680">  1  3  2 -1</clus>
</clustering>
</event>
<event>
 6    0  0.1221518E+003  0.1692661E+03  0.7546771E-02  0.1178615E+00
         21   -1    0    0  503  501  0.00000000000E+00  0.00000000000E+00  0.10336472757E+03  0.10336472757E+03  0.00000000000E+00 0. -1.
         21   -1    0    0  504  502 -0.00000000000E+00 -0.00000000000E+00 -0.23697717680E+04  0.23697717680E+04  0.00000000000E+00 0. -1.
         21    1    1    2  503  506 -0.30715620462E+02  0.57314760831E+02  0.39913812802E+02  0.76299040635E+02  0.00000000000E+00 0. -1.
         21    1    1    2  504  501 -0.64759734950E+02 -0.14313514291E+03 -0.51377880369E+03  0.53726171604E+03  0.00000000000E+00 0. -1.
         21    1    1    2  505  502 -0.20215398751E+02 -0.28202015735E+02 -0.16279749984E+04  0.16283447459E+04  0.00000000000E+00 0. -1.
         21    1    1    2  506  505  0.11569075416E+03  0.11402239782E+03 -0.16456705112E+03  0.23123099299E+03  0.00000000000E+00 0. -1.
<scales pt_clust_3="64.65536" pt_clust_4="14000.00000" pt_clust_5="34.69893" pt_clust_6="169.26613"></scales>
<clustering>
<clus scale="   34.699">  2  5  1 -1</clus>
<clus scale="   64.655">  1  3  2 -1</clus>
<clus scale="  169.266">  1  6  2 -1</clus>
<clus scale="   64.655">  1  3  2 -1</clus>
</clustering>
</event>
<event>
 6    0  0.1221518E+003  0.1052016E+03  0.7546771E-02  0.1269723E+00
         21   -1    0    0  505  501  0.00000000000E+00  0.00000000000E+00  0.49751668699E+03  0.49751668699E+03  0.00000000000E+00 0.  1.
         21   -1    0    0  506  502 -0.00000000000E+00 -0.00000000000E+00 -0.87096817482E+02  0.87096817482E+02  0.00000000000E+00 0.  1.
         21    1    1    2  503  501 -0.11213912594E+03  0.77332165578E+01  0.34771724745E+03  0.36543435851E+03  0.00000000000E+00 0.  1.
         21    1    1    2  504  502  0.71988777641E+02 -0.66372323299E+02  0.45099214659E+02  0.10780356473E+03  0.00000000000E+00 0.  1.
         21    1    1    2  505  504  0.78479212562E+01  0.34849805777E+02  0.48855340648E+02  0.60522253267E+02  0.00000000000E+00 0.  1.
         21    1    1    2  506  503  0.32302427041E+02  0.23789300965E+02 -0.31251933249E+02  0.50853327963E+02  0.00000000000E+00 0.  1.
<scales pt_clust_3="14000.00000" pt_clust_4="105.20160" pt_clust_5="35.72253" pt_clust_6="40.71758"></scales>
<clustering>
<clus scale="   35.723">  1  5  2 -1</clus>
<clus scale="   40.718">  2  6  1 -1</clus>
<clus scale="  105.202">  2  4  1 -1</clus>
<clus scale="   35.723">  1  3  2 -1</clus>
</clustering>
</event>
<event>
 6    0  0.1221518E+003  0.1217559E+03  0.7546771E-02  0.1240228E+00
         21   -1    0    0  505  501  0.00000000000E+00  0.00000000000E+00  0.80173200348E+03  0.80173200348E+03  0.00000000000E+00 0. -1.
         21   -1    0    0  504  502 -0.00000000000E+00 -0.00000000000E+00 -0.18020173129E+03  0.18020173129E+03  0.00000000000E+00 0. -1.
         21    1    1    2  503  506 -0.94777225080E+02  0.75907656710E+02  0.22796251997E+03  0.25828589828E+03  0.00000000000E+00 0. -1.
         21    1    1    2  504  501 -0.91189446549E+01  0.29467787187E+02 -0.11072120657E+03  0.11493777106E+03  0.00000000000E+00 0. -1.
         21    1    1    2  505  503 -0.25325791353E+02 -0.62581002245E+02  0.46092962620E+03  0.46584750494E+03  0.00000000000E+00 0. -1.
         21    1    1    2  506  502  0.12922196109E+03 -0.42794441651E+02  0.43359332595E+02  0.14286256048E+03  0.00000000000E+00 0.  1.
<scales pt_clust_3="14000.00000" pt_clust_4="30.84648" pt_clust_5="66.64300" pt_clust_6="121.75586"></scales>
<clustering>
<clus scale="   30.846">  2  4  1 -1</clus>
<clus scale="   66.643">  1  5  2 -1</clus>
<clus scale="  121.756">  2  6  1 -1</clus>
<clus scale="   66.643">  1  3  2 -1</clus>
</clustering>
</event>
<event>
 6    0  0.1221518E+003  0.1603218E+03  0.7546771E-02  0.1188334E+00
         21   -1    0    0  505  501  0.00000000000E+00  0.00000000000E+00  0.32676229447E+04  0.32676229447E+04  0.00000000000E+00 0. -1.
         21   -1    0    0  506  502 -0.00000000000E+00 -0.00000000000E+00 -0.74431026607E+02  0.74431026607E+02  0.00000000000E+00 0.  1.
         21    1    1    2  503  504  0.20986062553E+02 -0.12687046335E+03  0.27339032081E+04  0.27369258815E+04  0.00000000000E+00 0. -1.
         21    1    1    2  504  502 -0.81680034201E+02 -0.32480686938E+01  0.15144706257E+03  0.17209994393E+03  0.00000000000E+00 0. -1.
         21    1    1    2  505  503  0.31282188702E+02 -0.29542826172E+02  0.26034292032E+03  0.26387457260E+03  0.00000000000E+00 0. -1.
         21    1    1    2  506  501  0.29411782946E+02  0.15966135821E+03  0.47498727063E+02  0.16915357329E+03  0.00000000000E+00 0.  1.
<scales pt_clust_3="160.32183" pt_clust_4="80.14243" pt_clust_5="43.02736" pt_clust_6="14000.00000"></scales>
<clustering>
<clus scale="   43.027">  1  5  2 -1</clus>
<clus scale="   80.142">  2  4  1 -1</clus>
<clus scale="  160.322">  1  3  2 -1</clus>
<clus scale="   43.027">  1  3  2 -1</clus>
</clustering>
</event>
<event>
 6    0  0.1221518E+003  0.6997530E+02  0.7546771E-02  0.1360177E+00
         21   -1    0    0  505  501  0.00000000000E+00  0.00000000000E+00  0.10406351482E+03  0.10406351482E+03  0.00000000000E+00 0. -1.
         21   -1    0    0  506  502 -0.00000000000E+00 -0.00000000000E+00 -0.13881878563E+04  0.13881878563E+04  0.00000000000E+00 0.  1.
         21    1    1    2  503  502 -0.25935315501E+02  0.31587831313E+02 -0.29209859761E+03  0.29494410047E+03  0.00000000000E+00 0.  1.
         21    1    1    2  504  501  0.40095550825E+02 -0.59300545307E+02 -0.13657570205E+02  0.72874804244E+02  0.00000000000E+00 0. -1.
         21    1    1    2  505  503  0.23765456260E+02  0.89635503123E+02  0.41775317716E+02  0.10170790285E+03  0.00000000000E+00 0. -1.
         21    1    1    2  506  504 -0.37925691584E+02 -0.61922789129E+02 -0.10201434913E+04  0.10227245635E+04  0.00000000000E+00 0.  1.
<scales pt_clust_3="40.87091" pt_clust_4="69.97530" pt_clust_5="69.84427" pt_clust_6="14000.00000"></scales>
<clustering>
<clus scale="   40.871">  2  3  1 -1</clus>
<clus scale="   69.975">  1  4  2 -1</clus>
<clus scale="   69.844">  1  5  2 -1</clus>
<clus scale="   69.975">  1  3  2 -1</clus>
</clustering>
</event>
<event>
 6    0  0.1221518E+003  0.8990000E+02  0.7546771E-02  0.1303094E+00
         21   -1    0    0  504  501  0.00000000000E+00  0.00000000000E+00  0.34101975225E+03  0.34101975225E+03  0.00000000000E+00 0. -1.
         21   -1    0    0  505  502 -0.00000000000E+00 -0.00000000000E+00 -0.10038544911E+03  0.10038544911E+03  0.00000000000E+00 0.  1.
         21    1    1    2  503  501  0.78148108586E+02  0.19825985717E+02  0.15476884349E+03  0.17450957424E+03  0.00000000000E+00 0. -1.
         21    1    1    2  504  506 -0.12971764111E+02  0.32118394866E+02  0.53256168949E+02  0.63530130521E+02  0.00000000000E+00 0. -1.
         21    1    1    2  505  503 -0.90247886723E+02 -0.14578014639E+02 -0.53705266613E+02  0.10602572910E+03  0.00000000000E+00 0.  1.
         21    1    1    2  506  502  0.25071542249E+02 -0.37366365944E+02  0.86314557310E+02  0.97339767506E+02  0.00000000000E+00 0. -1.
<scales pt_clust_3="89.90000" pt_clust_4="34.63897" pt_clust_5="14000.00000" pt_clust_6="34.06296"></scales>
<clustering>
<clus scale="   34.639">  1  4  2 -1</clus>
<clus scale="   34.063">  1  6  2 -1</clus>
<clus scale="   89.900">  1  3  2 -1</clus>
<clus scale="   34.639">  1  3  2 -1</clus>
</clustering>
</event>
<event>
 6    0  0.1221518E+003  0.7685517E+02  0.7546771E-02  0.1338221E+00
         21   -1    0    0  503  501  0.00000000000E+00  0.00000000000E+00  0.99290673514E+03  0.99290673514E+03  0.00000000000E+00 0.  1.
         21   -1    0    0  504  502 -0.00000000000E+00 -0.00000000000E+00 -0.42763720752E+02  0.42763720752E+02  0.00000000000E+00 0. -1.
         21    1    1    2  503  506 -0.25334300842E+02  0.29234058484E+02  0.31676712877E+03  0.31912046447E+03  0.00000000000E+00 0.  1.
         21    1    1    2  504  501 -0.54311776929E+02 -0.37910633305E+02  0.40208496916E+02  0.77483601200E+02  0.00000000000E+00 0. -1.
         21    1    1    2  505  502  0.11300186650E+03  0.79420496889E+01  0.12111075039E+03  0.16583217977E+03  0.00000000000E+00 0. -1.
         21    1    1    2  506  505 -0.33355788733E+02  0.73452513142E+00  0.47205663831E+03  0.47323421045E+03  0.00000000000E+00 0.  1.
<scales pt_clust_3="32.70731" pt_clust_4="66.23432" pt_clust_5="68.31080" pt_clust_6="32.70731"></scales>
<clustering>
<clus scale="   32.707">  3  6 -1 -1</clus>
<clus scale="   66.234">  2  4  1 -1</clus>
<clus scale="   68.311">  2  5  1 -1</clus>
<clus scale="   76.855">  1  3  2 -1</clus>
</clustering>
</event>
<event>
 6    0  0.1221518E+003  0.6964833E+02  0.7546771E-02  0.1361293E+00
         21   -1    0    0  505  501  0.00000000000E+00  0.00000000000E+00  0.59167475948E+03  0.59167475948E+03  0.00000000000E+00 0. -1.
         21   -1    0    0  504  502 -0.00000000000E+00 -0.00000000000E+00 -0.32754889962E+03  0.32754889962E+03  0.00000000000E+00 0. -1.
         21    1    1    2  503  501 -0.89204538540E+01 -0.69063482300E+02  0.55097133040E+03  0.55535461284E+03  0.00000000000E+00 0. -1.
         21    1    1    2  504  503 -0.33565978583E+02  0.30564604314E+02 -0.45431375712E+01  0.45623569064E+02  0.00000000000E+00 0. -1.
         21    1    1    2  505  506  0.75822274328E+02  0.60771328371E+02 -0.14010140941E+03  0.17050095764E+03  0.00000000000E+00 0. -1.
         21    1    1    2  506  502 -0.33335841892E+02 -0.22272450385E+02 -0.14220092355E+03  0.14774451956E+03  0.00000000000E+00 0. -1.
<scales pt_clust_3="69.64833" pt_clust_4="47.02779" pt_clust_5="14000.00000" pt_clust_6="40.09165"></scales>
<clustering>
<clus scale="   40.092">  2  6  1 -1</clus>
<clus scale="   47.028">  2  4  1 -1</clus>
<clus scale="   69.648">  1  3  2 -1</clus>
<clus scale="   69.648">  1  3  2 -1</clus>
</clustering>
</event>
<event>
 6    0  0.1221518E+003  0.9581762E+02  0.7546771E-02  0.1289345E+00
         21   -1    0    0  506  501  0.00000000000E+00  0.00000000000E+00  0.21155896403E+03  0.21155896403E+03  0.00000000000E+00 0. -1.
         21   -1    0    0  504  502 -0.00000000000E+00 -0.00000000000E+00 -0.31313961199E+03  0.31313961199E+03  0.00000000000E+00 0. -1.
         21    1    1    2  503  502  0.95689642066E+02 -0.14801742447E+02 -0.21764842174E+03  0.23821510167E+03  0.00000000000E+00 0. -1.
         21    1    1    2  504  501 -0.89447774821E+02 -0.71166309571E+01  0.60228254682E+02  0.10806939215E+03  0.00000000000E+00 0. -1.
         21    1    1    2  505  503 -0.98418229010E+01  0.73127597839E+02 -0.28976222004E+02  0.79272495138E+02  0.00000000000E+00 0. -1.
         21    1    1    2  506  505  0.35999556554E+01 -0.51209224435E+02  0.84815741103E+02  0.99141587070E+02  0.00000000000E+00 0. -1.
<scales pt_clust_3="14000.00000" pt_clust_4="95.81762" pt_clust_5="63.01641" pt_clust_6="51.33561"></scales>
<clustering>
<clus scale="   51.336">  1  6  2 -1</clus>
<clus scale="   63.016">  1  5  2 -1</clus>
<clus scale="   95.818">  1  4  2 -1</clus>
<clus scale="   51.336">  1  3  2 -1</clus>
</clustering>
</event>
<event>
 6    0  0.1221518E+003  0.1609998E+03  0.7546771E-02  0.1187573E+00
         21   -1    0    0  506  501  0.00000000000E+00  0.00000000000E+00  0.76062589655E+03  0.76062589655E+03  0.00000000000E+00 0.  1.
         21   -1    0    0  504  502 -0.00000000000E+00 -0.00000000000E+00 -0.18506499940E+03  0.18506499940E+03  0.00000000000E+00 0. -1.
         21    1    1    2  503  502  0.15574462912E+01  0.30770162011E+02 -0.27470115539E+01  0.30931773011E+02  0.00000000000E+00 0.  1.
         21    1    1    2  504  505 -0.84596853524E+02  0.58542315506E+02 -0.63898606993E+02  0.12110682188E+03  0.00000000000E+00 0. -1.
         21    1    1    2  505  501 -0.41018720762E+02 -0.10520316356E+02 -0.61552267496E+02  0.74712074949E+02  0.00000000000E+00 0.  1.
         21    1    1    2  506  503  0.12405812800E+03 -0.78792161160E+02  0.70375878319E+03  0.71894022610E+03  0.00000000000E+00 0.  1.
<scales pt_clust_3="30.80955" pt_clust_4="40.27342" pt_clust_5="40.27342" pt_clust_6="146.28465"></scales>
<clustering>
<clus scale="   30.810">  2  3  1 -1</clus>
<clus scale="   40.273">  4  5 -1 -1</clus>
<clus scale="  146.285">  1  6  2 -1</clus>
<clus scale="  146.285">  1  3  2 -1</clus>
</clustering>
</event>
<event>
 6    0  0.1221518E+003  0.8859663E+02  0.7546771E-02  0.1306286E+00
         21   -1    0    0  504  501  0.00000000000E+00  0.00000000000E+00  0.12406953209E+03  0.12406953209E+03  0.00000000000E+00 0. -1.
         21   -1    0    0  503  502 -0.00000000000E+00 -0.00000000000E+00 -0.32661858140E+03  0.32661858140E+03  0.00000000000E+00 0. -1.
         21    1    1    2  503  505  0.65467885873E+02  0.60632898077E+02 -0.45448470775E+02  0.10013968197E+03  0.00000000000E+00 0. -1.
         21    1    1    2  504  506 -0.30717930999E+02  0.38462831033E+01  0.88757506302E+01  0.32205032647E+02  0.00000000000E+00 0.  1.
         21    1    1    2  505  501 -0.24287301491E+02  0.29051769041E+02  0.61468399190E+02  0.72195861357E+02  0.00000000000E+00 0. -1.
         21    1    1    2  506  502 -0.10462653383E+02 -0.93530950221E+02 -0.22744472836E+03  0.24614753751E+03  0.00000000000E+00 0. -1.
<scales pt_clust_3="88.59663" pt_clust_4="30.95780" pt_clust_5="54.22860" pt_clust_6="14000.00000"></scales>
<clustering>
<clus scale="   30.958">  1  4  2 -1</clus>
<clus scale="   54.229">  1  5  2 -1</clus>
<clus scale="   88.597">  1  3  2 -1</clus>
<clus scale="   30.958">  1  3  2 -1</clus>
</clustering>
</event>
<event>
 6    0  0.1221518E+003  0.2185486E+03  0.7546771E-02  0.1134970E+00
         21   -1    0    0  504  501  0.00000000000E+00  0.00000000000E+00  0.40790874183E+03  0.40790874183E+03  0.00000000000E+00 0. -1.
         21   -1    0    0  506  502 -0.00000000000E+00 -0.00000000000E+00 -0.17511621339E+03  0.17511621339E+03  0.00000000000E+00 0. -1.
         21    1    1    2  503  501  0.27093660282E+02  0.25970481646E+02  0.48451437856E+02  0.61286818931E+02  0.00000000000E+00 0.  1.
         21    1    1    2  504  502 -0.63211818951E+02  0.44440075538E+02  0.43969608302E+02  0.88904335233E+02  0.00000000000E+00 0. -1.
         21    1    1    2  505  503 -0.15344075695E+02  0.14952408333E+03  0.14225233783E+03  0.20695076654E+03  0.00000000000E+00 0. -1.
         21    1    1    2  506  505  0.51462234365E+02 -0.21993464051E+03 -0.18808555455E+01  0.22588303451E+03  0.00000000000E+00 0. -1.
<scales pt_clust_3="34.06345" pt_clust_4="77.27001" pt_clust_5="34.06345" pt_clust_6="207.64487"></scales>
<clustering>
<clus scale="   34.063">  3  5 -1 -1</clus>
<clus scale="   77.270">  1  4  2 -1</clus>
<clus scale="  207.645">  2  6  1 -1</clus>
<clus scale="   77.270">  1  3  2 -1</clus>
</clustering>
</event>
<event>
 6    0  0.1221518E+003  0.1320742E+03  0.7546771E-02  0.1224410E+00
         21   -1    0    0  503  501  0.00000000000E+00  0.00000000000E+00  0.54722325012E+02  0.54722325012E+02  0.00000000000E+00 0. -1.
         21   -1    0    0  506  502 -0.00000000000E+00 -0.00000000000E+00 -0.29821143395E+04  0.29821143395E+04  0.00000000000E+00 0. -1.
         21    1    1    2  503  505 -0.12381722305E+03  0.51604706729E+02 -0.48998539287E+02  0.14280968921E+03  0.00000000000E+00 0. -1.
         21    1    1    2  504  502  0.68472505832E+02  0.42354525353E+02 -0.16456704189E+04  0.16476387703E+04  0.00000000000E+00 0. -1.
         21    1    1    2  505  504  0.89799159231E+02 -0.89385353967E+02 -0.62727850724E+03  0.63994683853E+03  0.00000000000E+00 0. -1.
         21    1    1    2  506  501 -0.34454442018E+02 -0.45738781147E+01 -0.60544454914E+03  0.60644136651E+03  0.00000000000E+00 0. -1.
<scales pt_clust_3="132.07417" pt_clust_4="59.36550" pt_clust_5="14000.00000" pt_clust_6="34.75671"></scales>
<clustering>
<clus scale="   34.757">  2  6  1 -1</clus>
<clus scale="   59.366">  2  4  1 -1</clus>
<clus scale="  132.074">  1  3  2 -1</clus>
<clus scale="  132.074">  1  3  2 -1</clus>
</clustering>
</event>
<event>
 6    0  0.1221518E+003  0.6334009E+02  0.7546771E-02  0.1384326E+00
         21   -1    0    0  506  501  0.00000000000E+00  0.00000000000E+00  0.44958713446E+02  0.44958713446E+02  0.00000000000E+00 0.  1.
         21   -1    0    0  505  502 -0.00000000000E+00 -0.00000000000E+00 -0.45005046880E+03  0.45005046880E+03  0.00000000000E+00 0.  1.
         21    1    1    2  503  502  0.31503135629E+02  0.11359456144E+02 -0.82590352490E+02  0.89121552515E+02  0.00000000000E+00 0. -1.
         21    1    1    2  504  501 -0.18233378306E+02 -0.54800070434E+02 -0.60379744778E+02  0.83553679653E+02  0.00000000000E+00 0.  1.
         21    1    1    2  505  504  0.16464267032E+01 -0.57278360855E+02 -0.18760569323E+03  0.19616171257E+03  0.00000000000E+00 0. -1.
         21    1    1    2  506  503 -0.14916184026E+02  0.10071897515E+03 -0.74515964846E+02  0.12617223751E+03  0.00000000000E+00 0.  1.
<scales pt_clust_3="33.48858" pt_clust_4="53.90979" pt_clust_5="63.34009" pt_clust_6="14000.00000"></scales>
<clustering>
<clus scale="   33.489">  2  3  1 -1</clus>
<clus scale="   53.910">  1  4  2 -1</clus>
<clus scale="   63.340">  2  5  1 -1</clus>
<clus scale="   53.910">  1  3  2 -1</clus>
</clustering>
</event>
<event>
 6    0  0.1221518E+003  0.1373846E+03  0.7546771E-02  0.1216892E+00
         21   -1    0    0  506  501  0.00000000000E+00  0.00000000000E+00  0.22554108567E+03  0.22554108567E+03  0.00000000000E+00 0.  1.
         21   -1    0    0  505  502 -0.00000000000E+00 -0.00000000000E+00 -0.46953159181E+03  0.46953159181E+03  0.00000000000E+00 0. -1.
         21    1    1    2  503  504  0.84606246024E+02  0.47332215405E+01  0.21490373211E+02  0.87421143857E+02  0.00000000000E+00 0.  1.
         21    1    1    2  504  501  0.55909016109E+01 -0.55163555479E+02  0.11384374264E+03  0.12662809235E+03  0.00000000000E+00 0.  1.
         21    1    1    2  505  503  0.12979413225E+02 -0.93053044517E+02 -0.47984088419E+02  0.10549790047E+03  0.00000000000E+00 0. -1.
         21    1    1    2  506  502 -0.10317656086E+03  0.14348337846E+03 -0.33134053358E+03  0.37552554080E+03  0.00000000000E+00 0. -1.
<scales pt_clust_3="90.67477" pt_clust_4="55.44615" pt_clust_5="137.38462" pt_clust_6="14000.00000"></scales>
<clustering>
<clus scale="   55.446">  1  4  2 -1</clus>
<clus scale="   90.675">  1  3  2 -1</clus>
<clus scale="  137.385">  1  5  2 -1</clus>
<clus scale="   55.446">  1  3  2 -1</clus>
</clustering>
</event>
<event>
 6    0  0.1221518E+003  0.1031081E+03  0.7546771E-02  0.1273893E+00
         21   -1    0    0  504  501  0.00000000000E+00  0.00000000000E+00  0.26044988863E+03  0.26044988863E+03  0.00000000000E+00 0.  1.
         21   -1    0    0  505  502 -0.00000000000E+00 -0.00000000000E+00 -0.24459266774E+03  0.24459266774E+03  0.00000000000E+00 0.  1.
         21    1    1    2  503  506  0.93268325784E+02 -0.60654022152E+00 -0.36748131755E+02  0.10024855946E+03  0.00000000000E+00 0.  1.
         21    1    1    2  504  502 -0.10179334934E+03  0.11400800797E+02  0.29371953671E+02  0.10655785232E+03  0.00000000000E+00 0.  1.
         21    1    1    2  505  503  0.41853190468E+02  0.13766993223E+01 -0.13226779142E+03  0.13873843555E+03  0.00000000000E+00 0.  1.
         21    1    1    2  506  501 -0.33328166914E+02 -0.12170959898E+02  0.15550119039E+03  0.15949770903E+03  0.00000000000E+00 0.  1.
<scales pt_clust_3="14000.00000" pt_clust_4="103.10805" pt_clust_5="40.81793" pt_clust_6="35.48097"></scales>
<clustering>
<clus scale="   35.481">  1  6  2 -1</clus>
<clus scale="   40.818">  2  5  1 -1</clus>
<clus scale="  103.108">  2  4  1 -1</clus>
<clus scale="   35.481">  1  3  2 -1</clus>
</clustering>
</event>
<event>
 6    0  0.1221518E+003  0.3071950E+03  0.7546771E-02  0.1081698E+00
         21   -1    0    0  506  501  0.00000000000E+00  0.00000000000E+00  0.31494655070E+03  0.31494655070E+03  0.00000000000E+00 0.  1.
         21   -1    0    0  501  502 -0.00000000000E+00 -0.00000000000E+00 -0.33428924022E+03  0.33428924022E+03  0.00000000000E+00 0.  1.
         21    1    1    2  503  504  0.15090828352E+02  0.59543171570E+02 -0.69610768906E+02  0.92837392944E+02  0.00000000000E+00 0.  1.
         21    1    1    2  504  502  0.60090138146E+02  0.22245353669E+03 -0.44980841329E+02  0.23477580108E+03  0.00000000000E+00 0.  1.
         21    1    1    2  505  503 -0.60186181892E+02 -0.20611273454E+03  0.23297429471E+02  0.21598056869E+03  0.00000000000E+00 0.  1.
         21    1    1    2  506  505 -0.14994784606E+02 -0.75883973717E+02  0.71951491243E+02  0.10564202821E+03  0.00000000000E+00 0.  1.
<scales pt_clust_3="49.04885" pt_clust_4="306.91883" pt_clust_5="57.55184" pt_clust_6="57.55184"></scales>
<clustering>
<clus scale="   49.049">  3  4 -1 -1</clus>
<clus scale="   57.552">  5  6 -1 -1</clus>
<clus scale="  306.919">  2  3  1 -1</clus>
<clus scale="  307.195">  1  3  2 -1</clus>
</clustering>
</event>
<event>
 6    0  0.1221518E+003  0.9362518E+02  0.7546771E-02  0.1294303E+00
         21   -1    0    0  505  501  0.00000000000E+00  0.00000000000E+00  0.94639327154E+03  0.94639327154E+03  0.00000000000E+00 0. -1.
         21   -1    0    0  504  502 -0.00000000000E+00 -0.00000000000E+00 -0.55550644048E+03  0.55550644048E+03  0.00000000000E+00 0.  1.
         21    1    1    2  503  501  0.78512179699E+02  0.18773398020E+02 -0.93397001335E+02  0.12344878571E+03  0.00000000000E+00 0.  1.
         21    1    1    2  504  503 -0.92516497887E+02 -0.65372550462E+01 -0.34653829938E+03  0.35873504293E+03  0.00000000000E+00 0.  1.
         21    1    1    2  505  506  0.32951407456E+02 -0.39768202452E+02  0.92156648105E+03  0.92301250488E+03  0.00000000000E+00 0. -1.
         21    1    1    2  506  502 -0.18947089267E+02  0.27532059478E+02 -0.90744349265E+02  0.96703378505E+02  0.00000000000E+00 0.  1.
<scales pt_clust_3="14000.00000" pt_clust_4="93.62518" pt_clust_5="51.59384" pt_clust_6="33.42165"></scales>
<clustering>
<clus scale="   33.422">  2  6  1 -1</clus>
<clus scale="   51.594">  1  5  2 -1</clus>
<clus scale="   93.625">  2  4  1 -1</clus>
<clus scale="   51.594">  1  3  2 -1</clus>
</clustering>
</event>
<event>
 6    0  0.1221518E+003  0.1591273E+03  0.7546771E-02  0.1189686E+00
         21   -1    0    0  505  501  0.00000000000E+00  0.00000000000E+00  0.30269984905E+03  0.30269984905E+03  0.00000000000E+00 0. -1.
         21   -1    0    0  501  502 -0.00000000000E+00 -0.00000000000E+00 -0.42480351664E+03  0.42480351664E+03  0.00000000000E+00 0.  1.
         21    1    1    2  503  502  0.11177143274E+02  0.48914993128E+02 -0.55952194830E+02  0.75154861392E+02  0.00000000000E+00 0.  1.
         21    1    1    2  504  503  0.37746528697E+02  0.85509978892E+02 -0.27582087001E+03  0.29122827688E+03  0.00000000000E+00 0.  1.
         21    1    1    2  505  506 -0.25104756688E+02  0.38323345596E+02  0.17810609773E+03  0.18390407737E+03  0.00000000000E+00 0. -1.
         21    1    1    2  506  504 -0.23818915282E+02 -0.17274831762E+03  0.31563299527E+02  0.17721615006E+03  0.00000000000E+00 0. -1.
<scales pt_clust_3="44.56450" pt_clust_4="44.56450" pt_clust_5="45.81405" pt_clust_6="147.04373"></scales>
<clustering>
<clus scale="   44.564">  3  4 -1 -1</clus>
<clus scale="   45.814">  1  5  2 -1</clus>
<clus scale="  147.044">  1  6  2 -1</clus>
<clus scale="   45.814">  1  3  2 -1</clus>
</clustering>
</event>
<event>
 6    0  0.1221518E+003  0.6001178E+02  0.7546771E-02  0.1397782E+00
         21   -1    0    0  504  501  0.00000000000E+00  0.00000000000E+00  0.27936226477E+04  0.27936226477E+04  0.00000000000E+00 0.  1.
         21   -1    0    0  505  502 -0.00000000000E+00 -0.00000000000E+00 -0.97260506676E+02  0.97260506676E+02  0.00000000000E+00 0. -1.
         21    1    1    2  503  502 -0.95667026543E+02 -0.66990834918E+01  0.22104569196E+02  0.98415799883E+02  0.00000000000E+00 0. -1.
         21    1    1    2  504  503  0.34566247729E+02  0.39460422935E+02  0.24368458458E+04  0.24374104346E+04  0.00000000000E+00 0.  1.
         21    1    1    2  505  506  0.49952750828E+02  0.18072856214E+02 -0.43935791062E+02  0.68936631650E+02  0.00000000000E+00 0. -1.
         21    1    1    2  506  501  0.11148027986E+02 -0.50834195657E+02  0.28134751705E+03  0.28612028821E+03  0.00000000000E+00 0. -1.
<scales pt_clust_3="14000.00000" pt_clust_4="46.45820" pt_clust_5="60.01178" pt_clust_6="52.04223"></scales>
<clustering>
<clus scale="   52.042">  1  6  2 -1</clus>
<clus scale="   46.458">  1  4  2 -1</clus>
<clus scale="   60.012">  2  5  1 -1</clus>
<clus scale="   52.042">  1  3  2 -1</clus>
</clustering>
</event>
<event>
 6    0  0.1221518E+003  0.9136918E+02  0.7546771E-02  0.1299570E+00
         21   -1    0    0  505  501  0.00000000000E+00  0.00000000000E+00  0.21062038504E+02  0.21062038504E+02  0.00000000000E+00 0. -1.
         21   -1    0    0  503  502 -0.00000000000E+00 -0.00000000000E+00 -0.15120827405E+04  0.15120827405E+04  0.00000000000E+00 0.  1.
         21    1    1    2  503  501 -0.12263392743E+02  0.59465472873E+02 -0.53566012651E+03  0.53909025627E+03  0.00000000000E+00 0.  1.
         21    1    1    2  504  506  0.10855602354E+03 -0.54397768869E+02 -0.33244221625E+03  0.35392280888E+03  0.00000000000E+00 0. -1.
         21    1    1    2  505  504 -0.19344211709E+02  0.32832798641E+02 -0.62606468223E+02  0.73292298754E+02  0.00000000000E+00 0. -1.
         21    1    1    2  506  502 -0.76948419086E+02 -0.37900502645E+02 -0.56031189097E+03  0.56683941505E+03  0.00000000000E+00 0.  1.
<scales pt_clust_3="64.66553" pt_clust_4="91.36918" pt_clust_5="38.10763" pt_clust_6="14000.00000"></scales>
<clustering>
<clus scale="   38.108">  1  5  2 -1</clus>
<clus scale="   64.666">  2  3  1 -1</clus>
<clus scale="   91.369">  1  4  2 -1</clus>
<clus scale="   38.108">  1  3  2 -1</clus>
</clustering>
</event>
<event>
 6    0  0.1221518E+003  0.1694924E+03  0.7546771E-02  0.1178378E+00
         21   -1    0    0  504  501  0.00000000000E+00  0.00000000000E+00  0.25074680552E+03  0.25074680552E+03  0.00000000000E+00 0. -1.
         21   -1    0    0  503  502 -0.00000000000E+00 -0.00000000000E+00 -0.42558025796E+03  0.42558025796E+03  0.00000000000E+00 0. -1.
         21    1    1    2  503  501  0.55281190623E+02 -0.57999812720E+02 -0.33122653930E+00  0.80125514184E+02  0.00000000000E+00 0. -1.
         21    1    1    2  504  505 -0.13655151845E+02 -0.32993000630E+02  0.38634715326E+02  0.52608388027E+02  0.00000000000E+00 0. -1.
         21    1    1    2  505  506  0.13288024366E+03  0.62190424782E+02  0.10443733638E+03  0.18008877066E+03  0.00000000000E+00 0. -1.
         21    1    1    2  506  502 -0.17450628244E+03  0.28802388568E+02 -0.31757427760E+03  0.36350439061E+03  0.00000000000E+00 0. -1.
<scales pt_clust_3="83.18032" pt_clust_4="35.70716" pt_clust_5="14000.00000" pt_clust_6="169.49236"></scales>
<clustering>
<clus scale="   35.707">  1  4  2 -1</clus>
<clus scale="   83.180">  1  3  2 -1</clus>
<clus scale="  169.492">  2  6  1 -1</clus>
<clus scale="   35.707">  1  3  2 -1</clus>
</clustering>
</event>
<event>
 6    0  0.1221518E+003  0.1131821E+03  0.7546771E-02  0.1254788E+00
         21   -1    0    0  503  501  0.00000000000E+00  0.00000000000E+00  0.31840289190E+03  0.31840289190E+03  0.00000000000E+00 0. -1.
         21   -1    0    0  505  502 -0.00000000000E+00 -0.00000000000E+00 -0.77011129065E+03  0.77011129065E+03  0.00000000000E+00 0. -1.
         21    1    1    2  503  506  0.36264212969E+02 -0.16248183480E+03 -0.48666445728E+02  0.17344700263E+03  0.00000000000E+00 0. -1.
         21    1    1    2  504  501  0.32081849708E+02  0.34950928753E+01  0.93110200690E+02  0.98544255172E+02  0.00000000000E+00 0.  1.
         21    1    1    2  505  504 -0.10137390060E+03  0.53416834783E+02  0.13424265354E+03  0.17649678748E+03  0.00000000000E+00 0. -1.
         21    1    1    2  506  502  0.33027837920E+02  0.10556990714E+03 -0.63039480725E+03  0.64002613726E+03  0.00000000000E+00 0. -1.
<scales pt_clust_3="113.18210" pt_clust_4="32.27167" pt_clust_5="96.73495" pt_clust_6="14000.00000"></scales>
<clustering>
<clus scale="   32.272">  1  4  2 -1</clus>
<clus scale="   96.735">  1  5  2 -1</clus>
<clus scale="  113.182">  1  3  2 -1</clus>
<clus scale="   32.272">  1  3  2 -1</clus>
</clustering>
</event>
<event>
 6    0  0.1221518E+003  0.1198185E+03  0.7546771E-02  0.1243397E+00
         21   -1    0    0  506  501  0.00000000000E+00  0.00000000000E+00  0.76671462125E+03  0.76671462125E+03  0.00000000000E+00 0. -1.
         21   -1    0    0  503  502 -0.00000000000E+00 -0.00000000000E+00 -0.25300709891E+03  0.25300709891E+03  0.00000000000E+00 0.  1.
         21    1    1    2  503  501 -0.16425931654E+02 -0.11592100470E+03 -0.33680289606E+01  0.11712742711E+03  0.00000000000E+00 0.  1.
         21    1    1    2  504  502  0.29649655892E+02 -0.13910779058E+02 -0.49790084324E+02  0.59595841847E+02  0.00000000000E+00 0.  1.
         21    1    1    2  505  504  0.17236500762E+02  0.12444467936E+03 -0.10905960284E+03  0.16636577819E+03  0.00000000000E+00 0.  1.
         21    1    1    2  506  505 -0.30460224999E+02  0.53871043970E+01  0.67592523847E+03  0.67663267302E+03  0.00000000000E+00 0. -1.
<scales pt_clust_3="119.81851" pt_clust_4="31.13476" pt_clust_5="14000.00000" pt_clust_6="30.93293"></scales>
<clustering>
<clus scale="   30.933">  1  6  2 -1</clus>
<clus scale="   31.135">  2  4  1 -1</clus>
<clus scale="  119.819">  1  3  2 -1</clus>
<clus scale="   30.933">  1  3  2 -1</clus>
</clustering>
</event>
<event>
 6    0  0.1221518E+003  0.1879414E+03  0.7546771E-02  0.1160331E+00
         21   -1    0    0  504  501  0.00000000000E+00  0.00000000000E+00  0.19443515591E+03  0.19443515591E+03  0.00000000000E+00 0. -1.
         21   -1    0    0  505  502 -0.00000000000E+00 -0.00000000000E+00 -0.77205956502E+03  0.77205956502E+03  0.00000000000E+00 0. -1.
         21    1    1    2  503  501  0.76253803757E+02 -0.13806515992E+03  0.79327960239E+01  0.15792264000E+03  0.00000000000E+00 0. -1.
         21    1    1    2  504  502 -0.75358462740E+02 -0.76419423404E+02  0.48245446165E+02  0.11767093632E+03  0.00000000000E+00 0. -1.
         21    1    1    2  505  506 -0.35581671244E+02  0.21561200386E+02 -0.30710560091E+03  0.30991094011E+03  0.00000000000E+00 0. -1.
         21    1    1    2  506  503  0.34686330226E+02  0.19292338293E+03 -0.32669705039E+03  0.38099020450E+03  0.00000000000E+00 0. -1.
<scales pt_clust_3="187.94136" pt_clust_4="108.08953" pt_clust_5="41.60458" pt_clust_6="14000.00000"></scales>
<clustering>
<clus scale="   41.605">  2  5  1 -1</clus>
<clus scale="  108.090">  1  4  2 -1</clus>
<clus scale="  187.941">  1  3  2 -1</clus>
<clus scale="  108.090">  1  3  2 -1</clus>
</clustering>
</event>
<event>
 6    0  0.1221518E+003  0.9672466E+02  0.7546771E-02  0.1287338E+00
         21   -1    0    0  504  501  0.00000000000E+00  0.00000000000E+00  0.78769730187E+03  0.78769730187E+03  0.00000000000E+00 0.  1.
         21   -1    0    0  506  502 -0.00000000000E+00 -0.00000000000E+00 -0.49414315569E+03  0.49414315569E+03  0.00000000000E+00 0. -1.
         21    1    1    2  503  502 -0.21610560652E+02 -0.31624225880E+02 -0.40252534510E+03  0.40434361803E+03  0.00000000000E+00 0. -1.
         21    1    1    2  504  505 -0.34172232949E+02 -0.37096605696E+01  0.66983952552E+03  0.67072087565E+03  0.00000000000E+00 0.  1.
         21    1    1    2  505  503 -0.64308639207E+02 -0.26030268430E+02 -0.45845642344E-01  0.69377071522E+02  0.00000000000E+00 0.  1.
         21    1    1    2  506  501  0.12009143281E+03  0.61364154880E+02  0.26285811407E+02  0.13739889235E+03  0.00000000000E+00 0.  1.
<scales pt_clust_3="38.47637" pt_clust_4="34.37300" pt_clust_5="14000.00000" pt_clust_6="96.72466"></scales>
<clustering>
<clus scale="   34.373">  1  4  2 -1</clus>
<clus scale="   38.476">  2  3  1 -1</clus>
<clus scale="   96.725">  1  6  2 -1</clus>
<clus scale="   34.373">  1  3  2 -1</clus>
</clustering>
</event>
<event>
 6    0  0.2503173E+003  0.2187240E+03  0.7546771E-02  0.1134838E+00
         21   -1    0    0  504  501  0.00000000000E+00  0.00000000000E+00  0.19429823010E+04  0.19429823010E+04  0.00000000000E+00 0. -1.
         21   -1    0    0  506  502 -0.00000000000E+00 -0.00000000000E+00 -0.53208167431E+03  0.53208167431E+03  0.00000000000E+00 0.  1.
         21    1    1    2  503  502 -0.63336616411E+02  0.71147782036E+01  0.40577381218E+02  0.75555747060E+02  0.00000000000E+00 0. -1.
         21    1    1    2  504  505  0.74086749938E+02 -0.80583488979E+01  0.98087584090E+03  0.98370280002E+03  0.00000000000E+00 0. -1.
         21    1    1    2  505  503  0.13108074073E+03 -0.26498689552E+02  0.88734920256E+03  0.89737001756E+03  0.00000000000E+00 0. -1.
         21    1    1    2  506  501 -0.14183087426E+03  0.27442260247E+02 -0.49790179802E+03  0.51843541064E+03  0.00000000000E+00 0.  1.
<scales pt_clust_3="63.73498" pt_clust_4="52.16014" pt_clust_5="52.16014" pt_clust_6="207.26299"></scales>
<clustering>
<clus scale="   52.160">  4  5 -1 -1</clus>
<clus scale="   63.735">  2  3  1 -1</clus>
<clus scale="  207.263">  2  6  1 -1</clus>
<clus scale="  218.724">  1  3  2 -1</clus>
</clustering>
</event>
<event>
 6    0  0.1221518E+003  0.1878792E+03  0.7546771E-02  0.1160388E+00
         21   -1    0    0  506  501  0.00000000000E+00  0.00000000000E+00  0.27103355465E+03  0.27103355465E+03  0.00000000000E+00 0. -1.
         21   -1    0    0  503  502 -0.00000000000E+00 -0.00000000000E+00 -0.10614939240E+04  0.10614939240E+04  0.00000000000E+00 0. -1.
         21    1    1    2  503  505 -0.80008651521E+02  0.34779536569E+02 -0.21254091053E+03  0.22974907863E+03  0.00000000000E+00 0. -1.
         21    1    1    2  504  502  0.35412424163E+02 -0.21008181210E+03 -0.73694849942E+03  0.76712547758E+03  0.00000000000E+00 0. -1.
         21    1    1    2  505  501  0.43666118128E+02  0.23340310151E+03  0.12958315550E+03  0.27050976296E+03  0.00000000000E+00 0. -1.
         21    1    1    2  506  504  0.93010923008E+00 -0.58100825971E+02  0.29445885085E+02  0.65143159503E+02  0.00000000000E+00 0. -1.
<scales pt_clust_3="86.34149" pt_clust_4="187.87919" pt_clust_5="14000.00000" pt_clust_6="58.10827"></scales>
<clustering>
<clus scale="   58.108">  1  6  2 -1</clus>
<clus scale="   86.341">  2  3  1 -1</clus>
<clus scale="  187.879">  2  4  1 -1</clus>
<clus scale="   58.108">  1  3  2 -1</clus>
</clustering>
</event>
<event>
 6    0  0.1221518E+003  0.1202486E+03  0.7546771E-02  0.1242688E+00
         21   -1    0    0  505  501  0.00000000000E+00  0.00000000000E+00  0.14896158537E+03  0.14896158537E+03  0.00000000000E+00 0.  1.
         21   -1    0    0  504  502 -0.00000000000E+00 -0.00000000000E+00 -0.60452595003E+03  0.60452595003E+03  0.00000000000E+00 0.  1.
         21    1    1    2  503  501 -0.28508292087E+02  0.95702495660E+01  0.80711006745E+02  0.86131173243E+02  0.00000000000E+00 0.  1.
         21    1    1    2  504  506  0.10368297232E+02 -0.34347117707E+02 -0.24216327180E+03  0.24480660998E+03  0.00000000000E+00 0.  1.
         21    1    1    2  505  502 -0.57350922945E+02  0.88895176961E+02  0.65513105354E+01  0.10599245501E+03  0.00000000000E+00 0.  1.
         21    1    1    2  506  503  0.75490917800E+02 -0.64118308820E+02 -0.30066341014E+03  0.31655729717E+03  0.00000000000E+00 0.  1.
<scales pt_clust_3="30.07179" pt_clust_4="35.53048" pt_clust_5="14000.00000" pt_clust_6="120.24855"></scales>
<clustering>
<clus scale="   30.072">  1  3  2 -1</clus>
<clus scale="   35.530">  2  4  1 -1</clus>
<clus scale="  120.249">  2  6  1 -1</clus>
<clus scale="   30.072">  1  3  2 -1</clus>
</clustering>
</event>
<event>
 6    0  0.1221518E+003  0.1062986E+03  0.7546771E-02  0.1267582E+00
         21   -1    0    0  505  501  0.00000000000E+00  0.00000000000E+00  0.12828935876E+03  0.12828935876E+03  0.00000000000E+00 0.  1.
         21   -1    0    0  506  502 -0.00000000000E+00 -0.00000000000E+00 -0.10425134420E+04  0.10425134420E+04  0.00000000000E+00 0. -1.
         21    1    1    2  503  501  0.28875757068E+02 -0.97063224972E+02  0.76098774292E+02  0.12667321121E+03  0.00000000000E+00 0.  1.
         21    1    1    2  504  502 -0.79089639530E+02  0.58858663791E+02 -0.31288791748E+03  0.32805237736E+03  0.00000000000E+00 0.  1.
         21    1    1    2  505  504 -0.26865751438E+02 -0.16610054584E+02  0.48648475601E+00  0.31589542274E+02  0.00000000000E+00 0. -1.
         21    1    1    2  506  503  0.77079633900E+02  0.54814615765E+02 -0.67792142479E+03  0.68448766990E+03  0.00000000000E+00 0. -1.
<scales pt_clust_3="14000.00000" pt_clust_4="106.29856" pt_clust_5="31.58580" pt_clust_6="93.66095"></scales>
<clustering>
<clus scale="   31.586">  1  5  2 -1</clus>
<clus scale="   93.661">  2  6  1 -1</clus>
<clus scale="  106.299">  2  4  1 -1</clus>
<clus scale="   31.586">  1  3  2 -1</clus>
</clustering>
</event>
<event>
 6    0  0.1221518E+003  0.1324781E+03  0.7546771E-02  0.1223824E+00
         21   -1    0    0  506  501  0.00000000000E+00  0.00000000000E+00  0.96044245545E+02  0.96044245545E+02  0.00000000000E+00 0.  1.
         21   -1    0    0  503  502 -0.00000000000E+00 -0.00000000000E+00 -0.63233620675E+03  0.63233620675E+03  0.00000000000E+00 0.  1.
         21    1    1    2  503  504  0.22540645850E+02 -0.26961771833E+02 -0.99602360217E+02  0.10562030116E+03  0.00000000000E+00 0.  1.
         21    1    1    2  504  501 -0.14154411052E+03 -0.78218937453E+02 -0.69214950691E+02  0.17590806348E+03  0.00000000000E+00 0.  1.
         21    1    1    2  505  502  0.37882435997E+01  0.11883129591E+03 -0.27110043582E+03  0.29602478609E+03  0.00000000000E+00 0.  1.
         21    1    1    2  506  505  0.11521522107E+03 -0.13650586619E+02 -0.96374214470E+02  0.15082730156E+03  0.00000000000E+00 0.  1.
<scales pt_clust_3="35.14282" pt_clust_4="14000.00000" pt_clust_5="105.59559" pt_clust_6="132.47807"></scales>
<clustering>
<clus scale="   35.143">  2  3  1 -1</clus>
<clus scale="  105.596">  2  5  1 -1</clus>
<clus scale="  132.478">  2  6  1 -1</clus>
<clus scale="  132.478">  1  3  2 -1</clus>
</clustering>
</event>
<event>
 6    0  0.1221518E+003  0.1081633E+03  0.7546771E-02  0.1264009E+00
         21   -1    0    0  503  501  0.00000000000E+00  0.00000000000E+00  0.14015861759E+03  0.14015861759E+03  0.00000000000E+00 0. -1.
         21   -1    0    0  506  502 -0.00000000000E+00 -0.00000000000E+00 -0.94512308259E+03  0.94512308259E+03  0.00000000000E+00 0. -1.
         21    1    1    2  503  505  0.35423850910E+02  0.36714843035E+02 -0.26706811744E+02  0.57585438315E+02  0.00000000000E+00 0. -1.
         21    1    1    2  504  501 -0.93804240613E+02 -0.11209083822E+03  0.59097579312E+02  0.15765822354E+03  0.00000000000E+00 0. -1.
         21    1    1    2  505  502  0.69902174322E+02  0.14740222138E+03 -0.56429329883E+03  0.58740161385E+03  0.00000000000E+00 0. -1.
         21    1    1    2  506  504 -0.11521784619E+02 -0.72026226199E+02 -0.27306193375E+03  0.28263642448E+03  0.00000000000E+00 0. -1.
<scales pt_clust_3="51.01793" pt_clust_4="108.16330" pt_clust_5="14000.00000" pt_clust_6="71.34439"></scales>
<clustering>
<clus scale="   51.018">  1  3  2 -1</clus>
<clus scale="   71.344">  2  6  1 -1</clus>
<clus scale="  108.163">  1  4  2 -1</clus>
<clus scale="   51.018">  1  3  2 -1</clus>
</clustering>
</event>
<event>
 6    0  0.1221518E+003  0.4603043E+03  0.7546771E-02  0.1024693E+00
         21   -1    0    0  504  501  0.00000000000E+00  0.00000000000E+00  0.83753400941E+03  0.83753400941E+03  0.00000000000E+00 0.  1.
         21   -1    0    0  505  502 -0.00000000000E+00 -0.00000000000E+00 -0.11858467085E+04  0.11858467085E+04  0.00000000000E+00 0. -1.
         21    1    1    2  503  506  0.27763723212E+02  0.38905817297E+03  0.59535965299E+03  0.71175150347E+03  0.00000000000E+00 0.  1.
         21    1    1    2  504  502  0.15493447900E+03 -0.30152467495E+03 -0.79083068616E+03  0.86042721747E+03  0.00000000000E+00 0. -1.
         21    1    1    2  505  503 -0.22539203496E+03 -0.15338767627E+03 -0.21809606834E+03  0.34913499349E+03  0.00000000000E+00 0. -1.
         21    1    1    2  506  501  0.42693832746E+02  0.65854178250E+02  0.65254402469E+02  0.10206700343E+03  0.00000000000E+00 0.  1.
<scales pt_clust_3="53.03757" pt_clust_4="444.85950" pt_clust_5="272.63409" pt_clust_6="53.03757"></scales>
<clustering>
<clus scale="   53.038">  3  6 -1 -1</clus>
<clus scale="  272.634">  2  5  1 -1</clus>
<clus scale="  444.859">  2  4  1 -1</clus>
<clus scale="  460.304">  1  3  2 -1</clus>
</clustering>
</event>
<event>
 6    0  0.1221518E+003  0.1321766E+03  0.7546771E-02  0.1224261E+00
         21   -1    0    0  504  501  0.00000000000E+00  0.00000000000E+00  0.12220113466E+04  0.12220113466E+04  0.00000000000E+00 0. -1.
         21   -1    0    0  506  502 -0.00000000000E+00 -0.00000000000E+00 -0.29842462655E+03  0.29842462655E+03  0.00000000000E+00 0.  1.
         21    1    1    2  503  501 -0.36567000740E+02 -0.15073363140E+03  0.13992960113E+03  0.20889726291E+03  0.00000000000E+00 0. -1.
         21    1    1    2  504  502  0.11051860037E+03  0.75319386837E+02  0.10310761931E+04  0.10397141371E+04  0.00000000000E+00 0. -1.
         21    1    1    2  505  503 -0.21556443750E+02  0.47177263564E+02 -0.95780614044E+02  0.10892336981E+03  0.00000000000E+00 0.  1.
         21    1    1    2  506  505 -0.52395155881E+02  0.28236981003E+02 -0.15163846009E+03  0.16290120329E+03  0.00000000000E+00 0.  1.
<scales pt_clust_3="14000.00000" pt_clust_4="132.17656" pt_clust_5="36.35039" pt_clust_6="112.57176"></scales>
<clustering>
<clus scale="   36.350">  5  6 -1 -1</clus>
<clus scale="  112.572">  2  5  1 -1</clus>
<clus scale="  132.177">  1  4  2 -1</clus>
<clus scale="  132.177">  1  3  2 -1</clus>
</clustering>
</event>
<event>
 6    0  0.1221518E+003  0.1793776E+03  0.7546771E-02  0.1168407E+00
         21   -1    0    0  505  501  0.00000000000E+00  0.00000000000E+00  0.84634927305E+02  0.84634927305E+02  0.00000000000E+00 0. -1.
         21   -1    0    0  504  502 -0.00000000000E+00 -0.00000000000E+00 -0.67936722779E+03  0.67936722779E+03  0.00000000000E+00 0. -1.
         21    1    1    2  503  501  0.13274717115E+03  0.13192859296E+03 -0.15718548373E+03  0.24440589474E+03  0.00000000000E+00 0. -1.
         21    1    1    2  504  503  0.37939718147E+02 -0.34716248936E+02 -0.13207019143E+03  0.14172923346E+03  0.00000000000E+00 0.  1.
         21    1    1    2  505  506 -0.12186909153E+03 -0.11769583671E+03 -0.22936097003E+03  0.28515055677E+03  0.00000000000E+00 0. -1.
         21    1    1    2  506  502 -0.48817797772E+02  0.20483492686E+02 -0.76115655296E+02  0.92716470128E+02  0.00000000000E+00 0. -1.
<scales pt_clust_3="179.37763" pt_clust_4="51.42606" pt_clust_5="14000.00000" pt_clust_6="45.48665"></scales>
<clustering>
<clus scale="   51.426">  2  4  1 -1</clus>
<clus scale="   45.487">  2  6  1 -1</clus>
<clus scale="  179.378">  1  3  2 -1</clus>
<clus scale="  179.378">  1  3  2 -1</clus>
</clustering>
</event>
<event>
 6    0  0.1221518E+003  0.1111899E+03  0.7546771E-02  0.1258382E+00
         21   -1    0    0  503  501  0.00000000000E+00  0.00000000000E+00  0.12370752636E+03  0.12370752636E+03  0.00000000000E+00 0.  1.
         21   -1    0    0  506  502 -0.00000000000E+00 -0.00000000000E+00 -0.58947382400E+03  0.58947382400E+03  0.00000000000E+00 0.  1.
         21    1    1    2  503  505  0.55370720723E+02 -0.94382015543E+02  0.63800929366E+02  0.12666664975E+03  0.00000000000E+00 0.  1.
         21    1    1    2  504  502 -0.33001885591E+02  0.28895786616E+02 -0.38036096172E+03  0.38288190364E+03  0.00000000000E+00 0.  1.
         21    1    1    2  505  504  0.22703584440E+01  0.91152219361E+02 -0.13967058838E+03  0.16679854580E+03  0.00000000000E+00 0.  1.
         21    1    1    2  506  501 -0.24639193576E+02 -0.25665990433E+02 -0.95356769140E+01  0.36834251170E+02  0.00000000000E+00 0. -1.
<scales pt_clust_3="111.18992" pt_clust_4="43.88502" pt_clust_5="14000.00000" pt_clust_6="35.57855"></scales>
<clustering>
<clus scale="   35.579">  1  6  2 -1</clus>
<clus scale="   43.885">  2  4  1 -1</clus>
<clus scale="  111.190">  1  3  2 -1</clus>
<clus scale="   35.579">  1  3  2 -1</clus>
</clustering>
</event>
<event>
 6    0  0.1221518E+003  0.1660510E+03  0.7546771E-02  0.1182030E+00
         21   -1    0    0  503  501  0.00000000000E+00  0.00000000000E+00  0.14412945553E+03  0.14412945553E+03  0.00000000000E+00 0.  1.
         21   -1    0    0  506  502 -0.00000000000E+00 -0.00000000000E+00 -0.15226683602E+04  0.15226683602E+04  0.00000000000E+00 0. -1.
         21    1    1    2  503  505  0.29361913050E+02  0.17998078260E+02  0.53884518476E+02  0.63949934249E+02  0.00000000000E+00 0.  1.
         21    1    1    2  504  502  0.33554476022E+02  0.83057686748E+01 -0.84794478639E+03  0.84864907318E+03  0.00000000000E+00 0. -1.
         21    1    1    2  505  504 -0.85698205006E+01  0.15494257940E+03 -0.53719804940E+03  0.55916222066E+03  0.00000000000E+00 0. -1.
         21    1    1    2  506  501 -0.54346568572E+02 -0.18124642634E+03 -0.47280587347E+02  0.19503658763E+03  0.00000000000E+00 0.  1.
<scales pt_clust_3="34.43912" pt_clust_4="34.70284" pt_clust_5="166.05101" pt_clust_6="14000.00000"></scales>
<clustering>
<clus scale="   34.439">  1  3  2 -1</clus>
<clus scale="   34.703">  2  4  1 -1</clus>
<clus scale="  166.051">  2  5  1 -1</clus>
<clus scale="   34.439">  1  3  2 -1</clus>
</clustering>
</event>
<event>
 6    0  0.1221518E+003  0.1597374E+03  0.7546771E-02  0.1188993E+00
         21   -1    0    0  506  501  0.00000000000E+00  0.00000000000E+00  0.16073483896E+04  0.16073483896E+04  0.00000000000E+00 0.  1.
         21   -1    0    0  504  502 -0.00000000000E+00 -0.00000000000E+00 -0.51084996134E+03  0.51084996134E+03  0.00000000000E+00 0. -1.
         21    1    1    2  503  502 -0.40054015165E+02  0.17250460834E+02 -0.48253883677E+03  0.48450555365E+03  0.00000000000E+00 0. -1.
         21    1    1    2  504  505 -0.23708503393E+00  0.14043835011E+03  0.37636941695E+03  0.40171746839E+03  0.00000000000E+00 0. -1.
         21    1    1    2  505  501 -0.20145279643E+02  0.26007502321E+02  0.33607765004E+02  0.47028760747E+02  0.00000000000E+00 0. -1.
         21    1    1    2  506  503  0.60436379841E+02 -0.18369631327E+03  0.11690600831E+04  0.11849465682E+04  0.00000000000E+00 0.  1.
<scales pt_clust_3="43.62888" pt_clust_4="14000.00000" pt_clust_5="32.89715" pt_clust_6="159.73744"></scales>
<clustering>
<clus scale="   32.897">  1  5  2 -1</clus>
<clus scale="   43.629">  2  3  1 -1</clus>
<clus scale="  159.737">  1  6  2 -1</clus>
<clus scale="   32.897">  1  3  2 -1</clus>
</clustering>
</event>
<event>
 6    0  0.1221518E+003  0.7653163E+02  0.7546771E-02  0.1339193E+00
         21   -1    0    0  506  501  0.00000000000E+00  0.00000000000E+00  0.10314132121E+04  0.10314132121E+04  0.00000000000E+00 0.  1.
         21   -1    0    0  504  502 -0.00000000000E+00 -0.00000000000E+00 -0.55971284526E+02  0.55971284526E+02  0.00000000000E+00 0. -1.
         21    1    1    2  503  502 -0.39381996662E+02  0.23077627908E+02 -0.30486579746E+02  0.54890346287E+02  0.00000000000E+00 0. -1.
         21    1    1    2  504  505 -0.59604848425E+01 -0.73484153983E+02  0.62840206758E+03  0.63271210420E+03  0.00000000000E+00 0.  1.
         21    1    1    2  505  501 -0.37190474167E+02  0.58663113505E+01  0.10147166221E+03  0.10823143355E+03  0.00000000000E+00 0. -1.
         21    1    1    2  506  503  0.82532955671E+02  0.44540214724E+02  0.27605477754E+03  0.29155061259E+03  0.00000000000E+00 0.  1.
<scales pt_clust_3="46.10754" pt_clust_4="76.53163" pt_clust_5="37.65030" pt_clust_6="14000.00000"></scales>
<clustering>
<clus scale="   37.650">  1  5  2 -1</clus>
<clus scale="   46.108">  2  3  1 -1</clus>
<clus scale="   76.532">  1  4  2 -1</clus>
<clus scale="   37.650">  1  3  2 -1</clus>
</clustering>
</event>
<event>
 6    0  0.1221518E+003  0.1007459E+03  0.7546771E-02  0.1278735E+00
         21   -1    0    0  506  501  0.00000000000E+00  0.00000000000E+00  0.45086608091E+03  0.45086608091E+03  0.00000000000E+00 0. -1.
         21   -1    0    0  505  502 -0.00000000000E+00 -0.00000000000E+00 -0.96885531081E+03  0.96885531081E+03  0.00000000000E+00 0.  1.
         21    1    1    2  503  502 -0.58745410730E+02 -0.19338752444E+02 -0.22829392836E+03  0.23652299752E+03  0.00000000000E+00 0. -1.
         21    1    1    2  504  501  0.46487979802E+02 -0.80291244606E+01  0.25846658304E+03  0.26273670024E+03  0.00000000000E+00 0. -1.
         21    1    1    2  505  504  0.16603253484E+02 -0.73712972572E+02 -0.71843537384E+03  0.72239785211E+03  0.00000000000E+00 0.  1.
         21    1    1    2  506  503 -0.43458225562E+01  0.10108084948E+03  0.17027348927E+03  0.19806384186E+03  0.00000000000E+00 0. -1.
<scales pt_clust_3="60.94794" pt_clust_4="47.17626" pt_clust_5="14000.00000" pt_clust_6="100.74586"></scales>
<clustering>
<clus scale="   47.176">  1  4  2 -1</clus>
<clus scale="   60.948">  2  3  1 -1</clus>
<clus scale="  100.746">  1  6  2 -1</clus>
<clus scale="   47.176">  1  3  2 -1</clus>
</clustering>
</event>
<event>
 6    0  0.1221518E+003  0.3318433E+03  0.7546771E-02  0.1070324E+00
         21   -1    0    0  504  501  0.00000000000E+00  0.00000000000E+00  0.19019741877E+04  0.19019741877E+04  0.00000000000E+00 0.  1.
         21   -1    0    0  505  502 -0.00000000000E+00 -0.00000000000E+00 -0.18792114575E+03  0.18792114575E+03  0.00000000000E+00 0. -1.
         21    1    1    2  503  502 -0.32335947527E+03 -0.11906415589E+03  0.10317696705E+04  0.10877896288E+04  0.00000000000E+00 0.  1.
         21    1    1    2  504  503  0.31635189574E+02 -0.42167618838E+02  0.61963297396E+03  0.62187130157E+03  0.00000000000E+00 0.  1.
         21    1    1    2  505  506  0.34910308425E+02 -0.31927371730E+02 -0.15017301848E+02  0.49634726298E+02  0.00000000000E+00 0. -1.
         21    1    1    2  506  501  0.25681397727E+03  0.19315914646E+03  0.77667699292E+02  0.33059967679E+03  0.00000000000E+00 0. -1.
<scales pt_clust_3="331.84334" pt_clust_4="53.04964" pt_clust_5="47.30842" pt_clust_6="14000.00000"></scales>
<clustering>
<clus scale="   47.308">  2  5  1 -1</clus>
<clus scale="   53.050">  1  4  2 -1</clus>
<clus scale="  331.843">  1  3  2 -1</clus>
<clus scale="   53.050">  1  3  2 -1</clus>
</clustering>
</event>
<event>
 6    0  0.1221518E+003  0.1388379E+03  0.7546771E-02  0.1214901E+00
         21   -1    0    0  504  501  0.00000000000E+00  0.00000000000E+00  0.21741193075E+03  0.21741193075E+03  0.00000000000E+00 0. -1.
         21   -1    0    0  503  502 -0.00000000000E+00 -0.00000000000E+00 -0.16757309822E+03  0.16757309822E+03  0.00000000000E+00 0. -1.
         21    1    1    2  503  506 -0.13142769114E+02 -0.32313281533E+02  0.55324310490E+02  0.65403821560E+02  0.00000000000E+00 0. -1.
         21    1    1    2  504  505  0.10938263352E+03  0.34877768104E+02 -0.78293007671E+01  0.11507526743E+03  0.00000000000E+00 0. -1.
         21    1    1    2  505  502 -0.11326983162E+01  0.44455630200E+02 -0.65062712756E+02  0.78808265132E+02  0.00000000000E+00 0. -1.
         21    1    1    2  506  501 -0.95107166093E+02 -0.47020116771E+02  0.67406535559E+02  0.12569767484E+03  0.00000000000E+00 0. -1.
<scales pt_clust_3="33.65607" pt_clust_4="125.82078" pt_clust_5="44.47006" pt_clust_6="33.65607"></scales>
<clustering>
<clus scale="   33.656">  3  6 -1 -1</clus>
<clus scale="   44.470">  2  5  1 -1</clus>
<clus scale="  125.821">  2  4  1 -1</clus>
<clus scale="  138.838">  1  3  2 -1</clus>
</clustering>
</event>
<event>
 6    0  0.1221518E+003  0.1159820E+03  0.7546771E-02  0.1249877E+00
         21   -1    0    0  506  501  0.00000000000E+00  0.00000000000E+00  0.19928818098E+03  0.19928818098E+03  0.00000000000E+00 0.  1.
         21   -1    0    0  503  502 -0.00000000000E+00 -0.00000000000E+00 -0.16765710690E+03  0.16765710690E+03  0.00000000000E+00 0. -1.
         21    1    1    2  503  505  0.40914635880E+02  0.61996877786E+02 -0.91207246991E+02  0.11762815219E+03  0.00000000000E+00 0. -1.
         21    1    1    2  504  501 -0.56441483798E+02 -0.24181381262E+02  0.38604201632E+02  0.72530439656E+02  0.00000000000E+00 0.  1.
         21    1    1    2  505  504  0.38628010534E+02  0.26310333161E+02 -0.21135164131E+02  0.51293781219E+02  0.00000000000E+00 0. -1.
         21    1    1    2  506  502 -0.23101162616E+02 -0.64125829685E+02  0.10536928357E+03  0.12549291481E+03  0.00000000000E+00 0.  1.
<scales pt_clust_3="33.54674" pt_clust_4="61.40342" pt_clust_5="33.54674" pt_clust_6="107.99637"></scales>
<clustering>
<clus scale="   33.547">  3  5 -1 -1</clus>
<clus scale="   61.403">  1  4  2 -1</clus>
<clus scale="  107.996">  1  6  2 -1</clus>
<clus scale="   61.403">  1  3  2 -1</clus>
</clustering>
</event>
<event>
 6    0  0.1221518E+003  0.1283155E+03  0.7546771E-02  0.1229977E+00
         21   -1    0    0  504  501  0.00000000000E+00  0.00000000000E+00  0.32822992793E+03  0.32822992793E+03  0.00000000000E+00 0. -1.
         21   -1    0    0  506  502 -0.00000000000E+00 -0.00000000000E+00 -0.16520896059E+04  0.16520896059E+04  0.00000000000E+00 0. -1.
         21    1    1    2  503  501 -0.50924724747E+02 -0.10931644248E+02  0.27996723684E+03  0.28477092924E+03  0.00000000000E+00 0. -1.
         21    1    1    2  504  502  0.39561034350E+02  0.28697824471E+01 -0.74330184428E+02  0.84251334750E+02  0.00000000000E+00 0. -1.
         21    1    1    2  505  503 -0.61635398925E+02  0.86638601039E+02 -0.33525143678E+02  0.11148589529E+03  0.00000000000E+00 0.  1.
         21    1    1    2  506  505  0.72999089322E+02 -0.78576739239E+02 -0.14959715867E+04  0.14998113745E+04  0.00000000000E+00 0. -1.
<scales pt_clust_3="52.02483" pt_clust_4="39.66499" pt_clust_5="128.31554" pt_clust_6="14000.00000"></scales>
<clustering>
<clus scale="   39.665">  2  4  1 -1</clus>
<clus scale="   52.025">  1  3  2 -1</clus>
<clus scale="  128.316">  1  5  2 -1</clus>
<clus scale="   52.025">  1  3  2 -1</clus>
</clustering>
</event>
<event>
 6    0  0.1221518E+003  0.1289931E+03  0.7546771E-02  0.1228957E+00
         21   -1    0    0  504  501  0.00000000000E+00  0.00000000000E+00  0.32296243134E+03  0.32296243134E+03  0.00000000000E+00 0. -1.
         21   -1    0    0  505  502 -0.00000000000E+00 -0.00000000000E+00 -0.23137536537E+03  0.23137536537E+03  0.00000000000E+00 0.  1.
         21    1    1    2  503  502 -0.33888801570E+02 -0.93603213087E+02  0.32781630501E+02  0.10480766990E+03  0.00000000000E+00 0. -1.
         21    1    1    2  504  503  0.14290246223E+02 -0.37691982132E+02  0.22788892559E+03  0.23142657380E+03  0.00000000000E+00 0. -1.
         21    1    1    2  505  506  0.26057238405E+02  0.60324179016E+02 -0.69486803572E+02  0.95636824068E+02  0.00000000000E+00 0.  1.
         21    1    1    2  506  501 -0.64586830592E+01  0.70971016204E+02 -0.99596686541E+02  0.12246672894E+03  0.00000000000E+00 0.  1.
<scales pt_clust_3="123.61970" pt_clust_4="40.31001" pt_clust_5="35.37842" pt_clust_6="35.37842"></scales>
<clustering>
<clus scale="   35.378">  5  6 -1 -1</clus>
<clus scale="   40.310">  1  4  2 -1</clus>
<clus scale="  123.620">  1  3  2 -1</clus>
<clus scale="   40.310">  1  3  2 -1</clus>
</clustering>
</event>
<event>
 6    0  0.1221518E+003  0.1937367E+03  0.7546771E-02  0.1155134E+00
         21   -1    0    0  502  501  0.00000000000E+00  0.00000000000E+00  0.54322132544E+03  0.54322132544E+03  0.00000000000E+00 0.  1.
         21   -1    0    0  505  502 -0.00000000000E+00 -0.00000000000E+00 -0.10392832092E+04  0.10392832092E+04  0.00000000000E+00 0.  1.
         21    1    1    2  503  506 -0.32785439001E+01  0.38714942451E+02  0.13896161052E+03  0.14429111136E+03  0.00000000000E+00 0. -1.
         21    1    1    2  504  503 -0.12325424898E+03  0.10080444539E+03  0.17341521309E+02  0.16016826921E+03  0.00000000000E+00 0.  1.
         21    1    1    2  505  504  0.10497925598E+03 -0.16860178479E+03 -0.95389377269E+03  0.97435134094E+03  0.00000000000E+00 0.  1.
         21    1    1    2  506  501  0.21553536892E+02  0.29082396951E+02  0.30152875711E+03  0.30369381312E+03  0.00000000000E+00 0.  1.
<scales pt_clust_3="56.62035" pt_clust_4="14000.00000" pt_clust_5="193.73668" pt_clust_6="36.19863"></scales>
<clustering>
<clus scale="   36.199">  1  6  2 -1</clus>
<clus scale="   56.620">  1  3  2 -1</clus>
<clus scale="  193.737">  2  5  1 -1</clus>
<clus scale="   36.199">  1  3  2 -1</clus>
</clustering>
</event>
<event>
 6    0  0.1221518E+003  0.7711738E+02  0.7546771E-02  0.1337437E+00
         21   -1    0    0  503  501  0.00000000000E+00  0.00000000000E+00  0.22061628065E+03  0.22061628065E+03  0.00000000000E+00 0. -1.
         21   -1    0    0  505  502 -0.00000000000E+00 -0.00000000000E+00 -0.11789610308E+04  0.11789610308E+04  0.00000000000E+00 0. -1.
         21    1    1    2  503  504 -0.35715539228E+02 -0.10331208638E+02 -0.20442246610E+02  0.42428988448E+02  0.00000000000E+00 0.  1.
         21    1    1    2  504  502 -0.82598177463E+02 -0.10546969080E+02 -0.25145264483E+03  0.26488135093E+03  0.00000000000E+00 0. -1.
         21    1    1    2  505  506  0.27814949625E+02  0.68526729928E+02 -0.87481016247E+03  0.87793075154E+03  0.00000000000E+00 0. -1.
         21    1    1    2  506  501  0.90498767065E+02 -0.47648552209E+02  0.18836030380E+03  0.21433622050E+03  0.00000000000E+00 0. -1.
<scales pt_clust_3="37.17975" pt_clust_4="77.11738" pt_clust_5="73.78572" pt_clust_6="14000.00000"></scales>
<clustering>
<clus scale="   37.180">  1  3  2 -1</clus>
<clus scale="   73.786">  2  5  1 -1</clus>
<clus scale="   77.117">  2  4  1 -1</clus>
<clus scale="   37.180">  1  3  2 -1</clus>
</clustering>
</event>
<event>
 6    0  0.1221518E+003  0.1076443E+03  0.7546771E-02  0.1264995E+00
         21   -1    0    0  506  501  0.00000000000E+00  0.00000000000E+00  0.52662729212E+03  0.52662729212E+03  0.00000000000E+00 0. -1.
         21   -1    0    0  505  502 -0.00000000000E+00 -0.00000000000E+00 -0.17811526658E+03  0.17811526658E+03  0.00000000000E+00 0. -1.
         21    1    1    2  503  504  0.86360021202E+02 -0.92004175078E+02  0.39076643507E+03  0.41063515226E+03  0.00000000000E+00 0. -1.
         21    1    1    2  504  501 -0.86695677594E+02 -0.22427873420E+02  0.69908218745E+02  0.11360593764E+03  0.00000000000E+00 0. -1.
         21    1    1    2  505  503 -0.35378133465E+02  0.86678165058E+02 -0.91022554961E+02  0.13057496750E+03  0.00000000000E+00 0. -1.
         21    1    1    2  506  502  0.35713789857E+02  0.27753883439E+02 -0.21140073317E+02  0.49926501297E+02  0.00000000000E+00 0. -1.
<scales pt_clust_3="14000.00000" pt_clust_4="83.23163" pt_clust_5="107.64434" pt_clust_6="45.23000"></scales>
<clustering>
<clus scale="   45.230">  2  6  1 -1</clus>
<clus scale="   83.232">  1  4  2 -1</clus>
<clus scale="  107.644">  2  5  1 -1</clus>
<clus scale="   83.232">  1  3  2 -1</clus>
</clustering>
</event>
<event>
 6    0  0.1221518E+003  0.1488062E+03  0.7546771E-02  0.1201948E+00
         21   -1    0    0  506  501  0.00000000000E+00  0.00000000000E+00  0.25300470395E+04  0.25300470395E+04  0.00000000000E+00 0.  1.
         21   -1    0    0  503  502 -0.00000000000E+00 -0.00000000000E+00 -0.23680850643E+03  0.23680850643E+03  0.00000000000E+00 0. -1.
         21    1    1    2  503  505 -0.23962806142E+02  0.26707309471E+02 -0.62367138203E+02  0.71952459200E+02  0.00000000000E+00 0. -1.
         21    1    1    2  504  501  0.11884674048E+02 -0.69470533574E+02  0.23892701173E+04  0.23903094138E+04  0.00000000000E+00 0.  1.
         21    1    1    2  505  504 -0.13941022970E+03  0.55576747594E+02 -0.26453210951E+02  0.15239343617E+03  0.00000000000E+00 0. -1.
         21    1    1    2  506  502  0.15148836180E+03 -0.12813523491E+02 -0.72112350698E+01  0.15220023671E+03  0.00000000000E+00 0. -1.
<scales pt_clust_3="35.88170" pt_clust_4="70.38680" pt_clust_5="14000.00000" pt_clust_6="148.80621"></scales>
<clustering>
<clus scale="   35.882">  2  3  1 -1</clus>
<clus scale="   70.387">  1  4  2 -1</clus>
<clus scale="  148.806">  2  6  1 -1</clus>
<clus scale="   70.387">  1  3  2 -1</clus>
</clustering>
</event>
<event>
 6    0  0.1221518E+003  0.1217072E+03  0.7546771E-02  0.1240307E+00
         21   -1    0    0  506  501  0.00000000000E+00  0.00000000000E+00  0.17492127086E+03  0.17492127086E+03  0.00000000000E+00 0. -1.
         21   -1    0    0  505  502 -0.00000000000E+00 -0.00000000000E+00 -0.37750241089E+03  0.37750241089E+03  0.00000000000E+00 0. -1.
         21    1    1    2  503  504  0.71334933966E+02  0.63858799133E+02  0.21516662276E+02  0.98130452899E+02  0.00000000000E+00 0. -1.
         21    1    1    2  504  501  0.27413492461E+02 -0.17744542093E+02  0.40513370813E+02  0.52035579728E+02  0.00000000000E+00 0. -1.
         21    1    1    2  505  503  0.96592010072E+02 -0.25673455245E+02 -0.13073945790E+03  0.16456593987E+03  0.00000000000E+00 0. -1.
         21    1    1    2  506  502 -0.19534043650E+03 -0.20440801794E+02 -0.13387171522E+03  0.23769170925E+03  0.00000000000E+00 0. -1.
<scales pt_clust_3="100.80714" pt_clust_4="32.65530" pt_clust_5="14000.00000" pt_clust_6="121.70719"></scales>
<clustering>
<clus scale="   32.655">  1  4  2 -1</clus>
<clus scale="  100.807">  1  3  2 -1</clus>
<clus scale="  121.707">  1  6  2 -1</clus>
<clus scale="   32.655">  1  3  2 -1</clus>
</clustering>
</event>
<event>
 6    0  0.1221518E+003  0.9144360E+02  0.7546771E-02  0.1299393E+00
         21   -1    0    0  503  501  0.00000000000E+00  0.00000000000E+00  0.28121791534E+03  0.28121791534E+03  0.00000000000E+00 0. -1.
         21   -1    0    0  501  502 -0.00000000000E+00 -0.00000000000E+00 -0.61011533071E+03  0.61011533071E+03  0.00000000000E+00 0. -1.
         21    1    1    2  503  506  0.30958230480E+02 -0.49187826770E+01  0.21932615531E+03  0.22155488905E+03  0.00000000000E+00 0. -1.
         21    1    1    2  504  502  0.44792797682E+02 -0.71439318885E+02 -0.41237927976E+03  0.42091167884E+03  0.00000000000E+00 0. -1.
         21    1    1    2  505  504 -0.68789521036E+02  0.12811400951E+03 -0.13218802242E+03  0.19651684637E+03  0.00000000000E+00 0. -1.
         21    1    1    2  506  505 -0.69615071261E+01 -0.51755907946E+02 -0.36562685074E+01  0.52349831787E+02  0.00000000000E+00 0. -1.
<scales pt_clust_3="31.34655" pt_clust_4="14000.00000" pt_clust_5="91.44360" pt_clust_6="54.00103"></scales>
<clustering>
<clus scale="   31.347">  1  3  2 -1</clus>
<clus scale="   54.001">  1  6  2 -1</clus>
<clus scale="   91.444">  1  5  2 -1</clus>
<clus scale="   31.347">  1  3  2 -1</clus>
</clustering>
</event>
<event>
 6    0  0.1221518E+003  0.1081677E+03  0.7546771E-02  0.1264001E+00
         21   -1    0    0  504  501  0.00000000000E+00  0.00000000000E+00  0.34972542019E+03  0.34972542019E+03  0.00000000000E+00 0. -1.
         21   -1    0    0  503  502 -0.00000000000E+00 -0.00000000000E+00 -0.16091216909E+03  0.16091216909E+03  0.00000000000E+00 0.  1.
         21    1    1    2  503  501 -0.27625605148E+02  0.10828146622E+03  0.11137149748E+03  0.15777091125E+03  0.00000000000E+00 0. -1.
         21    1    1    2  504  505 -0.31242882102E+02 -0.25871397129E+00  0.13092787044E+03  0.13460420451E+03  0.00000000000E+00 0. -1.
         21    1    1    2  505  506  0.28560448071E+02 -0.96923474606E+02  0.47929095681E+02  0.11183495579E+03  0.00000000000E+00 0. -1.
         21    1    1    2  506  502  0.30308039180E+02 -0.11099277637E+02 -0.10141521250E+03  0.10642751773E+03  0.00000000000E+00 0.  1.
<scales pt_clust_3="108.16769" pt_clust_4="31.24395" pt_clust_5="14000.00000" pt_clust_6="31.93888"></scales>
<clustering>
<clus scale="   31.244">  1  4  2 -1</clus>
<clus scale="   31.939">  2  6  1 -1</clus>
<clus scale="  108.168">  1  3  2 -1</clus>
<clus scale="   31.244">  1  3  2 -1</clus>
</clustering>
</event>
<event>
 6    0  0.1221518E+003  0.1187137E+03  0.7546771E-02  0.1245234E+00
         21   -1    0    0  503  501  0.00000000000E+00  0.00000000000E+00  0.26691111553E+03  0.26691111553E+03  0.00000000000E+00 0. -1.
         21   -1    0    0  506  502 -0.00000000000E+00 -0.00000000000E+00 -0.14687574314E+03  0.14687574314E+03  0.00000000000E+00 0. -1.
         21    1    1    2  503  505 -0.12407486280E+03  0.43148225249E+02  0.25375609707E+02  0.13379186257E+03  0.00000000000E+00 0. -1.
         21    1    1    2  504  501 -0.15368422847E+02 -0.28141114701E+02  0.65431802715E+02  0.72865846348E+02  0.00000000000E+00 0. -1.
         21    1    1    2  505  502  0.18923046362E+02 -0.31653617375E+02 -0.49861344071E+02  0.62017633049E+02  0.00000000000E+00 0. -1.
         21    1    1    2  506  504  0.12052023929E+03  0.16646506827E+02  0.79089304032E+02  0.14511151670E+03  0.00000000000E+00 0. -1.
<scales pt_clust_3="118.71373" pt_clust_4="32.06417" pt_clust_5="37.38827" pt_clust_6="14000.00000"></scales>
<clustering>
<clus scale="   32.064">  1  4  2 -1</clus>
<clus scale="   37.388">  2  5  1 -1</clus>
<clus scale="  118.714">  2  3  1 -1</clus>
<clus scale="   32.064">  1  3  2 -1</clus>
</clustering>
</event>
<event>
 6    0  0.1221518E+003  0.9541465E+02  0.7546771E-02  0.1290245E+00
         21   -1    0    0  503  501  0.00000000000E+00  0.00000000000E+00  0.56504661204E+03  0.56504661204E+03  0.00000000000E+00 0.  1.
         21   -1    0    0  505  502 -0.00000000000E+00 -0.00000000000E+00 -0.19668312871E+03  0.19668312871E+03  0.00000000000E+00 0.  1.
         21    1    1    2  503  504  0.39807218559E+02 -0.29209912969E+02  0.16342232976E+03  0.17071816402E+03  0.00000000000E+00 0.  1.
         21    1    1    2  504  502  0.71309046221E+02 -0.56655248905E+02  0.85792597955E+02  0.12512061047E+03  0.00000000000E+00 0.  1.
         21    1    1    2  505  506 -0.56081015576E+02 -0.29212706652E+02 -0.15287890273E+03  0.16544008413E+03  0.00000000000E+00 0.  1.
         21    1    1    2  506  501 -0.55035249204E+02  0.11507786853E+03  0.27202745834E+03  0.30045088213E+03  0.00000000000E+00 0.  1.
<scales pt_clust_3="49.37442" pt_clust_4="14000.00000" pt_clust_5="62.89309" pt_clust_6="95.41465"></scales>
<clustering>
<clus scale="   49.374">  1  3  2 -1</clus>
<clus scale="   62.893">  2  5  1 -1</clus>
<clus scale="   95.415">  1  6  2 -1</clus>
<clus scale="   49.374">  1  3  2 -1</clus>
</clustering>
</event>
<event>
 6    0  0.1221518E+003  0.7447644E+02  0.7546771E-02  0.1345500E+00
         21   -1    0    0  505  501  0.00000000000E+00  0.00000000000E+00  0.31724485561E+04  0.31724485561E+04  0.00000000000E+00 0. -1.
         21   -1    0    0  506  502 -0.00000000000E+00 -0.00000000000E+00 -0.13265056265E+03  0.13265056265E+03  0.00000000000E+00 0.  1.
         21    1    1    2  503  501 -0.66778948067E+02  0.37762205802E+01  0.51156450096E+03  0.51591852689E+03  0.00000000000E+00 0. -1.
         21    1    1    2  504  502 -0.14074329686E+02 -0.69883049993E+02 -0.11497977738E+03  0.13528516785E+03  0.00000000000E+00 0.  1.
         21    1    1    2  505  504 -0.54096221199E+01  0.34917803887E+02  0.22440489907E+04  0.22443271575E+04  0.00000000000E+00 0. -1.
         21    1    1    2  506  503  0.86262899873E+02  0.31189025527E+02  0.39916427919E+03  0.40956826658E+03  0.00000000000E+00 0. -1.
<scales pt_clust_3="74.47644" pt_clust_4="70.92365" pt_clust_5="35.33436" pt_clust_6="14000.00000"></scales>
<clustering>
<clus scale="   35.334">  1  5  2 -1</clus>
<clus scale="   70.924">  2  4  1 -1</clus>
<clus scale="   74.476">  1  3  2 -1</clus>
<clus scale="   35.334">  1  3  2 -1</clus>
</clustering>
</event>
<event>
 6    0  0.1221518E+003  0.1077269E+03  0.7546771E-02  0.1264838E+00
         21   -1    0    0  504  501  0.00000000000E+00  0.00000000000E+00  0.68025085454E+03  0.68025085454E+03  0.00000000000E+00 0.  1.
         21   -1    0    0  506  502 -0.00000000000E+00 -0.00000000000E+00 -0.20690190909E+03  0.20690190909E+03  0.00000000000E+00 0. -1.
         21    1    1    2  503  501 -0.93446572184E+02 -0.22198463553E+02  0.46828414587E+02  0.10685473340E+03  0.00000000000E+00 0. -1.
         21    1    1    2  504  505 -0.32084697160E+02  0.17369277910E+02  0.54186789990E+03  0.54309478045E+03  0.00000000000E+00 0.  1.
         21    1    1    2  505  502  0.11259846010E+03 -0.55575823848E+02 -0.25438641867E+02  0.12811795313E+03  0.00000000000E+00 0. -1.
         21    1    1    2  506  503  0.12932809242E+02  0.60405009490E+02 -0.89908727164E+02  0.10908529666E+03  0.00000000000E+00 0. -1.
<scales pt_clust_3="14000.00000" pt_clust_4="36.48451" pt_clust_5="107.72690" pt_clust_6="62.53601"></scales>
<clustering>
<clus scale="   36.485">  1  4  2 -1</clus>
<clus scale="   62.536">  2  6  1 -1</clus>
<clus scale="  107.727">  2  5  1 -1</clus>
<clus scale="   36.485">  1  3  2 -1</clus>
</clustering>
</event>
<event>
 6    0  0.1221518E+003  0.1565833E+03  0.7546771E-02  0.1192609E+00
         21   -1    0    0  504  501  0.00000000000E+00  0.00000000000E+00  0.10789140628E+04  0.10789140628E+04  0.00000000000E+00 0. -1.
         21   -1    0    0  503  502 -0.00000000000E+00 -0.00000000000E+00 -0.19957439536E+03  0.19957439536E+03  0.00000000000E+00 0.  1.
         21    1    1    2  503  506 -0.28521203052E+02  0.49614669281E+02  0.83376570364E+01  0.57832438616E+02  0.00000000000E+00 0. -1.
         21    1    1    2  504  505 -0.71504025218E+02  0.43779594936E+02  0.20607054920E+03  0.22247370587E+03  0.00000000000E+00 0. -1.
         21    1    1    2  505  502 -0.25413452827E+02  0.99643627057E+02 -0.13276397898E+03  0.16793144468E+03  0.00000000000E+00 0.  1.
         21    1    1    2  506  501  0.12543868110E+03 -0.19303789127E+03  0.79769544018E+03  0.83025086899E+03  0.00000000000E+00 0. -1.
<scales pt_clust_3="57.22827" pt_clust_4="86.20806" pt_clust_5="156.58334" pt_clust_6="14000.00000"></scales>
<clustering>
<clus scale="   57.228">  2  3  1 -1</clus>
<clus scale="   86.208">  1  4  2 -1</clus>
<clus scale="  156.583">  2  5  1 -1</clus>
<clus scale="   86.208">  1  3  2 -1</clus>
</clustering>
</event>
<event>
 6    0  0.1221518E+003  0.9273842E+02  0.7546771E-02  0.1296353E+00
         21   -1    0    0  505  501  0.00000000000E+00  0.00000000000E+00  0.62533800524E+03  0.62533800524E+03  0.00000000000E+00 0.  1.
         21   -1    0    0  503  502 -0.00000000000E+00 -0.00000000000E+00 -0.36211725959E+03  0.36211725959E+03  0.00000000000E+00 0.  1.
         21    1    1    2  503  506  0.57120582461E+02  0.30442360412E+01 -0.48818889743E+01  0.57409591130E+02  0.00000000000E+00 0.  1.
         21    1    1    2  504  501  0.56567707013E+01 -0.93756740976E+02  0.56958818930E+03  0.57728072107E+03  0.00000000000E+00 0.  1.
         21    1    1    2  505  502 -0.84778521986E+02  0.20075053711E+02 -0.24395361381E+03  0.25904395624E+03  0.00000000000E+00 0.  1.
         21    1    1    2  506  504  0.22001168824E+02  0.70637451224E+02 -0.57531940861E+02  0.93720996390E+02  0.00000000000E+00 0. -1.
<scales pt_clust_3="57.20165" pt_clust_4="92.73842" pt_clust_5="47.04275" pt_clust_6="14000.00000"></scales>
<clustering>
<clus scale="   57.202">  2  3  1 -1</clus>
<clus scale="   47.043">  2  5  1 -1</clus>
<clus scale="   92.738">  1  4  2 -1</clus>
<clus scale="   92.738">  1  3  2 -1</clus>
</clustering>
</event>
<event>
 6    0  0.1221518E+003  0.1312478E+03  0.7546771E-02  0.1225616E+00
         21   -1    0    0  502  501  0.00000000000E+00  0.00000000000E+00  0.12035256280E+04  0.12035256280E+04  0.00000000000E+00 0.  1.
         21   -1    0    0  506  502 -0.00000000000E+00 -0.00000000000E+00 -0.87404845534E+02  0.87404845534E+02  0.00000000000E+00 0.  1.
         21    1    1    2  503  504 -0.11921368966E+03  0.67900822023E+02  0.22470849697E+03  0.26327995375E+03  0.00000000000E+00 0.  1.
         21    1    1    2  504  501  0.37731254190E+02  0.96685862451E+01  0.74589086770E+03  0.74690716667E+03  0.00000000000E+00 0.  1.
         21    1    1    2  505  503  0.67670315238E+02 -0.13090609598E+03  0.16599296816E+03  0.22196698631E+03  0.00000000000E+00 0.  1.
         21    1    1    2  506  505  0.13812120231E+02  0.53336687716E+02 -0.20471550366E+02  0.58776366817E+02  0.00000000000E+00 0.  1.
<scales pt_clust_3="131.24781" pt_clust_4="38.95034" pt_clust_5="14000.00000" pt_clust_6="55.90279"></scales>
<clustering>
<clus scale="   38.950">  1  4  2 -1</clus>
<clus scale="   55.903">  2  6  1 -1</clus>
<clus scale="  131.248">  1  3  2 -1</clus>
<clus scale="   38.950">  1  3  2 -1</clus>
</clustering>
</event>
<event>
 6    0  0.1221518E+003  0.9175703E+02  0.7546771E-02  0.1298652E+00
         21   -1    0    0  504  501  0.00000000000E+00  0.00000000000E+00  0.51253091876E+02  0.51253091876E+02  0.00000000000E+00 0. -1.
         21   -1    0    0  503  502 -0.00000000000E+00 -0.00000000000E+00 -0.74961829981E+03  0.74961829981E+03  0.00000000000E+00 0. -1.
         21    1    1    2  503  505  0.13897388299E+02  0.31885805496E+02 -0.42474624557E+03  0.42616805971E+03  0.00000000000E+00 0. -1.
         21    1    1    2  504  506 -0.11566310825E+03 -0.36593652999E+02 -0.12836120464E+03  0.17661723842E+03  0.00000000000E+00 0. -1.
         21    1    1    2  505  501  0.77844978964E+02 -0.32379777643E+02 -0.64862275163E+02  0.10637389477E+03  0.00000000000E+00 0. -1.
         21    1    1    2  506  502  0.23920740989E+02  0.37087625146E+02 -0.80395482567E+02  0.91712198783E+02  0.00000000000E+00 0. -1.
<scales pt_clust_3="34.78278" pt_clust_4="14000.00000" pt_clust_5="91.75703" pt_clust_6="53.26649"></scales>
<clustering>
<clus scale="   34.783">  2  3  1 -1</clus>
<clus scale="   53.266">  2  6  1 -1</clus>
<clus scale="   91.757">  1  5  2 -1</clus>
<clus scale="   91.757">  1  3  2 -1</clus>
</clustering>
</event>
<event>
 6    0  0.1221518E+003  0.8928750E+02  0.7546771E-02  0.1304586E+00
         21   -1    0    0  505  501  0.00000000000E+00  0.00000000000E+00  0.71727269700E+02  0.71727269700E+02  0.00000000000E+00 0.  1.
         21   -1    0    0  503  502 -0.00000000000E+00 -0.00000000000E+00 -0.14377695116E+04  0.14377695116E+04  0.00000000000E+00 0.  1.
         21    1    1    2  503  501  0.96818040584E+02 -0.77300020103E+02 -0.10907788512E+03  0.16506668687E+03  0.00000000000E+00 0.  1.
         21    1    1    2  504  502 -0.66968710178E+02  0.55955320595E+02 -0.11631184926E+04  0.11663877716E+04  0.00000000000E+00 0.  1.
         21    1    1    2  505  506  0.24859279468E+02  0.27370041924E+02  0.26645680453E+02  0.45575160530E+02  0.00000000000E+00 0. -1.
         21    1    1    2  506  504 -0.54708609873E+02 -0.60253424159E+01 -0.12049154464E+03  0.13246716225E+03  0.00000000000E+00 0. -1.
<scales pt_clust_3="89.28750" pt_clust_4="14000.00000" pt_clust_5="36.97436" pt_clust_6="50.54940"></scales>
<clustering>
<clus scale="   36.974">  1  5  2 -1</clus>
<clus scale="   50.549">  1  6  2 -1</clus>
<clus scale="   89.287">  1  3  2 -1</clus>
<clus scale="   36.974">  1  3  2 -1</clus>
</clustering>
</event>
<event>
 6    0  0.1221518E+003  0.1011878E+03  0.7546771E-02  0.1277818E+00
         21   -1    0    0  506  501  0.00000000000E+00  0.00000000000E+00  0.17154074317E+04  0.17154074317E+04  0.00000000000E+00 0.  1.
         21   -1    0    0  503  502 -0.00000000000E+00 -0.00000000000E+00 -0.31087503997E+03  0.31087503997E+03  0.00000000000E+00 0. -1.
         21    1    1    2  503  505 -0.12359668205E+03 -0.10692977492E+03 -0.25004528198E+03  0.29871852909E+03  0.00000000000E+00 0. -1.
         21    1    1    2  504  502  0.36494444020E+02  0.59271414259E+02  0.44308903165E+01  0.69746525230E+02  0.00000000000E+00 0. -1.
         21    1    1    2  505  501 -0.23478054443E+02 -0.18949686003E+02  0.32537936351E+03  0.32677521301E+03  0.00000000000E+00 0.  1.
         21    1    1    2  506  504  0.11058029247E+03  0.66608046666E+02  0.13247674198E+04  0.13310422043E+04  0.00000000000E+00 0.  1.
<scales pt_clust_3="101.18778" pt_clust_4="68.84679" pt_clust_5="30.17134" pt_clust_6="14000.00000"></scales>
<clustering>
<clus scale="   30.171">  1  5  2 -1</clus>
<clus scale="   68.847">  2  4  1 -1</clus>
<clus scale="  101.188">  2  3  1 -1</clus>
<clus scale="   30.171">  1  3  2 -1</clus>
</clustering>
</event>
<event>
 6    0  0.1221518E+003  0.8937471E+02  0.7546771E-02  0.1304373E+00
         21   -1    0    0  504  501  0.00000000000E+00  0.00000000000E+00  0.39665824820E+03  0.39665824820E+03  0.00000000000E+00 0. -1.
         21   -1    0    0  505  502 -0.00000000000E+00 -0.00000000000E+00 -0.10091374974E+03  0.10091374974E+03  0.00000000000E+00 0. -1.
         21    1    1    2  503  501 -0.60106212841E+02  0.98835881473E+02  0.10772736732E+03  0.15807110412E+03  0.00000000000E+00 0. -1.
         21    1    1    2  504  502  0.72446160285E+02 -0.42973610357E+02  0.22056256753E+03  0.23609960509E+03  0.00000000000E+00 0. -1.
         21    1    1    2  505  506  0.27486801788E+02 -0.16671318743E+02 -0.34933816677E+02  0.47474505672E+02  0.00000000000E+00 0. -1.
         21    1    1    2  506  503 -0.39826749232E+02 -0.39190952374E+02  0.23883802886E+01  0.55926783054E+02  0.00000000000E+00 0. -1.
<scales pt_clust_3="89.37471" pt_clust_4="14000.00000" pt_clust_5="32.14743" pt_clust_6="54.16723"></scales>
<clustering>
<clus scale="   32.147">  2  5  1 -1</clus>
<clus scale="   54.167">  2  6  1 -1</clus>
<clus scale="   89.375">  2  3  1 -1</clus>
<clus scale="   89.375">  1  3  2 -1</clus>
</clustering>
</event>
<event>
 6    0  0.1221518E+003  0.1198440E+03  0.7546771E-02  0.1243355E+00
         21   -1    0    0  504  501  0.00000000000E+00  0.00000000000E+00  0.36095700249E+02  0.36095700249E+02  0.00000000000E+00 0.  1.
         21   -1    0    0  505  502 -0.00000000000E+00 -0.00000000000E+00 -0.17832587662E+04  0.17832587662E+04  0.00000000000E+00 0.  1.
         21    1    1    2  503  506  0.17172421751E+02  0.99857575219E+02 -0.44871426597E+03  0.46001186929E+03  0.00000000000E+00 0.  1.
         21    1    1    2  504  502 -0.23817993961E+02 -0.11352869418E+03 -0.11123680265E+03  0.16071617063E+03  0.00000000000E+00 0.  1.
         21    1    1    2  505  503 -0.31892533296E+02  0.39277747383E+02 -0.10877796041E+04  0.10889556199E+04  0.00000000000E+00 0.  1.
         21    1    1    2  506  501  0.38538105506E+02 -0.25606628424E+02 -0.99432393309E+02  0.10967080666E+03  0.00000000000E+00 0. -1.
<scales pt_clust_3="119.84402" pt_clust_4="14000.00000" pt_clust_5="49.75742" pt_clust_6="46.26970"></scales>
<clustering>
<clus scale="   46.270">  1  6  2 -1</clus>
<clus scale="   49.757">  2  5  1 -1</clus>
<clus scale="  119.844">  2  3  1 -1</clus>
<clus scale="   46.270">  1  3  2 -1</clus>
</clustering>
</event>
<event>
 6    0  0.1221518E+003  0.7975922E+02  0.7546771E-02  0.1329736E+00
         21   -1    0    0  504  501  0.00000000000E+00  0.00000000000E+00  0.55106274175E+03  0.55106274175E+03  0.00000000000E+00 0.  1.
         21   -1    0    0  506  502 -0.00000000000E+00 -0.00000000000E+00 -0.14450152326E+03  0.14450152326E+03  0.00000000000E+00 0.  1.
         21    1    1    2  503  502 -0.13611524171E+02 -0.56823305255E+02  0.30610457772E+02  0.65963336297E+02  0.00000000000E+00 0.  1.
         21    1    1    2  504  503 -0.40827040411E+02 -0.80928052564E+02  0.30909167588E+03  0.32210846158E+03  0.00000000000E+00 0.  1.
         21    1    1    2  505  501  0.52201491148E+02  0.47150176468E+02  0.16168411287E+03  0.17632324627E+03  0.00000000000E+00 0.  1.
         21    1    1    2  506  505  0.22370734339E+01  0.90601181351E+02 -0.94825028041E+02  0.13116922087E+03  0.00000000000E+00 0.  1.
<scales pt_clust_3="58.43083" pt_clust_4="14000.00000" pt_clust_5="79.75922" pt_clust_6="41.17880"></scales>
<clustering>
<clus scale="   58.431">  2  3  1 -1</clus>
<clus scale="   41.179">  2  6  1 -1</clus>
<clus scale="   79.759">  2  5  1 -1</clus>
<clus scale="   79.759">  1  3  2 -1</clus>
</clustering>
</event>
<event>
 6    0  0.4729427E+003  0.1099897E+03  0.7546771E-02  0.1260589E+00
         21   -1    0    0  505  501  0.00000000000E+00  0.00000000000E+00  0.45768405118E+03  0.45768405118E+03  0.00000000000E+00 0. -1.
         21   -1    0    0  504  502 -0.00000000000E+00 -0.00000000000E+00 -0.15145510701E+04  0.15145510701E+04  0.00000000000E+00 0. -1.
         21    1    1    2  503  501 -0.75018177437E+01 -0.12531427906E+03  0.42978211456E+03  0.44774167976E+03  0.00000000000E+00 0. -1.
         21    1    1    2  504  503 -0.40888568712E+02  0.77420401300E+02 -0.13701169602E+04  0.13729116061E+04  0.00000000000E+00 0. -1.
         21    1    1    2  505  506  0.27805011156E+02  0.16832194064E+02 -0.36490100704E+01  0.32707134954E+02  0.00000000000E+00 0. -1.
         21    1    1    2  506  502  0.20585375300E+02  0.31061683693E+02 -0.11288316318E+03  0.11887470042E+03  0.00000000000E+00 0.  1.
<scales pt_clust_3="14000.00000" pt_clust_4="109.98968" pt_clust_5="32.50294" pt_clust_6="37.46254"></scales>
<clustering>
<clus scale="   32.503">  1  5  2 -1</clus>
<clus scale="   37.463">  2  6  1 -1</clus>
<clus scale="  109.990">  2  4  1 -1</clus>
<clus scale="   32.503">  1  3  2 -1</clus>
</clustering>
</event>
<event>
 6    0  0.1221518E+003  0.1032490E+03  0.7546771E-02  0.1273608E+00
         21   -1    0    0  504  501  0.00000000000E+00  0.00000000000E+00  0.16480617752E+04  0.16480617752E+04  0.00000000000E+00 0.  1.
         21   -1    0    0  506  502 -0.00000000000E+00 -0.00000000000E+00 -0.82249304347E+02  0.82249304347E+02  0.00000000000E+00 0. -1.
         21    1    1    2  503  501 -0.89156185062E+02 -0.44338235198E+02  0.13264961849E+04  0.13302281131E+04  0.00000000000E+00 0.  1.
         21    1    1    2  504  505  0.12520747286E+03  0.85961236752E+02  0.21622174678E+03  0.26423112849E+03  0.00000000000E+00 0.  1.
         21    1    1    2  505  502 -0.48661771120E+02 -0.13828894482E+02 -0.40833172695E+02  0.65011954927E+02  0.00000000000E+00 0. -1.
         21    1    1    2  506  503  0.12610483324E+02 -0.27794107071E+02  0.63927711911E+02  0.70839883030E+02  0.00000000000E+00 0. -1.
<scales pt_clust_3="103.24900" pt_clust_4="14000.00000" pt_clust_5="51.68603" pt_clust_6="30.52109"></scales>
<clustering>
<clus scale="   30.521">  2  6  1 -1</clus>
<clus scale="   51.686">  2  5  1 -1</clus>
<clus scale="  103.249">  1  3  2 -1</clus>
<clus scale="  103.249">  1  3  2 -1</clus>
</clustering>
</event>
<event>
 6    0  0.1221518E+003  0.1205745E+03  0.7546771E-02  0.1242152E+00
         21   -1    0    0  505  501  0.00000000000E+00  0.00000000000E+00  0.38628006251E+03  0.38628006251E+03  0.00000000000E+00 0. -1.
         21   -1    0    0  506  502 -0.00000000000E+00 -0.00000000000E+00 -0.77220935610E+02  0.77220935610E+02  0.00000000000E+00 0.  1.
         21    1    1    2  503  502 -0.62004798777E+02 -0.75260756403E+02  0.33415145239E+02  0.10307933089E+03  0.00000000000E+00 0.  1.
         21    1    1    2  504  501 -0.90837122050E+00  0.95354186453E+02  0.65068812171E+02  0.11544347677E+03  0.00000000000E+00 0.  1.
         21    1    1    2  505  503  0.26811064195E+02 -0.53625359843E+02  0.17275990280E+03  0.18286742847E+03  0.00000000000E+00 0. -1.
         21    1    1    2  506  504  0.36102105802E+02  0.33531929792E+02  0.37815266692E+02  0.62110761981E+02  0.00000000000E+00 0. -1.
<scales pt_clust_3="106.99563" pt_clust_4="39.95864" pt_clust_5="59.95425" pt_clust_6="39.95864"></scales>
<clustering>
<clus scale="   39.959">  4  6 -1 -1</clus>
<clus scale="   59.954">  1  5  2 -1</clus>
<clus scale="  106.996">  2  3  1 -1</clus>
<clus scale="   59.954">  1  3  2 -1</clus>
</clustering>
</event>
<event>
 6    0  0.1221518E+003  0.9098579E+02  0.7546771E-02  0.1300482E+00
         21   -1    0    0  505  501  0.00000000000E+00  0.00000000000E+00  0.10864120216E+03  0.10864120216E+03  0.00000000000E+00 0.  1.
         21   -1    0    0  504  502 -0.00000000000E+00 -0.00000000000E+00 -0.76799000732E+03  0.76799000732E+03  0.00000000000E+00 0.  1.
         21    1    1    2  503  506 -0.10962597815E+03  0.42412861156E+02  0.50457559314E+02  0.12791665712E+03  0.00000000000E+00 0.  1.
         21    1    1    2  504  501  0.53022511300E+02  0.22615930548E+01 -0.10245570387E+03  0.11538488967E+03  0.00000000000E+00 0.  1.
         21    1    1    2  505  503  0.30984552776E+02  0.60019407918E+01 -0.97428285571E+01  0.33030115232E+02  0.00000000000E+00 0. -1.
         21    1    1    2  506  502  0.25618914074E+02 -0.50676395003E+02 -0.59760783204E+03  0.60029954747E+03  0.00000000000E+00 0.  1.
<scales pt_clust_3="14000.00000" pt_clust_4="55.15180" pt_clust_5="31.56051" pt_clust_6="90.98579"></scales>
<clustering>
<clus scale="   31.561">  1  5  2 -1</clus>
<clus scale="   55.152">  2  4  1 -1</clus>
<clus scale="   90.986">  2  6  1 -1</clus>
<clus scale="   31.561">  1  3  2 -1</clus>
</clustering>
</event>
<event>
 6    0  0.1221518E+003  0.9618445E+02  0.7546771E-02  0.1288530E+00
         21   -1    0    0  503  501  0.00000000000E+00  0.00000000000E+00  0.17791991605E+04  0.17791991605E+04  0.00000000000E+00 0. -1.
         21   -1    0    0  505  502 -0.00000000000E+00 -0.00000000000E+00 -0.35463883560E+02  0.35463883560E+02  0.00000000000E+00 0.  1.
         21    1    1    2  503  506 -0.32822876543E+02 -0.17322339988E+02  0.11270260873E+04  0.11276370011E+04  0.00000000000E+00 0. -1.
         21    1    1    2  504  502  0.20260008630E+02  0.92520289030E+02  0.60176641305E+02  0.11221274433E+03  0.00000000000E+00 0.  1.
         21    1    1    2  505  501 -0.12404201215E+02 -0.10354616205E+03  0.44502748433E+03  0.45708328966E+03  0.00000000000E+00 0.  1.
         21    1    1    2  506  504  0.24967069128E+02  0.28348213013E+02  0.11150506399E+03  0.11773000900E+03  0.00000000000E+00 0.  1.
<scales pt_clust_3="37.11340" pt_clust_4="14000.00000" pt_clust_5="96.18445" pt_clust_6="31.75994"></scales>
<clustering>
<clus scale="   37.113">  1  3  2 -1</clus>
<clus scale="   31.760">  1  6  2 -1</clus>
<clus scale="   96.184">  1  5  2 -1</clus>
<clus scale="   37.113">  1  3  2 -1</clus>
</clustering>
</event>
<event>
 6    0  0.1221518E+003  0.1036620E+03  0.7546771E-02  0.1272779E+00
         21   -1    0    0  503  501  0.00000000000E+00  0.00000000000E+00  0.41530214036E+03  0.41530214036E+03  0.00000000000E+00 0.  1.
         21   -1    0    0  506  502 -0.00000000000E+00 -0.00000000000E+00 -0.22797214356E+03  0.22797214356E+03  0.00000000000E+00 0.  1.
         21    1    1    2  503  502  0.81565364454E+02  0.60844763700E+02 -0.36398003454E+02  0.10807316320E+03  0.00000000000E+00 0.  1.
         21    1    1    2  504  505 -0.69792110874E+02 -0.79177109083E+02  0.28485778491E+02  0.10932242642E+03  0.00000000000E+00 0.  1.
         21    1    1    2  505  501 -0.38325874348E+02  0.45479139522E+02  0.30447720124E+03  0.31023151170E+03  0.00000000000E+00 0.  1.
         21    1    1    2  506  504  0.26552620768E+02 -0.27146794139E+02 -0.10923497947E+03  0.11564718259E+03  0.00000000000E+00 0.  1.
<scales pt_clust_3="14000.00000" pt_clust_4="103.66196" pt_clust_5="58.53153" pt_clust_6="37.97354"></scales>
<clustering>
<clus scale="   37.974">  2  6  1 -1</clus>
<clus scale="   58.532">  1  5  2 -1</clus>
<clus scale="  103.662">  1  4  2 -1</clus>
<clus scale="   58.532">  1  3  2 -1</clus>
</clustering>
</event>
<event>
 6    0  0.1221518E+003  0.1001313E+03  0.7546771E-02  0.1280020E+00
         21   -1    0    0  504  501  0.00000000000E+00  0.00000000000E+00  0.86313493051E+02  0.86313493051E+02  0.00000000000E+00 0.  1.
         21   -1    0    0  506  502 -0.00000000000E+00 -0.00000000000E+00 -0.11239019124E+04  0.11239019124E+04  0.00000000000E+00 0.  1.
         21    1    1    2  503  502  0.31340366498E+02  0.59780429283E+01 -0.54714748344E+02  0.63337660644E+02  0.00000000000E+00 0.  1.
         21    1    1    2  504  503  0.30524313491E+02 -0.63213485406E+02 -0.27466485032E+03  0.28349331289E+03  0.00000000000E+00 0.  1.
         21    1    1    2  505  501 -0.10088423501E+03  0.34628525655E+02  0.39927553656E+02  0.11389018046E+03  0.00000000000E+00 0.  1.
         21    1    1    2  506  505  0.39019555025E+02  0.22606916823E+02 -0.74813637429E+03  0.74949425142E+03  0.00000000000E+00 0.  1.
<scales pt_clust_3="31.90542" pt_clust_4="100.13134" pt_clust_5="14000.00000" pt_clust_6="66.68496"></scales>
<clustering>
<clus scale="   31.905">  2  3  1 -1</clus>
<clus scale="   66.685">  2  6  1 -1</clus>
<clus scale="  100.131">  2  4  1 -1</clus>
<clus scale="  100.131">  1  3  2 -1</clus>
</clustering>
</event>
<event>
 6    0  0.1221518E+003  0.9868255E+02  0.7546771E-02  0.1283091E+00
         21   -1    0    0  502  501  0.00000000000E+00  0.00000000000E+00  0.27813867381E+04  0.27813867381E+04  0.00000000000E+00 0. -1.
         21   -1    0    0  506  502 -0.00000000000E+00 -0.00000000000E+00 -0.37109355498E+03  0.37109355498E+03  0.00000000000E+00 0. -1.
         21    1    1    2  503  505  0.43317628088E+02  0.57592586580E+02 -0.10372348318E+03  0.12630076760E+03  0.00000000000E+00 0. -1.
         21    1    1    2  504  501  0.64870410098E+02  0.14241727506E+02  0.27357875445E+04  0.27365935916E+04  0.00000000000E+00 0. -1.
         21    1    1    2  505  504 -0.13911764504E+03 -0.60473760606E+02 -0.16651102805E+03  0.22524812396E+03  0.00000000000E+00 0. -1.
         21    1    1    2  506  503  0.30929606856E+02 -0.11360553480E+02 -0.55259850121E+02  0.64337809965E+02  0.00000000000E+00 0. -1.
<scales pt_clust_3="14000.00000" pt_clust_4="66.45130" pt_clust_5="98.68255" pt_clust_6="32.95000"></scales>
<clustering>
<clus scale="   32.950">  2  6  1 -1</clus>
<clus scale="   66.451">  1  4  2 -1</clus>
<clus scale="   98.683">  1  5  2 -1</clus>
<clus scale="   66.451">  1  3  2 -1</clus>
</clustering>
</event>
<event>
 6    0  0.1221518E+003  0.1034099E+03  0.7546771E-02  0.1273285E+00
         21   -1    0    0  503  501  0.00000000000E+00  0.00000000000E+00  0.39396610398E+02  0.39396610398E+02  0.00000000000E+00 0. -1.
         21   -1    0    0  505  502 -0.00000000000E+00 -0.00000000000E+00 -0.87908541480E+03  0.87908541480E+03  0.00000000000E+00 0. -1.
         21    1    1    2  503  506  0.46073726169E+02 -0.90301194156E+02 -0.15846941933E+03  0.18812137245E+03  0.00000000000E+00 0.  1.
         21    1    1    2  504  502 -0.63418851469E+02  0.22383312240E+02 -0.28409687322E+03  0.29194862007E+03  0.00000000000E+00 0. -1.
         21    1    1    2  505  501 -0.16473078058E+02 -0.51222741746E+02 -0.18619128747E+03  0.19381002838E+03  0.00000000000E+00 0. -1.
         21    1    1    2  506  504  0.33818203359E+02  0.11914062366E+03 -0.21093122438E+03  0.24460200429E+03  0.00000000000E+00 0. -1.
<scales pt_clust_3="14000.00000" pt_clust_4="70.31098" pt_clust_5="53.80643" pt_clust_6="103.40985"></scales>
<clustering>
<clus scale="   53.806">  2  5  1 -1</clus>
<clus scale="   70.311">  2  4  1 -1</clus>
<clus scale="  103.410">  2  6  1 -1</clus>
<clus scale="  103.410">  1  3  2 -1</clus>
</clustering>
</event>
<event>
 6    0  0.1221518E+003  0.9790327E+02  0.7546771E-02  0.1284768E+00
         21   -1    0    0  504  501  0.00000000000E+00  0.00000000000E+00  0.68191394630E+03  0.68191394630E+03  0.00000000000E+00 0. -1.
         21   -1    0    0  503  502 -0.00000000000E+00 -0.00000000000E+00 -0.66203642981E+02  0.66203642981E+02  0.00000000000E+00 0. -1.
         21    1    1    2  503  506  0.33863829597E+02  0.72275357275E+02  0.14817326518E+03  0.16830271162E+03  0.00000000000E+00 0. -1.
         21    1    1    2  504  505  0.10203993686E+03 -0.51593369994E+02  0.29007884613E+03  0.31180083630E+03  0.00000000000E+00 0. -1.
         21    1    1    2  505  502 -0.94395940744E+02 -0.35241687601E+02  0.17689872159E+02  0.10230103495E+03  0.00000000000E+00 0. -1.
         21    1    1    2  506  501 -0.41507825716E+02  0.14559700320E+02  0.15976831985E+03  0.16571300642E+03  0.00000000000E+00 0.  1.
<scales pt_clust_3="79.59185" pt_clust_4="97.90327" pt_clust_5="14000.00000" pt_clust_6="43.98732"></scales>
<clustering>
<clus scale="   43.987">  1  6  2 -1</clus>
<clus scale="   79.592">  1  3  2 -1</clus>
<clus scale="   97.903">  1  4  2 -1</clus>
<clus scale="   43.987">  1  3  2 -1</clus>
</clustering>
</event>
<event>
 6    0  0.1221518E+003  0.1436283E+03  0.7546771E-02  0.1208529E+00
         21   -1    0    0  506  501  0.00000000000E+00  0.00000000000E+00  0.42455955300E+03  0.42455955300E+03  0.00000000000E+00 0. -1.
         21   -1    0    0  505  502 -0.00000000000E+00 -0.00000000000E+00 -0.35227439150E+03  0.35227439150E+03  0.00000000000E+00 0. -1.
         21    1    1    2  503  501 -0.97669063309E+02  0.76818823906E+01  0.41992126989E+02  0.10659078747E+03  0.00000000000E+00 0. -1.
         21    1    1    2  504  502 -0.15315253085E+03 -0.66791289974E+01 -0.10434663236E+03  0.18544144131E+03  0.00000000000E+00 0. -1.
         21    1    1    2  505  503  0.28359393492E+02  0.22920293228E+02 -0.13187265692E+03  0.13682102427E+03  0.00000000000E+00 0. -1.
         21    1    1    2  506  504  0.22246220067E+03 -0.23923046621E+02  0.26651232379E+03  0.34798069144E+03  0.00000000000E+00 0. -1.
<scales pt_clust_3="94.12021" pt_clust_4="143.62833" pt_clust_5="36.46361" pt_clust_6="14000.00000"></scales>
<clustering>
<clus scale="   36.464">  2  5  1 -1</clus>
<clus scale="   94.120">  1  3  2 -1</clus>
<clus scale="  143.628">  2  4  1 -1</clus>
<clus scale="   94.120">  1  3  2 -1</clus>
</clustering>
</event>
<event>
 6    0  0.1221518E+003  0.8738804E+02  0.7546771E-02  0.1309303E+00
         21   -1    0    0  506  501  0.00000000000E+00  0.00000000000E+00  0.10462286467E+04  0.10462286467E+04  0.00000000000E+00 0. -1.
         21   -1    0    0  503  502 -0.00000000000E+00 -0.00000000000E+00 -0.13600438751E+03  0.13600438751E+03  0.00000000000E+00 0. -1.
         21    1    1    2  503  505 -0.86932809529E+02  0.97542762094E+01  0.86326045351E+02  0.12290095762E+03  0.00000000000E+00 0. -1.
         21    1    1    2  504  502 -0.81827857257E+01  0.64767240680E+02 -0.88548894258E+02  0.11001209080E+03  0.00000000000E+00 0. -1.
         21    1    1    2  505  501  0.45405321051E+02  0.26278299927E+02  0.74971797589E+03  0.75155121955E+03  0.00000000000E+00 0. -1.
         21    1    1    2  506  504  0.49710274204E+02 -0.10079981682E+03  0.16272913216E+03  0.19776876620E+03  0.00000000000E+00 0. -1.
<scales pt_clust_3="87.38804" pt_clust_4="66.04532" pt_clust_5="52.46134" pt_clust_6="14000.00000"></scales>
<clustering>
<clus scale="   52.461">  1  5  2 -1</clus>
<clus scale="   66.045">  2  4  1 -1</clus>
<clus scale="   87.388">  1  3  2 -1</clus>
<clus scale="   52.461">  1  3  2 -1</clus>
</clustering>
</event>
<event>
 6    0  0.1221518E+003  0.7129999E+02  0.7546771E-02  0.1355727E+00
         21   -1    0    0  505  501  0.00000000000E+00  0.00000000000E+00  0.36289929066E+03  0.36289929066E+03  0.00000000000E+00 0. -1.
         21   -1    0    0  503  502 -0.00000000000E+00 -0.00000000000E+00 -0.30000635363E+04  0.30000635363E+04  0.00000000000E+00 0. -1.
         21    1    1    2  503  504  0.73386590870E+02 -0.11003768745E+03 -0.28905518544E+04  0.28935763179E+04  0.00000000000E+00 0. -1.
         21    1    1    2  504  501 -0.38766526174E+02  0.23420023147E+02  0.27503467434E+03  0.27873896952E+03  0.00000000000E+00 0. -1.
         21    1    1    2  505  506 -0.44789132575E+01  0.34389090760E+02  0.71625616526E+02  0.79579514763E+02  0.00000000000E+00 0. -1.
         21    1    1    2  506  502 -0.30141151439E+02  0.52228573547E+02 -0.93272682057E+02  0.11106802475E+03  0.00000000000E+00 0.  1.
<scales pt_clust_3="14000.00000" pt_clust_4="71.29999" pt_clust_5="34.67954" pt_clust_6="61.29502"></scales>
<clustering>
<clus scale="   34.680">  1  5  2 -1</clus>
<clus scale="   61.295">  2  6  1 -1</clus>
<clus scale="   71.300">  1  4  2 -1</clus>
<clus scale="   34.680">  1  3  2 -1</clus>
</clustering>
</event>
<event>
 6    0  0.1221518E+003  0.9943714E+02  0.7546771E-02  0.1281484E+00
         21   -1    0    0  506  501  0.00000000000E+00  0.00000000000E+00  0.58851785578E+02  0.58851785578E+02  0.00000000000E+00 0. -1.
         21   -1    0    0  503  502 -0.00000000000E+00 -0.00000000000E+00 -0.10052189634E+04  0.10052189634E+04  0.00000000000E+00 0. -1.
         21    1    1    2  503  505 -0.52493732849E+02  0.25969218866E+02 -0.37888791837E+03  0.38338759370E+03  0.00000000000E+00 0. -1.
         21    1    1    2  504  502  0.91646410206E+02 -0.19506618427E+02 -0.34802047871E+03  0.36041341022E+03  0.00000000000E+00 0. -1.
         21    1    1    2  505  501  0.89540310980E+02 -0.68240675882E+01 -0.37304655543E+02  0.97240282363E+02  0.00000000000E+00 0. -1.
         21    1    1    2  506  504 -0.12869298834E+03  0.36146714927E+00 -0.18215412524E+03  0.22302946274E+03  0.00000000000E+00 0. -1.
<scales pt_clust_3="58.56614" pt_clust_4="62.03536" pt_clust_5="99.43714" pt_clust_6="14000.00000"></scales>
<clustering>
<clus scale="   58.566">  2  3  1 -1</clus>
<clus scale="   62.035">  2  4  1 -1</clus>
<clus scale="   99.437">  1  5  2 -1</clus>
<clus scale="   99.437">  1  3  2 -1</clus>
</clustering>
</event>
<event>
 6    0  0.1221518E+003  0.1034105E+03  0.7546771E-02  0.1273283E+00
         21   -1    0    0  504  501  0.00000000000E+00  0.00000000000E+00  0.38864364080E+03  0.38864364080E+03  0.00000000000E+00 0.  1.
         21   -1    0    0  505  502 -0.00000000000E+00 -0.00000000000E+00 -0.77804625035E+03  0.77804625035E+03  0.00000000000E+00 0. -1.
         21    1    1    2  503  501 -0.83920644527E+02 -0.34482643299E+02  0.28426397853E+03  0.29839191805E+03  0.00000000000E+00 0.  1.
         21    1    1    2  504  506  0.48489047783E+02 -0.21576647634E+02  0.66088841171E+02  0.84761278927E+02  0.00000000000E+00 0.  1.
         21    1    1    2  505  503  0.13064577138E+03  0.34665236699E+02 -0.25046975699E+03  0.28461394095E+03  0.00000000000E+00 0.  1.
         21    1    1    2  506  502 -0.95214174640E+02  0.21394054235E+02 -0.48928567226E+03  0.49892275322E+03  0.00000000000E+00 0. -1.
<scales pt_clust_3="66.95427" pt_clust_4="53.07296" pt_clust_5="103.41049" pt_clust_6="14000.00000"></scales>
<clustering>
<clus scale="   53.073">  1  4  2 -1</clus>
<clus scale="   66.954">  1  3  2 -1</clus>
<clus scale="  103.410">  1  5  2 -1</clus>
<clus scale="   53.073">  1  3  2 -1</clus>
</clustering>
</event>
<event>
 6    0  0.1221518E+003  0.1337338E+03  0.7546771E-02  0.1222018E+00
         21   -1    0    0  504  501  0.00000000000E+00  0.00000000000E+00  0.18719237290E+03  0.18719237290E+03  0.00000000000E+00 0.  1.
         21   -1    0    0  503  502 -0.00000000000E+00 -0.00000000000E+00 -0.27793063400E+03  0.27793063400E+03  0.00000000000E+00 0.  1.
         21    1    1    2  503  501 -0.98214506160E+02  0.11070846651E+03  0.40914937548E+02  0.15354636398E+03  0.00000000000E+00 0.  1.
         21    1    1    2  504  506 -0.34046932922E+02 -0.33783326852E+02  0.10504359845E+02  0.49100390938E+02  0.00000000000E+00 0.  1.
         21    1    1    2  505  502  0.80992972813E+02  0.31925767376E+02 -0.10531938000E+03  0.13664292178E+03  0.00000000000E+00 0.  1.
         21    1    1    2  506  505  0.51268466269E+02 -0.10885090703E+03 -0.36838178498E+02  0.12583333020E+03  0.00000000000E+00 0.  1.
<scales pt_clust_3="14000.00000" pt_clust_4="47.96360" pt_clust_5="82.69484" pt_clust_6="133.73382"></scales>
<clustering>
<clus scale="   47.964">  1  4  2 -1</clus>
<clus scale="   82.695">  2  5  1 -1</clus>
<clus scale="  133.734">  2  6  1 -1</clus>
<clus scale="   47.964">  1  3  2 -1</clus>
</clustering>
</event>
<event>
 6    0  0.1221518E+003  0.1120636E+03  0.7546771E-02  0.1256796E+00
         21   -1    0    0  504  501  0.00000000000E+00  0.00000000000E+00  0.43274049920E+03  0.43274049920E+03  0.00000000000E+00 0.  1.
         21   -1    0    0  503  502 -0.00000000000E+00 -0.00000000000E+00 -0.47433055622E+03  0.47433055622E+03  0.00000000000E+00 0.  1.
         21    1    1    2  503  505  0.14254483779E+02  0.47535181133E+02 -0.18036074657E+03  0.18706357918E+03  0.00000000000E+00 0. -1.
         21    1    1    2  504  502  0.76874528092E+01 -0.36072609980E+02  0.57210337263E+02  0.68068735930E+02  0.00000000000E+00 0.  1.
         21    1    1    2  505  506  0.96061636532E+02 -0.21680975765E+02 -0.26658697527E+03  0.28419450752E+03  0.00000000000E+00 0.  1.
         21    1    1    2  506  501 -0.11800357312E+03  0.10218404612E+02  0.34814732756E+03  0.36774423279E+03  0.00000000000E+00 0.  1.
<scales pt_clust_3="49.33381" pt_clust_4="36.88265" pt_clust_5="112.06356" pt_clust_6="14000.00000"></scales>
<clustering>
<clus scale="   36.883">  1  4  2 -1</clus>
<clus scale="   49.334">  2  3  1 -1</clus>
<clus scale="  112.064">  2  5  1 -1</clus>
<clus scale="   36.883">  1  3  2 -1</clus>
</clustering>
</event>
<event>
 6    0  0.1221518E+003  0.1333368E+03  0.7546771E-02  0.1222587E+00
         21   -1    0    0  506  501  0.00000000000E+00  0.00000000000E+00  0.70317692637E+03  0.70317692637E+03  0.00000000000E+00 0. -1.
         21   -1    0    0  505  502 -0.00000000000E+00 -0.00000000000E+00 -0.24570802374E+03  0.24570802374E+03  0.00000000000E+00 0. -1.
         21    1    1    2  503  501 -0.77627719548E+02  0.55965325236E+02  0.18746740970E+03  0.21048090215E+03  0.00000000000E+00 0. -1.
         21    1    1    2  504  502  0.44210906267E+02 -0.11646121964E+03 -0.19037270702E+03  0.22750733503E+03  0.00000000000E+00 0. -1.
         21    1    1    2  505  503  0.52233775370E+02  0.60648833476E+01  0.60440703906E+01  0.52930906721E+02  0.00000000000E+00 0. -1.
         21    1    1    2  506  504 -0.18816962090E+02  0.54431011059E+02  0.45433012955E+03  0.45796580620E+03  0.00000000000E+00 0. -1.
<scales pt_clust_3="133.33677" pt_clust_4="14000.00000" pt_clust_5="52.58469" pt_clust_6="57.50061"></scales>
<clustering>
<clus scale="   52.585">  2  5  1 -1</clus>
<clus scale="   57.501">  1  6  2 -1</clus>
<clus scale="  133.337">  1  3  2 -1</clus>
<clus scale="   57.501">  1  3  2 -1</clus>
</clustering>
</event>
<event>
 6    0  0.1221518E+003  0.7123008E+02  0.7546771E-02  0.1355959E+00
         21   -1    0    0  503  501  0.00000000000E+00  0.00000000000E+00  0.53670569911E+03  0.53670569911E+03  0.00000000000E+00 0.  1.
         21   -1    0    0  505  502 -0.00000000000E+00 -0.00000000000E+00 -0.95562940260E+02  0.95562940260E+02  0.00000000000E+00 0.  1.
         21    1    1    2  503  504  0.28862781283E+02 -0.54453270478E+02  0.26077263566E+03  0.26795631420E+03  0.00000000000E+00 0.  1.
         21    1    1    2  504  506 -0.30688520613E+02  0.98902314241E+02  0.21846721608E+03  0.24176719704E+03  0.00000000000E+00 0.  1.
         21    1    1    2  505  501  0.78087141014E+01 -0.80021052450E+02 -0.26340181423E+02  0.84605850912E+02  0.00000000000E+00 0.  1.
         21    1    1    2  506  502 -0.59829747715E+01  0.35572008687E+02 -0.11756911469E+02  0.37939277226E+02  0.00000000000E+00 0.  1.
<scales pt_clust_3="14000.00000" pt_clust_4="71.23008" pt_clust_5="52.20924" pt_clust_6="36.07165"></scales>
<clustering>
<clus scale="   36.072">  2  6  1 -1</clus>
<clus scale="   52.209">  2  5  1 -1</clus>
<clus scale="   71.230">  2  4  1 -1</clus>
<clus scale="   71.230">  1  3  2 -1</clus>
</clustering>
</event>
<event>
 6    0  0.1221518E+003  0.1253023E+03  0.7546771E-02  0.1234598E+00
         21   -1    0    0  506  501  0.00000000000E+00  0.00000000000E+00  0.26819967395E+03  0.26819967395E+03  0.00000000000E+00 0. -1.
         21   -1    0    0  505  502 -0.00000000000E+00 -0.00000000000E+00 -0.36792595271E+03  0.36792595271E+03  0.00000000000E+00 0. -1.
         21    1    1    2  503  501  0.14912720100E+02 -0.31728391469E+02  0.15186452958E+03  0.15585863913E+03  0.00000000000E+00 0. -1.
         21    1    1    2  504  503  0.99379707922E+02  0.74631021103E+02  0.44457597852E+02  0.13199467286E+03  0.00000000000E+00 0. -1.
         21    1    1    2  505  504  0.29896171339E+02 -0.32665998551E+01 -0.26787856236E+02  0.40274569856E+02  0.00000000000E+00 0. -1.
         21    1    1    2  506  502 -0.14418859936E+03 -0.39636029780E+02 -0.26926054996E+03  0.30799774481E+03  0.00000000000E+00 0. -1.
<scales pt_clust_3="35.15218" pt_clust_4="14000.00000" pt_clust_5="30.07410" pt_clust_6="125.30234"></scales>
<clustering>
<clus scale="   30.074">  2  5  1 -1</clus>
<clus scale="   35.152">  1  3  2 -1</clus>
<clus scale="  125.302">  2  6  1 -1</clus>
<clus scale="   35.152">  1  3  2 -1</clus>
</clustering>
</event>
<event>
 6    0  0.1221518E+003  0.1570460E+03  0.7546771E-02  0.1192073E+00
         21   -1    0    0  504  501  0.00000000000E+00  0.00000000000E+00  0.94156662387E+02  0.94156662387E+02  0.00000000000E+00 0.  1.
         21   -1    0    0  506  502 -0.00000000000E+00 -0.00000000000E+00 -0.19346306071E+04  0.19346306071E+04  0.00000000000E+00 0.  1.
         21    1    1    2  503  502  0.71272750038E+02  0.14537873335E+03 -0.13580175339E+04  0.13676353328E+04  0.00000000000E+00 0.  1.
         21    1    1    2  504  505 -0.57754309845E+02  0.86361680026E+01  0.58679745384E+02  0.82785603953E+02  0.00000000000E+00 0.  1.
         21    1    1    2  505  503  0.24339618222E+02 -0.16335769173E+03 -0.43808700929E+03  0.46818626653E+03  0.00000000000E+00 0.  1.
         21    1    1    2  506  501 -0.37858058415E+02  0.93427903854E+01 -0.10304914686E+03  0.11018006620E+03  0.00000000000E+00 0.  1.
<scales pt_clust_3="157.04604" pt_clust_4="58.65242" pt_clust_5="14000.00000" pt_clust_6="38.99385"></scales>
<clustering>
<clus scale="   38.994">  2  6  1 -1</clus>
<clus scale="   58.652">  1  4  2 -1</clus>
<clus scale="  157.046">  2  3  1 -1</clus>
<clus scale="   58.652">  1  3  2 -1</clus>
</clustering>
</event>
<event>
 6    0  0.1221518E+003  0.1391390E+03  0.7546771E-02  0.1214492E+00
         21   -1    0    0  504  501  0.00000000000E+00  0.00000000000E+00  0.42544398825E+03  0.42544398825E+03  0.00000000000E+00 0.  1.
         21   -1    0    0  506  502 -0.00000000000E+00 -0.00000000000E+00 -0.24345661014E+03  0.24345661014E+03  0.00000000000E+00 0.  1.
         21    1    1    2  503  502  0.51445985430E+02  0.88733691980E+02  0.47636586559E+02  0.11309112206E+03  0.00000000000E+00 0.  1.
         21    1    1    2  504  503  0.34675044767E+02 -0.63775430488E+01  0.99909534015E+02  0.10594784930E+03  0.00000000000E+00 0.  1.
         21    1    1    2  505  501 -0.60766234843E+01  0.46812696336E+02  0.21140238111E+03  0.21660868088E+03  0.00000000000E+00 0.  1.
         21    1    1    2  506  505 -0.80044406713E+02 -0.12916884527E+03 -0.17696112357E+03  0.23325294615E+03  0.00000000000E+00 0.  1.
<scales pt_clust_3="14000.00000" pt_clust_4="35.25666" pt_clust_5="45.82385" pt_clust_6="139.13899"></scales>
<clustering>
<clus scale="   35.257">  1  4  2 -1</clus>
<clus scale="   45.824">  1  5  2 -1</clus>
<clus scale="  139.139">  2  6  1 -1</clus>
<clus scale="   35.257">  1  3  2 -1</clus>
</clustering>
</event>
<event>
 6    0  0.1221518E+003  0.1265816E+03  0.7546771E-02  0.1232618E+00
         21   -1    0    0  503  501  0.00000000000E+00  0.00000000000E+00  0.65343670914E+03  0.65343670914E+03  0.00000000000E+00 0. -1.
         21   -1    0    0  505  502 -0.00000000000E+00 -0.00000000000E+00 -0.26129994436E+03  0.26129994436E+03  0.00000000000E+00 0.  1.
         21    1    1    2  503  506  0.11983059484E+03 -0.40220106714E+02  0.45880000846E+03  0.47589334541E+03  0.00000000000E+00 0. -1.
         21    1    1    2  504  501  0.11540793036E+03  0.62887070666E+02  0.17680082149E+02  0.13261357153E+03  0.00000000000E+00 0.  1.
         21    1    1    2  505  504 -0.10717417582E+03 -0.48995406551E+02  0.41330715068E+02  0.12488026999E+03  0.00000000000E+00 0.  1.
         21    1    1    2  506  502 -0.12806434938E+03  0.26328442599E+02 -0.12567404090E+03  0.18134946658E+03  0.00000000000E+00 0.  1.
<scales pt_clust_3="14000.00000" pt_clust_4="100.68028" pt_clust_5="117.84250" pt_clust_6="126.58156"></scales>
<clustering>
<clus scale="  117.842">  2  5  1 -1</clus>
<clus scale="  100.680">  2  4  1 -1</clus>
<clus scale="  126.582">  2  6  1 -1</clus>
<clus scale="  126.582">  1  3  2 -1</clus>
</clustering>
</event>
<event>
 6    0  0.1221518E+003  0.7485540E+02  0.7546771E-02  0.1344319E+00
         21   -1    0    0  504  501  0.00000000000E+00  0.00000000000E+00  0.12912339451E+03  0.12912339451E+03  0.00000000000E+00 0.  1.
         21   -1    0    0  506  502 -0.00000000000E+00 -0.00000000000E+00 -0.13695061359E+04  0.13695061359E+04  0.00000000000E+00 0.  1.
         21    1    1    2  503  501  0.18721546066E+02  0.41303071122E+02  0.10060313425E+03  0.11035139597E+03  0.00000000000E+00 0.  1.
         21    1    1    2  504  502  0.68526928206E+02 -0.10490457050E+03 -0.77597777430E+03  0.78602952553E+03  0.00000000000E+00 0.  1.
         21    1    1    2  505  503 -0.68143649021E+02  0.13018150867E+02 -0.52770523824E+02  0.87165115376E+02  0.00000000000E+00 0.  1.
         21    1    1    2  506  505 -0.19104825252E+02  0.50583348515E+02 -0.51223757748E+03  0.51508349350E+03  0.00000000000E+00 0.  1.
<scales pt_clust_3="45.34799" pt_clust_4="74.85540" pt_clust_5="14000.00000" pt_clust_6="56.03141"></scales>
<clustering>
<clus scale="   45.348">  1  3  2 -1</clus>
<clus scale="   56.031">  2  6  1 -1</clus>
<clus scale="   74.855">  2  4  1 -1</clus>
<clus scale="   45.348">  1  3  2 -1</clus>
</clustering>
</event>
<event>
 6    0  0.1221518E+003  0.2204744E+03  0.7546771E-02  0.1133530E+00
         21   -1    0    0  503  501  0.00000000000E+00  0.00000000000E+00  0.13701936388E+03  0.13701936388E+03  0.00000000000E+00 0.  1.
         21   -1    0    0  506  502 -0.00000000000E+00 -0.00000000000E+00 -0.15810568247E+04  0.15810568247E+04  0.00000000000E+00 0.  1.
         21    1    1    2  503  505 -0.66768466263E+02 -0.23520549141E+03 -0.14289349024E+03  0.28319286861E+03  0.00000000000E+00 0.  1.
         21    1    1    2  504  501  0.41704240014E+02  0.12401606826E+02  0.45002103182E+02  0.62595788818E+02  0.00000000000E+00 0.  1.
         21    1    1    2  505  502 -0.26497995907E+02  0.18413145962E+03 -0.11704723202E+04  0.11851632759E+04  0.00000000000E+00 0.  1.
         21    1    1    2  506  504  0.51562222156E+02  0.38672424963E+02 -0.17567375351E+03  0.18712425518E+03  0.00000000000E+00 0.  1.
<scales pt_clust_3="220.47441" pt_clust_4="43.50912" pt_clust_5="14000.00000" pt_clust_6="67.26843"></scales>
<clustering>
<clus scale="   43.509">  1  4  2 -1</clus>
<clus scale="   67.268">  2  6  1 -1</clus>
<clus scale="  220.474">  1  3  2 -1</clus>
<clus scale="   43.509">  1  3  2 -1</clus>
</clustering>
</event>
<event>
 6    0  0.1221518E+003  0.1303777E+03  0.7546771E-02  0.1226896E+00
         21   -1    0    0  504  501  0.00000000000E+00  0.00000000000E+00  0.57170289119E+03  0.57170289119E+03  0.00000000000E+00 0.  1.
         21   -1    0    0  506  502 -0.00000000000E+00 -0.00000000000E+00 -0.53195957266E+03  0.53195957266E+03  0.00000000000E+00 0. -1.
         21    1    1    2  503  501  0.38727909503E+01  0.11008931532E+03  0.70525176586E+02  0.13079929812E+03  0.00000000000E+00 0.  1.
         21    1    1    2  504  505 -0.40273369949E+02  0.17451803236E+02  0.44080805921E+03  0.44298787210E+03  0.00000000000E+00 0.  1.
         21    1    1    2  505  502 -0.17690092248E+02 -0.17116271959E+03 -0.34012916214E+03  0.38117904308E+03  0.00000000000E+00 0. -1.
         21    1    1    2  506  503  0.54090671246E+02  0.43621601035E+02 -0.13146075512E+03  0.14869625056E+03  0.00000000000E+00 0. -1.
<scales pt_clust_3="130.37767" pt_clust_4="43.89202" pt_clust_5="14000.00000" pt_clust_6="68.18335"></scales>
<clustering>
<clus scale="   43.892">  1  4  2 -1</clus>
<clus scale="   68.183">  2  6  1 -1</clus>
<clus scale="  130.378">  1  3  2 -1</clus>
<clus scale="   43.892">  1  3  2 -1</clus>
</clustering>
</event>
<event>
 6    0  0.1221518E+003  0.1019801E+03  0.7546771E-02  0.1276186E+00
         21   -1    0    0  504  501  0.00000000000E+00  0.00000000000E+00  0.25433361405E+03  0.25433361405E+03  0.00000000000E+00 0.  1.
         21   -1    0    0  505  502 -0.00000000000E+00 -0.00000000000E+00 -0.27177449717E+03  0.27177449717E+03  0.00000000000E+00 0. -1.
         21    1    1    2  503  501 -0.58074570870E+02 -0.30180050782E+02  0.96110020191E+02  0.11627823196E+03  0.00000000000E+00 0.  1.
         21    1    1    2  504  506 -0.29795802335E+02 -0.14692516287E+02 -0.36662628506E+02  0.49475329212E+02  0.00000000000E+00 0. -1.
         21    1    1    2  505  503  0.14395223681E+03  0.48994925893E+02  0.95137634265E+02  0.17937089703E+03  0.00000000000E+00 0.  1.
         21    1    1    2  506  502 -0.56081863607E+02 -0.41223588243E+01 -0.17202590907E+03  0.18098365301E+03  0.00000000000E+00 0. -1.
<scales pt_clust_3="65.44839" pt_clust_4="32.89362" pt_clust_5="92.56608" pt_clust_6="32.89362"></scales>
<clustering>
<clus scale="   32.894">  4  6 -1 -1</clus>
<clus scale="   65.448">  1  3  2 -1</clus>
<clus scale="   92.566">  1  5  2 -1</clus>
<clus scale="   65.448">  1  3  2 -1</clus>
</clustering>
</event>
<event>
 6    0  0.1221518E+003  0.1246193E+03  0.7546771E-02  0.1235665E+00
         21   -1    0    0  506  501  0.00000000000E+00  0.00000000000E+00  0.47524514313E+02  0.47524514313E+02  0.00000000000E+00 0. -1.
         21   -1    0    0  503  502 -0.00000000000E+00 -0.00000000000E+00 -0.13476178639E+04  0.13476178639E+04  0.00000000000E+00 0. -1.
         21    1    1    2  503  505  0.38345329480E+02  0.83175976127E+02 -0.78520646106E+03  0.79053007140E+03  0.00000000000E+00 0. -1.
         21    1    1    2  504  501 -0.14449746043E+03 -0.29732942515E+02 -0.16037665668E+03  0.21790877897E+03  0.00000000000E+00 0. -1.
         21    1    1    2  505  504  0.94984497892E+02 -0.24253085867E+02 -0.33680874812E+03  0.35078540423E+03  0.00000000000E+00 0. -1.
         21    1    1    2  506  502  0.11167633063E+02 -0.29189947744E+02 -0.17701483719E+02  0.35918123606E+02  0.00000000000E+00 0.  1.
<scales pt_clust_3="90.08988" pt_clust_4="14000.00000" pt_clust_5="124.61928" pt_clust_6="31.25331"></scales>
<clustering>
<clus scale="   31.253">  1  6  2 -1</clus>
<clus scale="   90.090">  2  3  1 -1</clus>
<clus scale="  124.619">  2  5  1 -1</clus>
<clus scale="   31.253">  1  3  2 -1</clus>
</clustering>
</event>
<event>
 6    0  0.1221518E+003  0.7947636E+02  0.7546771E-02  0.1330544E+00
         21   -1    0    0  502  501  0.00000000000E+00  0.00000000000E+00  0.22453569097E+04  0.22453569097E+04  0.00000000000E+00 0.  1.
         21   -1    0    0  506  502 -0.00000000000E+00 -0.00000000000E+00 -0.20375110592E+02  0.20375110592E+02  0.00000000000E+00 0.  1.
         21    1    1    2  503  505 -0.41038350318E+02 -0.94710132940E+02  0.48006797101E+03  0.49103911480E+03  0.00000000000E+00 0.  1.
         21    1    1    2  504  501  0.38699306123E+02 -0.14053835625E+02  0.14283014524E+04  0.14288947427E+04  0.00000000000E+00 0.  1.
         21    1    1    2  505  504  0.33180370325E+02  0.35421420822E+02  0.19130345926E+03  0.19736420028E+03  0.00000000000E+00 0.  1.
         21    1    1    2  506  503 -0.30841326129E+02  0.73342547743E+02  0.12530891645E+03  0.14843396258E+03  0.00000000000E+00 0.  1.
<scales pt_clust_3="79.47636" pt_clust_4="41.17216" pt_clust_5="53.15759" pt_clust_6="14000.00000"></scales>
<clustering>
<clus scale="   41.172">  1  4  2 -1</clus>
<clus scale="   53.158">  1  5  2 -1</clus>
<clus scale="   79.476">  1  3  2 -1</clus>
<clus scale="   41.172">  1  3  2 -1</clus>
</clustering>
</event>
<event>
 6    0  0.1221518E+003  0.1160408E+03  0.7546771E-02  0.1249775E+00
         21   -1    0    0  504  501  0.00000000000E+00  0.00000000000E+00  0.18778749348E+04  0.18778749348E+04  0.00000000000E+00 0. -1.
         21   -1    0    0  506  502 -0.00000000000E+00 -0.00000000000E+00 -0.55149778216E+03  0.55149778216E+03  0.00000000000E+00 0. -1.
         21    1    1    2  503  501 -0.47989621058E+02  0.92330548027E+02  0.17175958772E+04  0.17207450512E+04  0.00000000000E+00 0. -1.
         21    1    1    2  504  505  0.33702328495E+02  0.42859532990E+02  0.72743388156E+02  0.90908674143E+02  0.00000000000E+00 0.  1.
         21    1    1    2  505  502 -0.29962431744E+02 -0.63525546667E+02 -0.51464813748E+03  0.51941885584E+03  0.00000000000E+00 0. -1.
         21    1    1    2  506  503  0.44249724307E+02 -0.71664534351E+02  0.50686024738E+02  0.98300135752E+02  0.00000000000E+00 0. -1.
<scales pt_clust_3="14000.00000" pt_clust_4="54.52327" pt_clust_5="70.16647" pt_clust_6="116.04078"></scales>
<clustering>
<clus scale="   54.523">  1  4  2 -1</clus>
<clus scale="   70.166">  2  5  1 -1</clus>
<clus scale="  116.041">  2  6  1 -1</clus>
<clus scale="   54.523">  1  3  2 -1</clus>
</clustering>
</event>
<event>
 6    0  0.1221518E+003  0.9034940E+02  0.7546771E-02  0.1302008E+00
         21   -1    0    0  506  501  0.00000000000E+00  0.00000000000E+00  0.95862968034E+03  0.95862968034E+03  0.00000000000E+00 0.  1.
         21   -1    0    0  503  502 -0.00000000000E+00 -0.00000000000E+00 -0.26876264170E+03  0.26876264170E+03  0.00000000000E+00 0.  1.
         21    1    1    2  503  504 -0.67930793652E+02 -0.60945024270E+02 -0.42994083198E+02  0.10088300104E+03  0.00000000000E+00 0.  1.
         21    1    1    2  504  501 -0.43845561383E+02  0.18791494445E+02  0.11445168948E+03  0.12399493031E+03  0.00000000000E+00 0.  1.
         21    1    1    2  505  502 -0.15760949565E+02  0.29198551254E+02 -0.18550196849E+03  0.18844612822E+03  0.00000000000E+00 0.  1.
         21    1    1    2  506  505  0.12753730460E+03  0.12954978572E+02  0.80391140085E+03  0.81406826247E+03  0.00000000000E+00 0.  1.
<scales pt_clust_3="90.34940" pt_clust_4="49.23368" pt_clust_5="33.18076" pt_clust_6="14000.00000"></scales>
<clustering>
<clus scale="   33.181">  2  5  1 -1</clus>
<clus scale="   49.234">  1  4  2 -1</clus>
<clus scale="   90.349">  2  3  1 -1</clus>
<clus scale="   49.234">  1  3  2 -1</clus>
</clustering>
</event>
<event>
 6    0  0.1221518E+003  0.1284626E+03  0.7546771E-02  0.1229755E+00
         21   -1    0    0  506  501  0.00000000000E+00  0.00000000000E+00  0.12089786902E+04  0.12089786902E+04  0.00000000000E+00 0. -1.
         21   -1    0    0  505  502 -0.00000000000E+00 -0.00000000000E+00 -0.10288903341E+04  0.10288903341E+04  0.00000000000E+00 0. -1.
         21    1    1    2  503  504 -0.45202822859E+02 -0.70145309884E+02  0.77547460551E+02  0.11391781393E+03  0.00000000000E+00 0. -1.
         21    1    1    2  504  502 -0.34524544573E+02 -0.34759809482E+01 -0.19699162952E+03  0.20002432033E+03  0.00000000000E+00 0. -1.
         21    1    1    2  505  501  0.12271849790E+03  0.10064749897E+03 -0.80385407246E+03  0.81937239311E+03  0.00000000000E+00 0. -1.
         21    1    1    2  506  503 -0.42991130465E+02 -0.27026208140E+02  0.11033865975E+04  0.11045544970E+04  0.00000000000E+00 0. -1.
<scales pt_clust_3="14000.00000" pt_clust_4="34.69909" pt_clust_5="128.46263" pt_clust_6="50.80230"></scales>
<clustering>
<clus scale="   34.699">  2  4  1 -1</clus>
<clus scale="   50.802">  1  6  2 -1</clus>
<clus scale="  128.463">  2  5  1 -1</clus>
<clus scale="   50.802">  1  3  2 -1</clus>
</clustering>
</event>
<event>
 6    0  0.1221518E+003  0.6771335E+02  0.7546771E-02  0.1368046E+00
         21   -1    0    0  506  501  0.00000000000E+00  0.00000000000E+00  0.10669388519E+03  0.10669388519E+03  0.00000000000E+00 0. -1.
         21   -1    0    0  505  502 -0.00000000000E+00 -0.00000000000E+00 -0.29980949903E+03  0.29980949903E+03  0.00000000000E+00 0. -1.
         21    1    1    2  503  502  0.34424030062E+02  0.76947424251E+02 -0.79894132276E+02  0.11614212120E+03  0.00000000000E+00 0. -1.
         21    1    1    2  504  501 -0.17433414897E+02 -0.82676523182E+02 -0.36550454430E+02  0.92061214197E+02  0.00000000000E+00 0. -1.
         21    1    1    2  505  504 -0.18503771803E+02 -0.45658541588E+02 -0.12085595083E+03  0.13051150464E+03  0.00000000000E+00 0. -1.
         21    1    1    2  506  503  0.15131566378E+01  0.51387640519E+02  0.44184923698E+02  0.67788544189E+02  0.00000000000E+00 0. -1.
<scales pt_clust_3="14000.00000" pt_clust_4="67.71335" pt_clust_5="49.26553" pt_clust_6="48.29371"></scales>
<clustering>
<clus scale="   49.266">  2  5  1 -1</clus>
<clus scale="   48.294">  1  6  2 -1</clus>
<clus scale="   67.713">  1  4  2 -1</clus>
<clus scale="   48.294">  1  3  2 -1</clus>
</clustering>
</event>
<event>
 6    0  0.1221518E+003  0.1952954E+03  0.7546771E-02  0.1153770E+00
         21   -1    0    0  503  501  0.00000000000E+00  0.00000000000E+00  0.21625643612E+03  0.21625643612E+03  0.00000000000E+00 0.  1.
         21   -1    0    0  506  502 -0.00000000000E+00 -0.00000000000E+00 -0.10341026534E+04  0.10341026534E+04  0.00000000000E+00 0.  1.
         21    1    1    2  503  502  0.18285701991E+03  0.11452378636E+03  0.10221827241E+03  0.23874874363E+03  0.00000000000E+00 0.  1.
         21    1    1    2  504  505 -0.62521772728E+02 -0.14385649918E+03 -0.21667981994E+03  0.26749543695E+03  0.00000000000E+00 0.  1.
         21    1    1    2  505  501  0.20017797714E+02 -0.26497292684E+02 -0.10311624568E+02  0.34772810444E+02  0.00000000000E+00 0.  1.
         21    1    1    2  506  504 -0.14035304489E+03  0.55830005502E+02 -0.69307304517E+03  0.70934209847E+03  0.00000000000E+00 0.  1.
<scales pt_clust_3="14000.00000" pt_clust_4="195.29535" pt_clust_5="33.20871" pt_clust_6="149.91905"></scales>
<clustering>
<clus scale="   33.209">  1  5  2 -1</clus>
<clus scale="  149.919">  2  6  1 -1</clus>
<clus scale="  195.295">  2  4  1 -1</clus>
<clus scale="   33.209">  1  3  2 -1</clus>
</clustering>
</event>
<event>
 6    0  0.1221518E+003  0.9041327E+02  0.7546771E-02  0.1301854E+00
         21   -1    0    0  506  501  0.00000000000E+00  0.00000000000E+00  0.45975741499E+03  0.45975741499E+03  0.00000000000E+00 0.  1.
         21   -1    0    0  504  502 -0.00000000000E+00 -0.00000000000E+00 -0.56252535250E+03  0.56252535250E+03  0.00000000000E+00 0.  1.
         21    1    1    2  503  502 -0.84902426486E+01 -0.41327238248E+02 -0.70493021265E+02  0.82154067997E+02  0.00000000000E+00 0.  1.
         21    1    1    2  504  505 -0.48252188604E+02 -0.29287853517E+02 -0.46354589592E+03  0.46696985951E+03  0.00000000000E+00 0.  1.
         21    1    1    2  505  501  0.52082898561E+02  0.10471982906E+03  0.15207039353E+03  0.19184440442E+03  0.00000000000E+00 0.  1.
         21    1    1    2  506  503  0.46595326917E+01 -0.34104737290E+02  0.27920058614E+03  0.28131443556E+03  0.00000000000E+00 0.  1.
<scales pt_clust_3="43.24661" pt_clust_4="90.41327" pt_clust_5="14000.00000" pt_clust_6="34.42157"></scales>
<clustering>
<clus scale="   34.422">  1  6  2 -1</clus>
<clus scale="   43.247">  2  3  1 -1</clus>
<clus scale="   90.413">  2  4  1 -1</clus>
<clus scale="   34.422">  1  3  2 -1</clus>
</clustering>
</event>
<event>
 6    0  0.1221518E+003  0.8225653E+02  0.7546771E-02  0.1322767E+00
         21   -1    0    0  506  501  0.00000000000E+00  0.00000000000E+00  0.95402739518E+02  0.95402739518E+02  0.00000000000E+00 0.  1.
         21   -1    0    0  504  502 -0.00000000000E+00 -0.00000000000E+00 -0.70983045235E+03  0.70983045235E+03  0.00000000000E+00 0. -1.
         21    1    1    2  503  501  0.60464800157E+01  0.72471403181E+02 -0.13849205792E+02  0.74030160750E+02  0.00000000000E+00 0.  1.
         21    1    1    2  504  503 -0.98407550338E+02  0.10367464974E+02 -0.50253606523E+03  0.51218553977E+03  0.00000000000E+00 0. -1.
         21    1    1    2  505  502  0.48524462297E+02 -0.43629330196E+02 -0.13472897813E+03  0.14969983113E+03  0.00000000000E+00 0.  1.
         21    1    1    2  506  505  0.43836608026E+02 -0.39209537960E+02  0.36686536318E+02  0.69317660211E+02  0.00000000000E+00 0.  1.
<scales pt_clust_3="58.08438" pt_clust_4="14000.00000" pt_clust_5="82.25653" pt_clust_6="58.81357"></scales>
<clustering>
<clus scale="   58.814">  1  6  2 -1</clus>
<clus scale="   58.084">  1  3  2 -1</clus>
<clus scale="   82.257">  1  5  2 -1</clus>
<clus scale="   58.814">  1  3  2 -1</clus>
</clustering>
</event>
<event>
 6    0  0.1221518E+003  0.9198339E+02  0.7546771E-02  0.1298118E+00
         21   -1    0    0  505  501  0.00000000000E+00  0.00000000000E+00  0.43258318219E+03  0.43258318219E+03  0.00000000000E+00 0.  1.
         21   -1    0    0  506  502 -0.00000000000E+00 -0.00000000000E+00 -0.16257714900E+03  0.16257714900E+03  0.00000000000E+00 0. -1.
         21    1    1    2  503  501 -0.25415378197E+01  0.35241604190E+02  0.22702825891E+03  0.22976131185E+03  0.00000000000E+00 0.  1.
         21    1    1    2  504  503  0.30663016195E+02 -0.52605945196E+02  0.13364894743E+03  0.14686608588E+03  0.00000000000E+00 0.  1.
         21    1    1    2  505  502  0.25564263682E+02 -0.68823923292E+02  0.11699103644E+02  0.74344690604E+02  0.00000000000E+00 0.  1.
         21    1    1    2  506  504 -0.53685742057E+02  0.86188264297E+02 -0.10237027680E+03  0.14418824285E+03  0.00000000000E+00 0. -1.
<scales pt_clust_3="35.33313" pt_clust_4="40.52993" pt_clust_5="14000.00000" pt_clust_6="91.98339"></scales>
<clustering>
<clus scale="   35.333">  1  3  2 -1</clus>
<clus scale="   40.530">  1  4  2 -1</clus>
<clus scale="   91.983">  2  6  1 -1</clus>
<clus scale="   35.333">  1  3  2 -1</clus>
</clustering>
</event>
<event>
 6    0  0.1221518E+003  0.1545198E+03  0.7546771E-02  0.1195027E+00
         21   -1    0    0  504  501  0.00000000000E+00  0.00000000000E+00  0.14499211224E+04  0.14499211224E+04  0.00000000000E+00 0. -1.
         21   -1    0    0  506  502 -0.00000000000E+00 -0.00000000000E+00 -0.58262947774E+02  0.58262947774E+02  0.00000000000E+00 0. -1.
         21    1    1    2  503  502  0.95886143501E+02 -0.17875874928E+03  0.54636872770E+03  0.58281011450E+03  0.00000000000E+00 0. -1.
         21    1    1    2  504  503 -0.25074121048E+02  0.33228241937E+02  0.54461237222E+03  0.54620093701E+03  0.00000000000E+00 0. -1.
         21    1    1    2  505  501 -0.67738695769E+02  0.96742158790E+02  0.30788575004E+03  0.32975932325E+03  0.00000000000E+00 0. -1.
         21    1    1    2  506  505 -0.30733266845E+01  0.48788348551E+02 -0.72086753646E+01  0.49413695387E+02  0.00000000000E+00 0. -1.
<scales pt_clust_3="154.51984" pt_clust_4="41.62725" pt_clust_5="14000.00000" pt_clust_6="49.69840"></scales>
<clustering>
<clus scale="   41.627">  1  4  2 -1</clus>
<clus scale="   49.698">  2  6  1 -1</clus>
<clus scale="  154.520">  1  3  2 -1</clus>
<clus scale="   41.627">  1  3  2 -1</clus>
</clustering>
</event>
<event>
 6    0  0.1221518E+003  0.8308365E+02  0.7546771E-02  0.1320521E+00
         21   -1    0    0  505  501  0.00000000000E+00  0.00000000000E+00  0.16841657687E+04  0.16841657687E+04  0.00000000000E+00 0. -1.
         21   -1    0    0  506  502 -0.00000000000E+00 -0.00000000000E+00 -0.33198373550E+03  0.33198373550E+03  0.00000000000E+00 0.  1.
         21    1    1    2  503  504  0.48766945768E+02  0.24066140632E+01  0.37777115394E+02  0.61734246883E+02  0.00000000000E+00 0. -1.
         21    1    1    2  504  501  0.32299034303E+02  0.34348639645E+02  0.13581416952E+04  0.13589598673E+04  0.00000000000E+00 0. -1.
         21    1    1    2  505  502 -0.62851729797E+02  0.55445760136E+02 -0.30578517412E+03  0.31706331381E+03  0.00000000000E+00 0.  1.
         21    1    1    2  506  503 -0.18214250273E+02 -0.92201013845E+02  0.26204839670E+03  0.27839207618E+03  0.00000000000E+00 0. -1.
<scales pt_clust_3="54.24529" pt_clust_4="47.14930" pt_clust_5="83.08365" pt_clust_6="14000.00000"></scales>
<clustering>
<clus scale="   47.149">  1  4  2 -1</clus>
<clus scale="   54.245">  1  3  2 -1</clus>
<clus scale="   83.084">  2  5  1 -1</clus>
<clus scale="   47.149">  1  3  2 -1</clus>
</clustering>
</event>
<event>
 6    0  0.1221518E+003  0.1712181E+03  0.7546771E-02  0.1176583E+00
         21   -1    0    0  506  501  0.00000000000E+00  0.00000000000E+00  0.47170287141E+03  0.47170287141E+03  0.00000000000E+00 0. -1.
         21   -1    0    0  503  502 -0.00000000000E+00 -0.00000000000E+00 -0.68691821068E+03  0.68691821068E+03  0.00000000000E+00 0. -1.
         21    1    1    2  503  504  0.37292245432E+01  0.43245710466E+02 -0.49068013119E+02  0.65511590584E+02  0.00000000000E+00 0. -1.
         21    1    1    2  504  505 -0.68899308453E+02 -0.15543992259E+03  0.15015498369E+03  0.22683739411E+03  0.00000000000E+00 0. -1.
         21    1    1    2  505  501  0.10480214515E+03  0.13885303751E+03  0.24635750803E+03  0.30158858966E+03  0.00000000000E+00 0. -1.
         21    1    1    2  506  502 -0.39632061238E+02 -0.26658825389E+02 -0.56265981787E+03  0.56468350772E+03  0.00000000000E+00 0. -1.
<scales pt_clust_3="43.40620" pt_clust_4="171.21813" pt_clust_5="14000.00000" pt_clust_6="38.24371"></scales>
<clustering>
<clus scale="   43.406">  2  3  1 -1</clus>
<clus scale="   38.244">  2  6  1 -1</clus>
<clus scale="  171.218">  2  4  1 -1</clus>
<clus scale="  171.218">  1  3  2 -1</clus>
</clustering>
</event>
<event>
 6    0  0.1221518E+003  0.6673335E+02  0.7546771E-02  0.1371567E+00
         21   -1    0    0  505  501  0.00000000000E+00  0.00000000000E+00  0.11321256091E+04  0.11321256091E+04  0.00000000000E+00 0.  1.
         21   -1    0    0  503  502 -0.00000000000E+00 -0.00000000000E+00 -0.10313066484E+04  0.10313066484E+04  0.00000000000E+00 0. -1.
         21    1    1    2  503  504  0.41571554769E+02 -0.14393116634E+02 -0.88533876136E+03  0.88643109058E+03  0.00000000000E+00 0. -1.
         21    1    1    2  504  506 -0.96318123727E+02 -0.22008704457E+02 -0.12337250470E+03  0.15805802399E+03  0.00000000000E+00 0.  1.
         21    1    1    2  505  502  0.31550966173E+02  0.84930884060E+02  0.65306571216E+03  0.65932051609E+03  0.00000000000E+00 0.  1.
         21    1    1    2  506  501  0.23195602785E+02 -0.48529062968E+02  0.45646451469E+03  0.45962262685E+03  0.00000000000E+00 0.  1.
<scales pt_clust_3="43.99268" pt_clust_4="14000.00000" pt_clust_5="66.73335" pt_clust_6="54.12434"></scales>
<clustering>
<clus scale="   43.993">  2  3  1 -1</clus>
<clus scale="   54.124">  1  6  2 -1</clus>
<clus scale="   66.733">  1  5  2 -1</clus>
<clus scale="   54.124">  1  3  2 -1</clus>
</clustering>
</event>
<event>
 6    0  0.1221518E+003  0.1128865E+03  0.7546771E-02  0.1255316E+00
         21   -1    0    0  503  501  0.00000000000E+00  0.00000000000E+00  0.61315447919E+03  0.61315447919E+03  0.00000000000E+00 0.  1.
         21   -1    0    0  505  502 -0.00000000000E+00 -0.00000000000E+00 -0.57507208032E+03  0.57507208032E+03  0.00000000000E+00 0.  1.
         21    1    1    2  503  506  0.61829546764E+02  0.33047677904E+02  0.12624144315E+03  0.14440202158E+03  0.00000000000E+00 0.  1.
         21    1    1    2  504  502 -0.17564014554E+02 -0.69303005947E+02 -0.55161153741E+03  0.55622539446E+03  0.00000000000E+00 0.  1.
         21    1    1    2  505  501 -0.85009290426E+02  0.58887856253E+02  0.34964893504E+03  0.36462136093E+03  0.00000000000E+00 0.  1.
         21    1    1    2  506  504  0.40743758215E+02 -0.22632528210E+02  0.11380355810E+03  0.12297778255E+03  0.00000000000E+00 0.  1.
<scales pt_clust_3="46.41518" pt_clust_4="71.49406" pt_clust_5="97.48207" pt_clust_6="46.41518"></scales>
<clustering>
<clus scale="   46.415">  3  6 -1 -1</clus>
<clus scale="   71.494">  2  4  1 -1</clus>
<clus scale="   97.482">  1  5  2 -1</clus>
<clus scale="   97.482">  1  3  2 -1</clus>
</clustering>
</event>
<event>
 6    0  0.1221518E+003  0.6632701E+02  0.7546771E-02  0.1373048E+00
         21   -1    0    0  504  501  0.00000000000E+00  0.00000000000E+00  0.26599677786E+03  0.26599677786E+03  0.00000000000E+00 0. -1.
         21   -1    0    0  505  502 -0.00000000000E+00 -0.00000000000E+00 -0.86543694865E+03  0.86543694865E+03  0.00000000000E+00 0.  1.
         21    1    1    2  503  502  0.36762847716E+02 -0.82536346380E+02 -0.61442105529E+02  0.10926521760E+03  0.00000000000E+00 0.  1.
         21    1    1    2  504  503  0.64368445342E+02  0.26099570662E+02  0.20972093479E+03  0.22092386660E+03  0.00000000000E+00 0. -1.
         21    1    1    2  505  506 -0.44103915183E+02  0.29371292329E+02 -0.73493020904E+03  0.73683800140E+03  0.00000000000E+00 0.  1.
         21    1    1    2  506  501 -0.57027377875E+02  0.27065483389E+02 -0.12788791010E+02  0.64406640915E+02  0.00000000000E+00 0.  1.
<scales pt_clust_3="63.65372" pt_clust_4="14000.00000" pt_clust_5="52.98894" pt_clust_6="66.32701"></scales>
<clustering>
<clus scale="   52.989">  2  5  1 -1</clus>
<clus scale="   63.654">  2  3  1 -1</clus>
<clus scale="   66.327">  2  6  1 -1</clus>
<clus scale="   66.327">  1  3  2 -1</clus>
</clustering>
</event>
<event>
 6    0  0.1221518E+003  0.1152402E+03  0.7546771E-02  0.1251162E+00
         21   -1    0    0  503  501  0.00000000000E+00  0.00000000000E+00  0.60273330212E+03  0.60273330212E+03  0.00000000000E+00 0. -1.
         21   -1    0    0  504  502 -0.00000000000E+00 -0.00000000000E+00 -0.67412867569E+03  0.67412867569E+03  0.00000000000E+00 0.  1.
         21    1    1    2  503  506  0.23916947065E-01  0.33878143198E+02  0.54598763712E+03  0.54703768522E+03  0.00000000000E+00 0. -1.
         21    1    1    2  504  505  0.10163354127E+01 -0.11265772420E+03 -0.25188981713E+03  0.27593708655E+03  0.00000000000E+00 0.  1.
         21    1    1    2  505  501 -0.87167353477E+02 -0.23683821923E+02 -0.34217388724E+02  0.96591410716E+02  0.00000000000E+00 0.  1.
         21    1    1    2  506  502  0.86127101117E+02  0.10246340292E+03 -0.33127580484E+03  0.35729579533E+03  0.00000000000E+00 0.  1.
<scales pt_clust_3="33.87815" pt_clust_4="115.24023" pt_clust_5="87.29120" pt_clust_6="14000.00000"></scales>
<clustering>
<clus scale="   33.878">  1  3  2 -1</clus>
<clus scale="   87.291">  1  5  2 -1</clus>
<clus scale="  115.240">  2  4  1 -1</clus>
<clus scale="   33.878">  1  3  2 -1</clus>
</clustering>
</event>
<event>
 6    0  0.1221518E+003  0.8870807E+02  0.7546771E-02  0.1306011E+00
         21   -1    0    0  506  501  0.00000000000E+00  0.00000000000E+00  0.48312438968E+03  0.48312438968E+03  0.00000000000E+00 0.  1.
         21   -1    0    0  503  502 -0.00000000000E+00 -0.00000000000E+00 -0.10396257110E+04  0.10396257110E+04  0.00000000000E+00 0.  1.
         21    1    1    2  503  505 -0.14203655007E+02  0.94660707470E+02 -0.32577820382E+03  0.33954945360E+03  0.00000000000E+00 0.  1.
         21    1    1    2  504  502  0.10110883389E+02 -0.47843562424E+02 -0.45701941980E+03  0.45962809586E+03  0.00000000000E+00 0.  1.
         21    1    1    2  505  501  0.67543640365E+02 -0.10794135504E+03 -0.22781967130E+03  0.26098904596E+03  0.00000000000E+00 0.  1.
         21    1    1    2  506  504 -0.63450868747E+02  0.61124209993E+02  0.45411597363E+03  0.46258350522E+03  0.00000000000E+00 0.  1.
<scales pt_clust_3="67.80560" pt_clust_4="48.90027" pt_clust_5="14000.00000" pt_clust_6="88.70807"></scales>
<clustering>
<clus scale="   48.900">  2  4  1 -1</clus>
<clus scale="   67.806">  2  3  1 -1</clus>
<clus scale="   88.708">  1  6  2 -1</clus>
<clus scale="   88.708">  1  3  2 -1</clus>
</clustering>
</event>
<event>
 6    0  0.1221518E+003  0.1056662E+03  0.7546771E-02  0.1268813E+00
         21   -1    0    0  505  501  0.00000000000E+00  0.00000000000E+00  0.24859138382E+03  0.24859138382E+03  0.00000000000E+00 0. -1.
         21   -1    0    0  504  502 -0.00000000000E+00 -0.00000000000E+00 -0.47431107760E+03  0.47431107760E+03  0.00000000000E+00 0. -1.
         21    1    1    2  503  502  0.99798177572E+02 -0.13264332081E+03  0.20377611895E+02  0.16723986926E+03  0.00000000000E+00 0. -1.
         21    1    1    2  504  506 -0.49550923148E+02  0.41804530628E+02 -0.37473918422E+03  0.38030562572E+03  0.00000000000E+00 0. -1.
         21    1    1    2  505  503 -0.46795367563E+02  0.54402343930E+02  0.46711865261E+02  0.85623710539E+02  0.00000000000E+00 0. -1.
         21    1    1    2  506  501 -0.34518868618E+01  0.36436446256E+02  0.81930013277E+02  0.89733255899E+02  0.00000000000E+00 0. -1.
<scales pt_clust_3="105.66618" pt_clust_4="65.27824" pt_clust_5="14000.00000" pt_clust_6="36.59959"></scales>
<clustering>
<clus scale="   36.600">  1  6  2 -1</clus>
<clus scale="   65.278">  2  4  1 -1</clus>
<clus scale="  105.666">  2  3  1 -1</clus>
<clus scale="   36.600">  1  3  2 -1</clus>
</clustering>
</event>
<event>
 6    0  0.1221518E+003  0.8242980E+02  0.7546771E-02  0.1322294E+00
         21   -1    0    0  505  501  0.00000000000E+00  0.00000000000E+00  0.19053175697E+03  0.19053175697E+03  0.00000000000E+00 0.  1.
         21   -1    0    0  503  502 -0.00000000000E+00 -0.00000000000E+00 -0.48452553283E+03  0.48452553283E+03  0.00000000000E+00 0.  1.
         21    1    1    2  503  501  0.42309087683E+02  0.18604280507E+01  0.24371484688E+02  0.48861941826E+02  0.00000000000E+00 0. -1.
         21    1    1    2  504  502 -0.49625526126E+01  0.30138214492E+02 -0.25175873629E+03  0.25360481107E+03  0.00000000000E+00 0.  1.
         21    1    1    2  505  506 -0.94558141081E+02 -0.66947496008E+02  0.12449806346E+03  0.17006756619E+03  0.00000000000E+00 0.  1.
         21    1    1    2  506  504  0.57211606010E+02  0.34948853466E+02 -0.19110458771E+03  0.20252297071E+03  0.00000000000E+00 0.  1.
<scales pt_clust_3="42.18846" pt_clust_4="30.54405" pt_clust_5="14000.00000" pt_clust_6="82.42980"></scales>
<clustering>
<clus scale="   30.544">  2  4  1 -1</clus>
<clus scale="   42.188">  1  3  2 -1</clus>
<clus scale="   82.430">  2  6  1 -1</clus>
<clus scale="   42.188">  1  3  2 -1</clus>
</clustering>
</event>
<event>
 6    0  0.1221518E+003  0.8182656E+02  0.7546771E-02  0.1323946E+00
         21   -1    0    0  503  501  0.00000000000E+00  0.00000000000E+00  0.10686324426E+03  0.10686324426E+03  0.00000000000E+00 0.  1.
         21   -1    0    0  504  502 -0.00000000000E+00 -0.00000000000E+00 -0.54860153875E+03  0.54860153875E+03  0.00000000000E+00 0. -1.
         21    1    1    2  503  505 -0.66897451323E+02  0.29588919443E+02  0.57594083574E+02  0.93101297575E+02  0.00000000000E+00 0.  1.
         21    1    1    2  504  506  0.59731309147E+02 -0.54756029276E+02 -0.21059142840E+03  0.22564308487E+03  0.00000000000E+00 0. -1.
         21    1    1    2  505  502  0.28345704385E+02  0.56154571918E+02 -0.29232451220E+03  0.29901577774E+03  0.00000000000E+00 0. -1.
         21    1    1    2  506  501 -0.21179562208E+02 -0.30987462085E+02  0.35835625294E+01  0.37704622823E+02  0.00000000000E+00 0.  1.
<scales pt_clust_3="14000.00000" pt_clust_4="81.82656" pt_clust_5="61.45975" pt_clust_6="37.53394"></scales>
<clustering>
<clus scale="   37.534">  1  6  2 -1</clus>
<clus scale="   61.460">  2  5  1 -1</clus>
<clus scale="   81.827">  2  4  1 -1</clus>
<clus scale="   37.534">  1  3  2 -1</clus>
</clustering>
</event>
<event>
 6    0  0.1221518E+003  0.1219004E+03  0.7546771E-02  0.1239994E+00
         21   -1    0    0  504  501  0.00000000000E+00  0.00000000000E+00  0.69744437016E+02  0.69744437016E+02  0.00000000000E+00 0.  1.
         21   -1    0    0  506  502 -0.00000000000E+00 -0.00000000000E+00 -0.69896217223E+03  0.69896217223E+03  0.00000000000E+00 0.  1.
         21    1    1    2  503  501 -0.31518835378E+02 -0.12203929896E+03 -0.41671075000E+03  0.43535603434E+03  0.00000000000E+00 0.  1.
         21    1    1    2  504  505  0.14997226128E+02  0.12037483191E+03 -0.30242027737E+02  0.12501838741E+03  0.00000000000E+00 0.  1.
         21    1    1    2  505  502  0.55275811594E+02 -0.14220749618E+02 -0.84464462505E+02  0.10194062239E+03  0.00000000000E+00 0. -1.
         21    1    1    2  506  503 -0.38754202344E+02  0.15885216674E+02 -0.97800494974E+02  0.10639156510E+03  0.00000000000E+00 0.  1.
<scales pt_clust_3="121.90042" pt_clust_4="14000.00000" pt_clust_5="50.60491" pt_clust_6="41.88351"></scales>
<clustering>
<clus scale="   41.884">  2  6  1 -1</clus>
<clus scale="   50.605">  2  5  1 -1</clus>
<clus scale="  121.900">  2  3  1 -1</clus>
<clus scale="  121.900">  1  3  2 -1</clus>
</clustering>
</event>
<event>
 6    0  0.1221518E+003  0.1482201E+03  0.7546771E-02  0.1202677E+00
         21   -1    0    0  506  501  0.00000000000E+00  0.00000000000E+00  0.54397506396E+03  0.54397506396E+03  0.00000000000E+00 0. -1.
         21   -1    0    0  501  502 -0.00000000000E+00 -0.00000000000E+00 -0.14730355280E+03  0.14730355280E+03  0.00000000000E+00 0.  1.
         21    1    1    2  503  502 -0.93627756539E+02  0.11704456338E+02 -0.48586269823E+02  0.10613094133E+03  0.00000000000E+00 0.  1.
         21    1    1    2  504  505  0.10613864365E+03 -0.29584301126E+02  0.19497834253E+03  0.22395802420E+03  0.00000000000E+00 0. -1.
         21    1    1    2  505  503 -0.30300943218E+02  0.49772748534E+02 -0.38674563613E+02  0.69937082633E+02  0.00000000000E+00 0.  1.
         21    1    1    2  506  504  0.17790056106E+02 -0.31892903746E+02  0.28895400206E+03  0.29125256860E+03  0.00000000000E+00 0. -1.
<scales pt_clust_3="50.86819" pt_clust_4="133.12201" pt_clust_5="50.86819" pt_clust_6="36.51908"></scales>
<clustering>
<clus scale="   36.519">  1  6  2 -1</clus>
<clus scale="   50.868">  3  5 -1 -1</clus>
<clus scale="  133.122">  1  4  2 -1</clus>
<clus scale="   36.519">  1  3  2 -1</clus>
</clustering>
</event>
<event>
 6    0  0.1221518E+003  0.2134336E+03  0.7546771E-02  0.1138875E+00
         21   -1    0    0  505  501  0.00000000000E+00  0.00000000000E+00  0.37969400341E+04  0.37969400341E+04  0.00000000000E+00 0. -1.
         21   -1    0    0  504  502 -0.00000000000E+00 -0.00000000000E+00 -0.30118762623E+02  0.30118762623E+02  0.00000000000E+00 0.  1.
         21    1    1    2  503  501 -0.37881045813E+02 -0.28867381946E+01  0.87444113239E+03  0.87526601722E+03  0.00000000000E+00 0. -1.
         21    1    1    2  504  503 -0.15014832224E+03 -0.12936686285E+03  0.38523634475E+03  0.43322897548E+03  0.00000000000E+00 0.  1.
         21    1    1    2  505  506  0.83239759948E+02  0.41276406027E+02  0.13360106292E+04  0.13392374699E+04  0.00000000000E+00 0. -1.
         21    1    1    2  506  502  0.10478960811E+03  0.90977195016E+02  0.11711331651E+04  0.11793263342E+04  0.00000000000E+00 0.  1.
<scales pt_clust_3="37.99088" pt_clust_4="202.50022" pt_clust_5="52.56562" pt_clust_6="52.56562"></scales>
<clustering>
<clus scale="   37.991">  1  3  2 -1</clus>
<clus scale="   52.566">  5  6 -1 -1</clus>
<clus scale="  202.500">  2  4  1 -1</clus>
<clus scale="   37.991">  1  3  2 -1</clus>
</clustering>
</event>
<event>
 6    0  0.1221518E+003  0.1155839E+03  0.7546771E-02  0.1250565E+00
         21   -1    0    0  504  501  0.00000000000E+00  0.00000000000E+00  0.13981533640E+03  0.13981533640E+03  0.00000000000E+00 0.  1.
         21   -1    0    0  503  502 -0.00000000000E+00 -0.00000000000E+00 -0.41954192680E+03  0.41954192680E+03  0.00000000000E+00 0.  1.
         21    1    1    2  503  506  0.17994402599E+02  0.49617039967E+02 -0.12270642044E+03  0.13357587655E+03  0.00000000000E+00 0.  1.
         21    1    1    2  504  505 -0.59339812833E+01 -0.39986158971E+02  0.40434439744E+02  0.57175597597E+02  0.00000000000E+00 0.  1.
         21    1    1    2  505  502 -0.57846888544E+02 -0.13371072938E+03 -0.18541036585E+03  0.23580039319E+03  0.00000000000E+00 0.  1.
         21    1    1    2  506  501  0.45786467228E+02  0.12407984839E+03 -0.12044243859E+02  0.13280539585E+03  0.00000000000E+00 0.  1.
<scales pt_clust_3="50.41600" pt_clust_4="40.42407" pt_clust_5="14000.00000" pt_clust_6="115.58387"></scales>
<clustering>
<clus scale="   40.424">  1  4  2 -1</clus>
<clus scale="   50.416">  2  3  1 -1</clus>
<clus scale="  115.584">  1  6  2 -1</clus>
<clus scale="   40.424">  1  3  2 -1</clus>
</clustering>
</event>
<event>
 6    0  0.1221518E+003  0.1555777E+03  0.7546771E-02  0.1193782E+00
         21   -1    0    0  505  501  0.00000000000E+00  0.00000000000E+00  0.80278709610E+03  0.80278709610E+03  0.00000000000E+00 0.  1.
         21   -1    0    0  503  502 -0.00000000000E+00 -0.00000000000E+00 -0.60091310696E+03  0.60091310696E+03  0.00000000000E+00 0.  1.
         21    1    1    2  503  504 -0.42045907855E+02 -0.66300776931E+02 -0.66358423413E+02  0.10279636057E+03  0.00000000000E+00 0. -1.
         21    1    1    2  504  501  0.51777844007E+02  0.19227741955E+03  0.56004678786E+03  0.59439377166E+03  0.00000000000E+00 0.  1.
         21    1    1    2  505  506  0.60580193370E+01 -0.47112005830E+02  0.20132612074E+03  0.20685368642E+03  0.00000000000E+00 0.  1.
         21    1    1    2  506  502 -0.15789955489E+02 -0.78864636789E+02 -0.49314049606E+03  0.49965638441E+03  0.00000000000E+00 0.  1.
<scales pt_clust_3="79.62628" pt_clust_4="14000.00000" pt_clust_5="47.49990" pt_clust_6="155.57766"></scales>
<clustering>
<clus scale="   47.500">  1  5  2 -1</clus>
<clus scale="   79.626">  2  3  1 -1</clus>
<clus scale="  155.578">  2  6  1 -1</clus>
<clus scale="   47.500">  1  3  2 -1</clus>
</clustering>
</event>
<event>
 6    0  0.1221518E+003  0.1248681E+03  0.7546771E-02  0.1235276E+00
         21   -1    0    0  504  501  0.00000000000E+00  0.00000000000E+00  0.12774807947E+03  0.12774807947E+03  0.00000000000E+00 0. -1.
         21   -1    0    0  506  502 -0.00000000000E+00 -0.00000000000E+00 -0.93294294538E+03  0.93294294538E+03  0.00000000000E+00 0.  1.
         21    1    1    2  503  505 -0.13040029793E+03 -0.67932020770E+02 -0.26270070579E+03  0.30104926170E+03  0.00000000000E+00 0.  1.
         21    1    1    2  504  502  0.13851907800E+03  0.53418092075E+02  0.32520401089E+02  0.15198224903E+03  0.00000000000E+00 0. -1.
         21    1    1    2  505  501 -0.32954166694E+02 -0.11680834894E+02 -0.36469206036E+01  0.35152795568E+02  0.00000000000E+00 0.  1.
         21    1    1    2  506  503  0.24835386617E+02  0.26194763590E+02 -0.57136764060E+03  0.57250671856E+03  0.00000000000E+00 0.  1.
<scales pt_clust_3="124.86807" pt_clust_4="14000.00000" pt_clust_5="34.96311" pt_clust_6="35.93825"></scales>
<clustering>
<clus scale="   34.963">  1  5  2 -1</clus>
<clus scale="   35.938">  2  6  1 -1</clus>
<clus scale="  124.868">  2  3  1 -1</clus>
<clus scale="   34.963">  1  3  2 -1</clus>
</clustering>
</event>
<event>
 6    0  0.1221518E+003  0.8799796E+02  0.7546771E-02  0.1307774E+00
         21   -1    0    0  504  501  0.00000000000E+00  0.00000000000E+00  0.86915963676E+02  0.86915963676E+02  0.00000000000E+00 0. -1.
         21   -1    0    0  506  502 -0.00000000000E+00 -0.00000000000E+00 -0.14806021188E+04  0.14806021188E+04  0.00000000000E+00 0. -1.
         21    1    1    2  503  502  0.34609288006E+02  0.58467115599E+02 -0.46823558616E+03  0.47313927185E+03  0.00000000000E+00 0. -1.
         21    1    1    2  504  505  0.38101883700E+02  0.58176663820E+02  0.56283928017E+01  0.69770742867E+02  0.00000000000E+00 0. -1.
         21    1    1    2  505  503 -0.12249932520E+03 -0.77794192877E+02 -0.94814929824E+03  0.95918982109E+03  0.00000000000E+00 0. -1.
         21    1    1    2  506  501  0.49788153491E+02 -0.38849586541E+02  0.17070336521E+02  0.65418246624E+02  0.00000000000E+00 0. -1.
<scales pt_clust_3="67.59313" pt_clust_4="87.99796" pt_clust_5="14000.00000" pt_clust_6="63.15181"></scales>
<clustering>
<clus scale="   63.152">  1  6  2 -1</clus>
<clus scale="   67.593">  2  3  1 -1</clus>
<clus scale="   87.998">  1  4  2 -1</clus>
<clus scale="   63.152">  1  3  2 -1</clus>
</clustering>
</event>
<event>
 6    0  0.1221518E+003  0.1619007E+03  0.7546771E-02  0.1186567E+00
         21   -1    0    0  505  501  0.00000000000E+00  0.00000000000E+00  0.19804984658E+03  0.19804984658E+03  0.00000000000E+00 0. -1.
         21   -1    0    0  503  502 -0.00000000000E+00 -0.00000000000E+00 -0.70029516679E+03  0.70029516679E+03  0.00000000000E+00 0. -1.
         21    1    1    2  503  506  0.12379417101E+03  0.21357065105E+02 -0.26097208646E+03  0.28963347686E+03  0.00000000000E+00 0. -1.
         21    1    1    2  504  502 -0.46566562627E+02 -0.12098588649E+03 -0.24656716312E+03  0.27857027016E+03  0.00000000000E+00 0. -1.
         21    1    1    2  505  504 -0.51612595179E+02 -0.53727187675E+02 -0.11260147177E+03  0.13501689569E+03  0.00000000000E+00 0. -1.
         21    1    1    2  506  501 -0.25615013201E+02  0.15335600906E+03  0.11789540114E+03  0.19512437067E+03  0.00000000000E+00 0. -1.
<scales pt_clust_3="125.62293" pt_clust_4="32.94326" pt_clust_5="32.94326" pt_clust_6="155.95967"></scales>
<clustering>
<clus scale="   32.943">  4  5 -1 -1</clus>
<clus scale="  125.623">  2  3  1 -1</clus>
<clus scale="  155.960">  1  6  2 -1</clus>
<clus scale="  155.960">  1  3  2 -1</clus>
</clustering>
</event>
<event>
 6    0  0.1221518E+003  0.6649556E+02  0.7546771E-02  0.1372433E+00
         21   -1    0    0  502  501  0.00000000000E+00  0.00000000000E+00  0.41089936250E+03  0.41089936250E+03  0.00000000000E+00 0. -1.
         21   -1    0    0  504  502 -0.00000000000E+00 -0.00000000000E+00 -0.13208715906E+04  0.13208715906E+04  0.00000000000E+00 0. -1.
         21    1    1    2  503  501 -0.54027944721E+02  0.72526642698E+01  0.25463910044E+03  0.26040870074E+03  0.00000000000E+00 0. -1.
         21    1    1    2  504  505  0.57532505311E+02 -0.97247150670E+01 -0.76824384628E+03  0.77045646638E+03  0.00000000000E+00 0. -1.
         21    1    1    2  505  506 -0.10256959358E+03  0.36294641092E+02 -0.52437650861E+03  0.53554509174E+03  0.00000000000E+00 0. -1.
         21    1    1    2  506  503  0.99065032994E+02 -0.33822590294E+02  0.12800902634E+03  0.16536069425E+03  0.00000000000E+00 0. -1.
<scales pt_clust_3="54.51257" pt_clust_4="14000.00000" pt_clust_5="66.49556" pt_clust_6="54.48905"></scales>
<clustering>
<clus scale="   54.513">  1  3  2 -1</clus>
<clus scale="   54.489">  1  6  2 -1</clus>
<clus scale="   66.496">  1  5  2 -1</clus>
<clus scale="   54.513">  1  3  2 -1</clus>
</clustering>
</event>
<event>
 6    0  0.1221518E+003  0.7830604E+02  0.7546771E-02  0.1333929E+00
         21   -1    0    0  503  501  0.00000000000E+00  0.00000000000E+00  0.52333428252E+03  0.52333428252E+03  0.00000000000E+00 0. -1.
         21   -1    0    0  505  502 -0.00000000000E+00 -0.00000000000E+00 -0.67582927140E+03  0.67582927140E+03  0.00000000000E+00 0.  1.
         21    1    1    2  503  502 -0.40913669219E+02 -0.41440749256E+02  0.26689629962E+03  0.27317558233E+03  0.00000000000E+00 0. -1.
         21    1    1    2  504  501  0.46893201113E+02 -0.16793836746E+01  0.21504635961E+03  0.22010617761E+03  0.00000000000E+00 0. -1.
         21    1    1    2  505  506 -0.75666371042E+02 -0.18646005137E+02 -0.60237743341E+03  0.60739743619E+03  0.00000000000E+00 0.  1.
         21    1    1    2  506  504  0.69686839148E+02  0.61766138068E+02 -0.32060214703E+02  0.98484357789E+02  0.00000000000E+00 0.  1.
<scales pt_clust_3="42.92685" pt_clust_4="46.92326" pt_clust_5="14000.00000" pt_clust_6="78.30604"></scales>
<clustering>
<clus scale="   46.923">  1  4  2 -1</clus>
<clus scale="   42.927">  1  3  2 -1</clus>
<clus scale="   78.306">  1  6  2 -1</clus>
<clus scale="   46.923">  1  3  2 -1</clus>
</clustering>
</event>
<event>
 6    0  0.1221518E+003  0.1235932E+03  0.7546771E-02  0.1237284E+00
         21   -1    0    0  503  501  0.00000000000E+00  0.00000000000E+00  0.13770404198E+04  0.13770404198E+04  0.00000000000E+00 0.  1.
         21   -1    0    0  505  502 -0.00000000000E+00 -0.00000000000E+00 -0.27639555980E+03  0.27639555980E+03  0.00000000000E+00 0.  1.
         21    1    1    2  503  504  0.81141289900E+02  0.48316940526E+02  0.10595607137E+04  0.10637609419E+04  0.00000000000E+00 0.  1.
         21    1    1    2  504  502 -0.12083362503E+03  0.70234249939E+02 -0.23827218053E+03  0.27623766365E+03  0.00000000000E+00 0.  1.
         21    1    1    2  505  506 -0.55960588833E+00 -0.36228636212E+02  0.27675949445E+02  0.45593699326E+02  0.00000000000E+00 0.  1.
         21    1    1    2  506  501  0.40251941015E+02 -0.82322554253E+02  0.25168037744E+03  0.26784367471E+03  0.00000000000E+00 0. -1.
<scales pt_clust_3="14000.00000" pt_clust_4="123.59324" pt_clust_5="36.23296" pt_clust_6="92.61377"></scales>
<clustering>
<clus scale="   36.233">  2  5  1 -1</clus>
<clus scale="   92.614">  1  6  2 -1</clus>
<clus scale="  123.593">  2  4  1 -1</clus>
<clus scale="   92.614">  1  3  2 -1</clus>
</clustering>
</event>
<event>
 6    0  0.1221518E+003  0.1244599E+03  0.7546771E-02  0.1235916E+00
         21   -1    0    0  504  501  0.00000000000E+00  0.00000000000E+00  0.19666005961E+03  0.19666005961E+03  0.00000000000E+00 0.  1.
         21   -1    0    0  505  502 -0.00000000000E+00 -0.00000000000E+00 -0.34698884821E+03  0.34698884821E+03  0.00000000000E+00 0.  1.
         21    1    1    2  503  502  0.20877031062E+02  0.34782322547E+02 -0.16262357285E+03  0.16760694149E+03  0.00000000000E+00 0.  1.
         21    1    1    2  504  503 -0.13103131474E+03  0.68950620356E+02 -0.80152683421E+02  0.16836818628E+03  0.00000000000E+00 0.  1.
         21    1    1    2  505  506  0.33912874368E+01 -0.50685771086E+02 -0.84441443935E+01  0.51496133793E+02  0.00000000000E+00 0.  1.
         21    1    1    2  506  501  0.10676299625E+03 -0.53047171816E+02  0.10089161207E+03  0.15617764626E+03  0.00000000000E+00 0.  1.
<scales pt_clust_3="40.56674" pt_clust_4="14000.00000" pt_clust_5="45.47027" pt_clust_6="124.45986"></scales>
<clustering>
<clus scale="   40.567">  2  3  1 -1</clus>
<clus scale="   45.470">  2  5  1 -1</clus>
<clus scale="  124.460">  1  6  2 -1</clus>
<clus scale="  124.460">  1  3  2 -1</clus>
</clustering>
</event>
<event>
 6    0  0.1221518E+003  0.1608659E+03  0.7546771E-02  0.1187723E+00
         21   -1    0    0  503  501  0.00000000000E+00  0.00000000000E+00  0.60326787150E+03  0.60326787150E+03  0.00000000000E+00 0. -1.
         21   -1    0    0  504  502 -0.00000000000E+00 -0.00000000000E+00 -0.10398777588E+04  0.10398777588E+04  0.00000000000E+00 0. -1.
         21    1    1    2  503  506  0.11913782183E+02  0.10477791698E+03  0.20014816139E+03  0.22622916832E+03  0.00000000000E+00 0. -1.
         21    1    1    2  504  505 -0.12370178030E+03  0.78817081462E+02 -0.47289975741E+03  0.49512467454E+03  0.00000000000E+00 0. -1.
         21    1    1    2  505  501 -0.27424838104E+01 -0.35026559147E+02  0.36188376796E+03  0.36358526177E+03  0.00000000000E+00 0. -1.
         21    1    1    2  506  502  0.11453048193E+03 -0.14856843930E+03 -0.52574205922E+03  0.55820652565E+03  0.00000000000E+00 0. -1.
<scales pt_clust_3="74.34063" pt_clust_4="160.86587" pt_clust_5="35.13376" pt_clust_6="14000.00000"></scales>
<clustering>
<clus scale="   35.134">  1  5  2 -1</clus>
<clus scale="   74.341">  1  3  2 -1</clus>
<clus scale="  160.866">  2  4  1 -1</clus>
<clus scale="   35.134">  1  3  2 -1</clus>
</clustering>
</event>
<event>
 6    0  0.1221518E+003  0.9008878E+02  0.7546771E-02  0.1302637E+00
         21   -1    0    0  506  501  0.00000000000E+00  0.00000000000E+00  0.11166002026E+02  0.11166002026E+02  0.00000000000E+00 0.  1.
         21   -1    0    0  504  502 -0.00000000000E+00 -0.00000000000E+00 -0.23841475537E+04  0.23841475537E+04  0.00000000000E+00 0.  1.
         21    1    1    2  503  502 -0.30021364575E+02  0.89820934482E+01 -0.58279993429E+03  0.58364177690E+03  0.00000000000E+00 0.  1.
         21    1    1    2  504  505  0.56114304762E+02 -0.42489747857E+02 -0.42461385546E+03  0.43040808557E+03  0.00000000000E+00 0. -1.
         21    1    1    2  505  501 -0.37843387104E+02 -0.75646880805E+02 -0.36407839404E+03  0.37377486477E+03  0.00000000000E+00 0.  1.
         21    1    1    2  506  503  0.11750446916E+02  0.10915453521E+03 -0.10014893679E+04  0.10074888285E+04  0.00000000000E+00 0.  1.
<scales pt_clust_3="31.33625" pt_clust_4="63.47068" pt_clust_5="14000.00000" pt_clust_6="90.08878"></scales>
<clustering>
<clus scale="   31.336">  2  3  1 -1</clus>
<clus scale="   63.471">  2  4  1 -1</clus>
<clus scale="   90.089">  2  6  1 -1</clus>
<clus scale="   90.089">  1  3  2 -1</clus>
</clustering>
</event>
<event>
 6    0  0.1221518E+003  0.1379433E+03  0.7546771E-02  0.1216123E+00
         21   -1    0    0  506  501  0.00000000000E+00  0.00000000000E+00  0.28872397555E+04  0.28872397555E+04  0.00000000000E+00 0.  1.
         21   -1    0    0  504  502 -0.00000000000E+00 -0.00000000000E+00 -0.22304677310E+02  0.22304677310E+02  0.00000000000E+00 0.  1.
         21    1    1    2  503  501  0.39332150111E+02  0.28150400233E+02  0.99617292108E+03  0.99734645523E+03  0.00000000000E+00 0.  1.
         21    1    1    2  504  503  0.69561000682E+02  0.27231794075E+02  0.65731772673E+03  0.66154886237E+03  0.00000000000E+00 0.  1.
         21    1    1    2  505  502 -0.12498846761E+03 -0.26391679500E+02  0.19168915742E+03  0.23035488025E+03  0.00000000000E+00 0.  1.
         21    1    1    2  506  505  0.16095316818E+02 -0.28990514807E+02  0.10197552730E+04  0.10202942350E+04  0.00000000000E+00 0.  1.
<scales pt_clust_3="43.74204" pt_clust_4="43.74204" pt_clust_5="126.69218" pt_clust_6="33.15885"></scales>
<clustering>
<clus scale="   33.159">  1  6  2 -1</clus>
<clus scale="   43.742">  3  4 -1 -1</clus>
<clus scale="  126.692">  2  5  1 -1</clus>
<clus scale="   33.159">  1  3  2 -1</clus>
</clustering>
</event>
<event>
 6    0  0.1221518E+003  0.9248196E+02  0.7546771E-02  0.1296950E+00
         21   -1    0    0  506  501  0.00000000000E+00  0.00000000000E+00  0.94649857162E+03  0.94649857162E+03  0.00000000000E+00 0. -1.
         21   -1    0    0  505  502 -0.00000000000E+00 -0.00000000000E+00 -0.17419042322E+03  0.17419042322E+03  0.00000000000E+00 0. -1.
         21    1    1    2  503  501  0.17441986127E+02  0.87665024895E+02  0.78522760743E+03  0.79029853533E+03  0.00000000000E+00 0. -1.
         21    1    1    2  504  503 -0.11221217639E+02 -0.14160444935E+03  0.86810328682E+02  0.16647452948E+03  0.00000000000E+00 0.  1.
         21    1    1    2  505  504  0.24524150583E+02  0.40098608608E+02 -0.11696017780E+03  0.12605163849E+03  0.00000000000E+00 0. -1.
         21    1    1    2  506  502 -0.30744919071E+02  0.13840815844E+02  0.17230390089E+02  0.37864291549E+02  0.00000000000E+00 0.  1.
<scales pt_clust_3="92.48196" pt_clust_4="14000.00000" pt_clust_5="50.39068" pt_clust_6="33.71674"></scales>
<clustering>
<clus scale="   33.717">  2  6  1 -1</clus>
<clus scale="   50.391">  2  5  1 -1</clus>
<clus scale="   92.482">  1  3  2 -1</clus>
<clus scale="   92.482">  1  3  2 -1</clus>
</clustering>
</event>
<event>
 6    0  0.1221518E+003  0.1019289E+03  0.7546771E-02  0.1276291E+00
         21   -1    0    0  504  501  0.00000000000E+00  0.00000000000E+00  0.19544317363E+03  0.19544317363E+03  0.00000000000E+00 0. -1.
         21   -1    0    0  503  502 -0.00000000000E+00 -0.00000000000E+00 -0.67594377581E+03  0.67594377581E+03  0.00000000000E+00 0. -1.
         21    1    1    2  503  505 -0.70140257691E+02  0.94348918565E+01 -0.53244549174E+03  0.53712835953E+03  0.00000000000E+00 0. -1.
         21    1    1    2  504  506  0.56367584465E+02  0.87275093944E+02  0.12280603744E+03  0.16085884941E+03  0.00000000000E+00 0. -1.
         21    1    1    2  505  501  0.42264997336E+02 -0.24542760558E+02  0.20967179267E+02  0.53181760990E+02  0.00000000000E+00 0. -1.
         21    1    1    2  506  502 -0.28492324110E+02 -0.72167225243E+02 -0.91828327144E+02  0.12021797951E+03  0.00000000000E+00 0. -1.
<scales pt_clust_3="70.10485" pt_clust_4="101.92894" pt_clust_5="48.87409" pt_clust_6="14000.00000"></scales>
<clustering>
<clus scale="   48.874">  1  5  2 -1</clus>
<clus scale="   70.105">  2  3  1 -1</clus>
<clus scale="  101.929">  1  4  2 -1</clus>
<clus scale="   48.874">  1  3  2 -1</clus>
</clustering>
</event>
<event>
 6    0  0.1221518E+003  0.1712943E+03  0.7546771E-02  0.1176505E+00
         21   -1    0    0  504  501  0.00000000000E+00  0.00000000000E+00  0.36393154266E+03  0.36393154266E+03  0.00000000000E+00 0.  1.
         21   -1    0    0  505  502 -0.00000000000E+00 -0.00000000000E+00 -0.15378533596E+04  0.15378533596E+04  0.00000000000E+00 0.  1.
         21    1    1    2  503  506  0.94243395015E+02  0.10109660598E+03 -0.37824194146E+03  0.40270250499E+03  0.00000000000E+00 0.  1.
         21    1    1    2  504  502 -0.34113425866E+02 -0.12017666577E+03  0.29202606181E+03  0.31762458594E+03  0.00000000000E+00 0.  1.
         21    1    1    2  505  503 -0.55708323000E+01  0.54086874663E+02 -0.11111835722E+04  0.11125130810E+04  0.00000000000E+00 0.  1.
         21    1    1    2  506  501 -0.54559136849E+02 -0.35006814881E+02  0.23477634915E+02  0.68944730349E+02  0.00000000000E+00 0. -1.
<scales pt_clust_3="171.29434" pt_clust_4="14000.00000" pt_clust_5="54.37301" pt_clust_6="63.56849"></scales>
<clustering>
<clus scale="   54.373">  2  5  1 -1</clus>
<clus scale="   63.568">  1  6  2 -1</clus>
<clus scale="  171.294">  2  3  1 -1</clus>
<clus scale="   63.568">  1  3  2 -1</clus>
</clustering>
</event>
<event>
 6    0  0.1221518E+003  0.5677697E+02  0.7546771E-02  0.1411878E+00
         21   -1    0    0  505  501  0.00000000000E+00  0.00000000000E+00  0.24171868872E+04  0.24171868872E+04  0.00000000000E+00 0. -1.
         21   -1    0    0  504  502 -0.00000000000E+00 -0.00000000000E+00 -0.50491694351E+02  0.50491694351E+02  0.00000000000E+00 0. -1.
         21    1    1    2  503  501 -0.71013360206E+02  0.48951653232E+02  0.45846753386E+02  0.97678485236E+02  0.00000000000E+00 0. -1.
         21    1    1    2  504  503  0.24233694911E+02 -0.40729646242E+02  0.73910574118E+01  0.47966694505E+02  0.00000000000E+00 0. -1.
         21    1    1    2  505  506 -0.46210279491E+02  0.20944070034E+02  0.17103815344E+04  0.17111338455E+04  0.00000000000E+00 0. -1.
         21    1    1    2  506  502  0.92989944786E+02 -0.29166077024E+02  0.60307584768E+03  0.61089955634E+03  0.00000000000E+00 0. -1.
<scales pt_clust_3="56.77697" pt_clust_4="47.39384" pt_clust_5="50.25189" pt_clust_6="14000.00000"></scales>
<clustering>
<clus scale="   47.394">  2  4  1 -1</clus>
<clus scale="   50.252">  1  5  2 -1</clus>
<clus scale="   56.777">  2  3  1 -1</clus>
<clus scale="   50.252">  1  3  2 -1</clus>
</clustering>
</event>
<event>
 6    0  0.1221518E+003  0.1459498E+03  0.7546771E-02  0.1205540E+00
         21   -1    0    0  505  501  0.00000000000E+00  0.00000000000E+00  0.42602510943E+03  0.42602510943E+03  0.00000000000E+00 0. -1.
         21   -1    0    0  504  502 -0.00000000000E+00 -0.00000000000E+00 -0.12598771736E+03  0.12598771736E+03  0.00000000000E+00 0. -1.
         21    1    1    2  503  501  0.42387737501E+01 -0.30641034915E+02  0.17549419973E+03  0.17819947913E+03  0.00000000000E+00 0. -1.
         21    1    1    2  504  503 -0.94929306909E+02 -0.12129225558E+03  0.49366748524E+02  0.16174195632E+03  0.00000000000E+00 0. -1.
         21    1    1    2  505  506  0.59185423814E+02  0.13813703781E+03  0.89388513816E+02  0.17485726182E+03  0.00000000000E+00 0. -1.
         21    1    1    2  506  502  0.31505109345E+02  0.13796252678E+02 -0.14212070006E+02  0.37214129529E+02  0.00000000000E+00 0. -1.
<scales pt_clust_3="30.93283" pt_clust_4="14000.00000" pt_clust_5="145.94979" pt_clust_6="34.03309"></scales>
<clustering>
<clus scale="   30.933">  1  3  2 -1</clus>
<clus scale="   34.033">  2  6  1 -1</clus>
<clus scale="  145.950">  1  5  2 -1</clus>
<clus scale="   30.933">  1  3  2 -1</clus>
</clustering>
</event>
<event>
 6    0  0.1221518E+003  0.1612059E+03  0.7546771E-02  0.1187342E+00
         21   -1    0    0  505  501  0.00000000000E+00  0.00000000000E+00  0.78930901865E+03  0.78930901865E+03  0.00000000000E+00 0. -1.
         21   -1    0    0  503  502 -0.00000000000E+00 -0.00000000000E+00 -0.20202258867E+03  0.20202258867E+03  0.00000000000E+00 0.  1.
         21    1    1    2  503  506  0.36853695277E+02  0.32246050879E+01  0.26942275058E+02  0.45765479555E+02  0.00000000000E+00 0. -1.
         21    1    1    2  504  502  0.28307757763E+02  0.24068590330E+02 -0.53559096243E+02  0.65185910905E+02  0.00000000000E+00 0.  1.
         21    1    1    2  505  504 -0.47133893778E+02  0.13529765101E+03 -0.82291783710E+02  0.16522407808E+03  0.00000000000E+00 0.  1.
         21    1    1    2  506  501 -0.18027559262E+02 -0.16259084643E+03  0.69619503488E+03  0.71515613878E+03  0.00000000000E+00 0. -1.
<scales pt_clust_3="36.99450" pt_clust_4="46.92205" pt_clust_5="14000.00000" pt_clust_6="161.20595"></scales>
<clustering>
<clus scale="   36.994">  2  3  1 -1</clus>
<clus scale="   46.922">  2  4  1 -1</clus>
<clus scale="  161.206">  1  6  2 -1</clus>
<clus scale="  161.206">  1  3  2 -1</clus>
</clustering>
</event>
<event>
 6    0  0.1221518E+003  0.2651110E+03  0.7546771E-02  0.1104111E+00
         21   -1    0    0  503  501  0.00000000000E+00  0.00000000000E+00  0.72620453462E+03  0.72620453462E+03  0.00000000000E+00 0.  1.
         21   -1    0    0  506  502 -0.00000000000E+00 -0.00000000000E+00 -0.16577380782E+04  0.16577380782E+04  0.00000000000E+00 0. -1.
         21    1    1    2  503  502  0.43208173011E+02  0.11816786636E+02 -0.71218558661E+03  0.71359294589E+03  0.00000000000E+00 0. -1.
         21    1    1    2  504  505 -0.18738893521E+03  0.11944723896E+03  0.14329213523E+03  0.26441424309E+03  0.00000000000E+00 0.  1.
         21    1    1    2  505  501 -0.45706243818E+02  0.20727280479E+02  0.50365204288E+03  0.50614628437E+03  0.00000000000E+00 0.  1.
         21    1    1    2  506  504  0.18988700601E+03 -0.15199130607E+03 -0.86629213505E+03  0.89978913942E+03  0.00000000000E+00 0. -1.
<scales pt_clust_3="44.79490" pt_clust_4="265.11097" pt_clust_5="50.14098" pt_clust_6="14000.00000"></scales>
<clustering>
<clus scale="   44.795">  2  3  1 -1</clus>
<clus scale="   50.141">  1  5  2 -1</clus>
<clus scale="  265.111">  1  4  2 -1</clus>
<clus scale="   50.141">  1  3  2 -1</clus>
</clustering>
</event>
<event>
 6    0  0.1221518E+003  0.2047779E+03  0.7546771E-02  0.1145769E+00
         21   -1    0    0  504  501  0.00000000000E+00  0.00000000000E+00  0.60450728052E+02  0.60450728052E+02  0.00000000000E+00 0.  1.
         21   -1    0    0  506  502 -0.00000000000E+00 -0.00000000000E+00 -0.10481567818E+04  0.10481567818E+04  0.00000000000E+00 0.  1.
         21    1    1    2  503  505  0.12246760885E+03 -0.20850908111E+02 -0.10270449808E+03  0.16118712577E+03  0.00000000000E+00 0.  1.
         21    1    1    2  504  503  0.63428267132E+02  0.61576558544E+02 -0.95187003641E+02  0.12990528587E+03  0.00000000000E+00 0.  1.
         21    1    1    2  505  502 -0.14780981547E+03 -0.63573959875E+02 -0.52841531272E+03  0.55236956165E+03  0.00000000000E+00 0.  1.
         21    1    1    2  506  501 -0.38086060514E+02  0.22848309442E+02 -0.26139923935E+03  0.26514553661E+03  0.00000000000E+00 0. -1.
<scales pt_clust_3="83.30068" pt_clust_4="83.30068" pt_clust_5="180.48850" pt_clust_6="44.41389"></scales>
<clustering>
<clus scale="   44.414">  2  6  1 -1</clus>
<clus scale="   83.301">  3  4 -1 -1</clus>
<clus scale="  180.488">  2  5  1 -1</clus>
<clus scale="  204.778">  1  3  2 -1</clus>
</clustering>
</event>
<event>
 6    0  0.1221518E+003  0.1015302E+03  0.7546771E-02  0.1277111E+00
         21   -1    0    0  505  501  0.00000000000E+00  0.00000000000E+00  0.39850868123E+03  0.39850868123E+03  0.00000000000E+00 0.  1.
         21   -1    0    0  504  502 -0.00000000000E+00 -0.00000000000E+00 -0.94623695676E+03  0.94623695676E+03  0.00000000000E+00 0. -1.
         21    1    1    2  503  501 -0.43470206009E+02 -0.66071279788E+02  0.28105983541E+03  0.29197551936E+03  0.00000000000E+00 0.  1.
         21    1    1    2  504  503  0.11662522030E+03  0.11035355788E+03 -0.45725585317E+02  0.16694363989E+03  0.00000000000E+00 0. -1.
         21    1    1    2  505  506 -0.33010678766E+02  0.46403955550E+02  0.31614927717E+02  0.65134750002E+02  0.00000000000E+00 0.  1.
         21    1    1    2  506  502 -0.40144335523E+02 -0.90686233640E+02 -0.81467745334E+03  0.82069172874E+03  0.00000000000E+00 0. -1.
<scales pt_clust_3="75.87753" pt_clust_4="14000.00000" pt_clust_5="56.94763" pt_clust_6="101.53017"></scales>
<clustering>
<clus scale="   56.948">  1  5  2 -1</clus>
<clus scale="   75.878">  1  3  2 -1</clus>
<clus scale="  101.530">  2  6  1 -1</clus>
<clus scale="   56.948">  1  3  2 -1</clus>
</clustering>
</event>
<event>
 6    0  0.1221518E+003  0.8785798E+02  0.7546771E-02  0.1308123E+00
         21   -1    0    0  504  501  0.00000000000E+00  0.00000000000E+00  0.37679432237E+03  0.37679432237E+03  0.00000000000E+00 0. -1.
         21   -1    0    0  503  502 -0.00000000000E+00 -0.00000000000E+00 -0.25090650880E+03  0.25090650880E+03  0.00000000000E+00 0.  1.
         21    1    1    2  503  506  0.26655220955E+02 -0.35674340077E+02 -0.15327653505E+03  0.15961470966E+03  0.00000000000E+00 0.  1.
         21    1    1    2  504  505 -0.75615242654E+02  0.40597829184E+02  0.28280721133E+03  0.29554317356E+03  0.00000000000E+00 0. -1.
         21    1    1    2  505  502 -0.33834266900E+02  0.56867710203E+02 -0.17137553268E+02  0.68354881409E+02  0.00000000000E+00 0. -1.
         21    1    1    2  506  501  0.82794288600E+02 -0.61791199310E+02  0.13494690563E+02  0.10418806654E+03  0.00000000000E+00 0.  1.
<scales pt_clust_3="44.53268" pt_clust_4="14000.00000" pt_clust_5="46.17868" pt_clust_6="87.85798"></scales>
<clustering>
<clus scale="   44.533">  2  3  1 -1</clus>
<clus scale="   46.179">  2  5  1 -1</clus>
<clus scale="   87.858">  2  6  1 -1</clus>
<clus scale="   87.858">  1  3  2 -1</clus>
</clustering>
</event>
<event>
 6    0  0.1221518E+003  0.1061581E+03  0.7546771E-02  0.1267855E+00
         21   -1    0    0  506  501  0.00000000000E+00  0.00000000000E+00  0.45114941439E+03  0.45114941439E+03  0.00000000000E+00 0. -1.
         21   -1    0    0  505  502 -0.00000000000E+00 -0.00000000000E+00 -0.15819854152E+03  0.15819854152E+03  0.00000000000E+00 0. -1.
         21    1    1    2  503  502  0.17388735040E+02  0.11287393774E+03 -0.86785787406E+02  0.14343872149E+03  0.00000000000E+00 0. -1.
         21    1    1    2  504  501 -0.90391326573E+01 -0.51815063672E+02  0.62402485167E+02  0.81612357505E+02  0.00000000000E+00 0. -1.
         21    1    1    2  505  504  0.91088403646E+02 -0.42578878748E+02  0.87877469254E+02  0.13353841319E+03  0.00000000000E+00 0. -1.
         21    1    1    2  506  503 -0.99438006029E+02 -0.18479995319E+02  0.22945670586E+03  0.25075846373E+03  0.00000000000E+00 0. -1.
<scales pt_clust_3="106.15807" pt_clust_4="52.59759" pt_clust_5="105.61022" pt_clust_6="14000.00000"></scales>
<clustering>
<clus scale="   52.598">  1  4  2 -1</clus>
<clus scale="  105.610">  1  5  2 -1</clus>
<clus scale="  106.158">  2  3  1 -1</clus>
<clus scale="   52.598">  1  3  2 -1</clus>
</clustering>
</event>
<event>
 6    0  0.1221518E+003  0.6868129E+02  0.7546771E-02  0.1364636E+00
         21   -1    0    0  506  501  0.00000000000E+00  0.00000000000E+00  0.16371690966E+03  0.16371690966E+03  0.00000000000E+00 0. -1.
         21   -1    0    0  505  502 -0.00000000000E+00 -0.00000000000E+00 -0.24456989841E+04  0.24456989841E+04  0.00000000000E+00 0. -1.
         21    1    1    2  503  502  0.27641635286E+02 -0.23791756164E+02 -0.12219391442E+04  0.12224832840E+04  0.00000000000E+00 0. -1.
         21    1    1    2  504  501  0.45698316978E+02  0.18377593365E+02  0.13968289404E+03  0.14811273746E+03  0.00000000000E+00 0. -1.
         21    1    1    2  505  504  0.23133590027E+02  0.65663784062E+02 -0.10421976963E+04  0.10445204324E+04  0.00000000000E+00 0. -1.
         21    1    1    2  506  503 -0.96473542291E+02 -0.60249621263E+02 -0.15752812801E+03  0.19429943988E+03  0.00000000000E+00 0. -1.
<scales pt_clust_3="36.47064" pt_clust_4="49.31307" pt_clust_5="68.68129" pt_clust_6="14000.00000"></scales>
<clustering>
<clus scale="   36.471">  2  3  1 -1</clus>
<clus scale="   49.313">  1  4  2 -1</clus>
<clus scale="   68.681">  2  5  1 -1</clus>
<clus scale="   49.313">  1  3  2 -1</clus>
</clustering>
</event>
<event>
 6    0  0.1221518E+003  0.1188683E+03  0.7546771E-02  0.1244976E+00
         21   -1    0    0  506  501  0.00000000000E+00  0.00000000000E+00  0.72218705295E+02  0.72218705295E+02  0.00000000000E+00 0.  1.
         21   -1    0    0  504  502 -0.00000000000E+00 -0.00000000000E+00 -0.34059166192E+03  0.34059166192E+03  0.00000000000E+00 0.  1.
         21    1    1    2  503  505 -0.45723441686E+02  0.21263795205E+02 -0.79621268607E+01  0.51050735257E+02  0.00000000000E+00 0.  1.
         21    1    1    2  504  503 -0.35397689973E+02 -0.17911031265E+02 -0.12561753337E+03  0.13173293508E+03  0.00000000000E+00 0. -1.
         21    1    1    2  505  501 -0.41112746720E+02  0.39356048314E+02 -0.40824414724E+02  0.70041340074E+02  0.00000000000E+00 0.  1.
         21    1    1    2  506  502  0.12223387838E+03 -0.42708812254E+02 -0.93968881668E+02  0.15998535680E+03  0.00000000000E+00 0.  1.
<scales pt_clust_3="30.75952" pt_clust_4="39.67117" pt_clust_5="30.75952" pt_clust_6="114.28821"></scales>
<clustering>
<clus scale="   30.760">  3  5 -1 -1</clus>
<clus scale="   39.671">  2  4  1 -1</clus>
<clus scale="  114.288">  2  6  1 -1</clus>
<clus scale="  118.868">  1  3  2 -1</clus>
</clustering>
</event>
<event>
 6    0  0.1221518E+003  0.9544972E+02  0.7546771E-02  0.1290166E+00
         21   -1    0    0  506  501  0.00000000000E+00  0.00000000000E+00  0.15427163655E+03  0.15427163655E+03  0.00000000000E+00 0.  1.
         21   -1    0    0  504  502 -0.00000000000E+00 -0.00000000000E+00 -0.98955361492E+03  0.98955361492E+03  0.00000000000E+00 0.  1.
         21    1    1    2  503  501  0.36908344669E+02  0.48370806161E+01  0.11663277384E+03  0.12242886583E+03  0.00000000000E+00 0.  1.
         21    1    1    2  504  503  0.84579784021E+02  0.97123400564E+01 -0.53833805810E+03  0.54502837927E+03  0.00000000000E+00 0.  1.
         21    1    1    2  505  502 -0.14887019352E+03  0.46569999958E+02 -0.35355337606E+03  0.38643380952E+03  0.00000000000E+00 0.  1.
         21    1    1    2  506  505  0.27382064833E+02 -0.61119420630E+02 -0.60023318052E+02  0.89934196848E+02  0.00000000000E+00 0. -1.
<scales pt_clust_3="37.22396" pt_clust_4="14000.00000" pt_clust_5="95.44972" pt_clust_6="73.19649"></scales>
<clustering>
<clus scale="   37.224">  1  3  2 -1</clus>
<clus scale="   73.196">  1  6  2 -1</clus>
<clus scale="   95.450">  1  5  2 -1</clus>
<clus scale="   37.224">  1  3  2 -1</clus>
</clustering>
</event>
<event>
 6    0  0.1221518E+003  0.8291746E+02  0.7546771E-02  0.1320970E+00
         21   -1    0    0  505  501  0.00000000000E+00  0.00000000000E+00  0.15183226359E+03  0.15183226359E+03  0.00000000000E+00 0.  1.
         21   -1    0    0  504  502 -0.00000000000E+00 -0.00000000000E+00 -0.21245349114E+03  0.21245349114E+03  0.00000000000E+00 0. -1.
         21    1    1    2  503  501 -0.37440751974E+02  0.16814333762E+02  0.41062605873E+02  0.58057465751E+02  0.00000000000E+00 0.  1.
         21    1    1    2  504  506  0.25852807880E+02  0.20089913036E+02 -0.55094176725E+02  0.64088537119E+02  0.00000000000E+00 0. -1.
         21    1    1    2  505  502  0.97386132368E+02 -0.56181670566E+02  0.39413263224E+02  0.11913792093E+03  0.00000000000E+00 0.  1.
         21    1    1    2  506  503 -0.85798188273E+02  0.19277423768E+02 -0.86002919917E+02  0.12300183093E+03  0.00000000000E+00 0. -1.
<scales pt_clust_3="40.22171" pt_clust_4="32.74099" pt_clust_5="82.91746" pt_clust_6="14000.00000"></scales>
<clustering>
<clus scale="   32.741">  2  4  1 -1</clus>
<clus scale="   40.222">  1  3  2 -1</clus>
<clus scale="   82.917">  1  5  2 -1</clus>
<clus scale="   40.222">  1  3  2 -1</clus>
</clustering>
</event>
<event>
 6    0  0.1221518E+003  0.1740924E+03  0.7546771E-02  0.1173646E+00
         21   -1    0    0  504  501  0.00000000000E+00  0.00000000000E+00  0.95814888366E+02  0.95814888366E+02  0.00000000000E+00 0.  1.
         21   -1    0    0  505  502 -0.00000000000E+00 -0.00000000000E+00 -0.12658845556E+04  0.12658845556E+04  0.00000000000E+00 0.  1.
         21    1    1    2  503  502  0.47315075920E+01 -0.32025169295E+02 -0.42623230965E+03  0.42745991674E+03  0.00000000000E+00 0.  1.
         21    1    1    2  504  506 -0.37571356271E+02 -0.12957558218E+02 -0.44038187143E+02  0.59320039226E+02  0.00000000000E+00 0.  1.
         21    1    1    2  505  501  0.18614847838E+03  0.98283782690E+02 -0.65908308863E+02  0.22057847384E+03  0.00000000000E+00 0.  1.
         21    1    1    2  506  503 -0.15330862970E+03 -0.53301055177E+02 -0.63389086163E+03  0.65434101421E+03  0.00000000000E+00 0.  1.
<scales pt_clust_3="32.37281" pt_clust_4="40.15844" pt_clust_5="14000.00000" pt_clust_6="174.09242"></scales>
<clustering>
<clus scale="   32.373">  2  3  1 -1</clus>
<clus scale="   40.158">  1  4  2 -1</clus>
<clus scale="  174.092">  2  6  1 -1</clus>
<clus scale="   40.158">  1  3  2 -1</clus>
</clustering>
</event>
<event>
 6    0  0.1221518E+003  0.1409457E+03  0.7546771E-02  0.1212062E+00
         21   -1    0    0  503  501  0.00000000000E+00  0.00000000000E+00  0.40896354013E+03  0.40896354013E+03  0.00000000000E+00 0.  1.
         21   -1    0    0  504  502 -0.00000000000E+00 -0.00000000000E+00 -0.18913837795E+04  0.18913837795E+04  0.00000000000E+00 0.  1.
         21    1    1    2  503  506  0.43685355532E+02  0.60469740889E+00  0.50659558872E+02  0.66896687900E+02  0.00000000000E+00 0.  1.
         21    1    1    2  504  501 -0.10493906038E+03 -0.19087401328E+03  0.27948242659E+03  0.35433814657E+03  0.00000000000E+00 0.  1.
         21    1    1    2  505  502  0.75398016144E+02  0.11830310696E+03 -0.17990791235E+04  0.18045404342E+04  0.00000000000E+00 0.  1.
         21    1    1    2  506  505 -0.14144311297E+02  0.71966208910E+02 -0.13483101321E+02  0.74572050986E+02  0.00000000000E+00 0. -1.
<scales pt_clust_3="43.68954" pt_clust_4="14000.00000" pt_clust_5="140.94565" pt_clust_6="72.75658"></scales>
<clustering>
<clus scale="   43.690">  1  3  2 -1</clus>
<clus scale="   72.757">  1  6  2 -1</clus>
<clus scale="  140.946">  2  5  1 -1</clus>
<clus scale="   43.690">  1  3  2 -1</clus>
</clustering>
</event>
<event>
 6    0  0.1221518E+003  0.1029817E+03  0.7546771E-02  0.1274148E+00
         21   -1    0    0  504  501  0.00000000000E+00  0.00000000000E+00  0.11373216413E+03  0.11373216413E+03  0.00000000000E+00 0. -1.
         21   -1    0    0  503  502 -0.00000000000E+00 -0.00000000000E+00 -0.15857214750E+04  0.15857214750E+04  0.00000000000E+00 0. -1.
         21    1    1    2  503  501  0.58465068618E+02  0.54773207502E+02 -0.15145897926E+03  0.17134202902E+03  0.00000000000E+00 0. -1.
         21    1    1    2  504  505 -0.47463483009E+02  0.33909639411E+02  0.83722611286E+02  0.10203980353E+03  0.00000000000E+00 0. -1.
         21    1    1    2  505  506 -0.85848330481E+02 -0.13215974765E+03 -0.77200859336E+03  0.78792982109E+03  0.00000000000E+00 0. -1.
         21    1    1    2  506  502  0.74846744872E+02  0.43476900735E+02 -0.63224434950E+03  0.63814198545E+03  0.00000000000E+00 0. -1.
<scales pt_clust_3="79.47809" pt_clust_4="58.33220" pt_clust_5="14000.00000" pt_clust_6="102.98175"></scales>
<clustering>
<clus scale="   58.332">  1  4  2 -1</clus>
<clus scale="   79.478">  1  3  2 -1</clus>
<clus scale="  102.982">  2  6  1 -1</clus>
<clus scale="   58.332">  1  3  2 -1</clus>
</clustering>
</event>
<event>
 6    0  0.1221518E+003  0.1078037E+03  0.7546771E-02  0.1264692E+00
         21   -1    0    0  506  501  0.00000000000E+00  0.00000000000E+00  0.36747948111E+03  0.36747948111E+03  0.00000000000E+00 0.  1.
         21   -1    0    0  504  502 -0.00000000000E+00 -0.00000000000E+00 -0.18353158807E+03  0.18353158807E+03  0.00000000000E+00 0. -1.
         21    1    1    2  503  502  0.33216018077E+02  0.22730661818E+02  0.11489639166E+02  0.41856882968E+02  0.00000000000E+00 0. -1.
         21    1    1    2  504  505 -0.11701562013E+02 -0.42296271616E+02 -0.61771747797E+02  0.75773675983E+02  0.00000000000E+00 0. -1.
         21    1    1    2  505  501  0.66065770227E+02 -0.48024444256E+02 -0.71312093275E+02  0.10842715476E+03  0.00000000000E+00 0. -1.
         21    1    1    2  506  503 -0.87580226291E+02  0.67590054054E+02  0.30554209495E+03  0.32495335547E+03  0.00000000000E+00 0.  1.
<scales pt_clust_3="40.24906" pt_clust_4="33.06324" pt_clust_5="107.80368" pt_clust_6="14000.00000"></scales>
<clustering>
<clus scale="   40.249">  2  3  1 -1</clus>
<clus scale="   33.063">  2  4  1 -1</clus>
<clus scale="  107.804">  2  5  1 -1</clus>
<clus scale="  107.804">  1  3  2 -1</clus>
</clustering>
</event>
<event>
 6    0  0.1221518E+003  0.1582536E+03  0.7546771E-02  0.1190683E+00
         21   -1    0    0  506  501  0.00000000000E+00  0.00000000000E+00  0.22144310145E+03  0.22144310145E+03  0.00000000000E+00 0.  1.
         21   -1    0    0  505  502 -0.00000000000E+00 -0.00000000000E+00 -0.35404398828E+03  0.35404398828E+03  0.00000000000E+00 0.  1.
         21    1    1    2  503  501 -0.63567760880E+02 -0.80481289430E+02  0.27470300046E+02  0.10617304534E+03  0.00000000000E+00 0.  1.
         21    1    1    2  504  503 -0.12261348470E+03  0.27531793965E+02 -0.60056542810E+01  0.12580991293E+03  0.00000000000E+00 0.  1.
         21    1    1    2  505  504  0.17714637540E+03 -0.89772106706E+01 -0.19891392197E+03  0.26651111981E+03  0.00000000000E+00 0.  1.
         21    1    1    2  506  502  0.90348701797E+01  0.61926706136E+02  0.44848389375E+02  0.76993011640E+02  0.00000000000E+00 0.  1.
<scales pt_clust_3="81.05079" pt_clust_4="14000.00000" pt_clust_5="158.25365" pt_clust_6="62.58231"></scales>
<clustering>
<clus scale="   62.582">  1  6  2 -1</clus>
<clus scale="   81.051">  1  3  2 -1</clus>
<clus scale="  158.254">  2  5  1 -1</clus>
<clus scale="   62.582">  1  3  2 -1</clus>
</clustering>
</event>
<event>
 6    0  0.1221518E+003  0.1317430E+03  0.7546771E-02  0.1224892E+00
         21   -1    0    0  505  501  0.00000000000E+00  0.00000000000E+00  0.28588820132E+03  0.28588820132E+03  0.00000000000E+00 0. -1.
         21   -1    0    0  506  502 -0.00000000000E+00 -0.00000000000E+00 -0.70855964665E+03  0.70855964665E+03  0.00000000000E+00 0.  1.
         21    1    1    2  503  502 -0.42108415274E+02  0.49541412709E+02 -0.40984488677E+02  0.76858301582E+02  0.00000000000E+00 0.  1.
         21    1    1    2  504  501 -0.71768288905E+02 -0.17122790975E+03 -0.14536767497E+03  0.23579958714E+03  0.00000000000E+00 0.  1.
         21    1    1    2  505  503  0.39667130203E+02  0.56742570076E+02  0.21186228226E+03  0.22288747637E+03  0.00000000000E+00 0. -1.
         21    1    1    2  506  504  0.74209573976E+02  0.64943926965E+02 -0.44818156395E+03  0.45890248287E+03  0.00000000000E+00 0.  1.
<scales pt_clust_3="65.01900" pt_clust_4="14000.00000" pt_clust_5="69.37482" pt_clust_6="131.74300"></scales>
<clustering>
<clus scale="   65.019">  2  3  1 -1</clus>
<clus scale="   69.375">  1  5  2 -1</clus>
<clus scale="  131.743">  2  6  1 -1</clus>
<clus scale="   69.375">  1  3  2 -1</clus>
</clustering>
</event>
<event>
 6    0  0.1221518E+003  0.1930894E+03  0.7546771E-02  0.1155704E+00
         21   -1    0    0  504  501  0.00000000000E+00  0.00000000000E+00  0.11299628713E+04  0.11299628713E+04  0.00000000000E+00 0. -1.
         21   -1    0    0  505  502 -0.00000000000E+00 -0.00000000000E+00 -0.13283076204E+03  0.13283076204E+03  0.00000000000E+00 0. -1.
         21    1    1    2  503  502  0.78013509660E+01  0.30598038944E+02 -0.76216337517E+02  0.82498673739E+02  0.00000000000E+00 0. -1.
         21    1    1    2  504  506  0.10936130879E+03 -0.16167106091E+03  0.30232946503E+03  0.35986182518E+03  0.00000000000E+00 0. -1.
         21    1    1    2  505  501 -0.17613913318E+03  0.94324109472E+02  0.65888256697E+03  0.68851163311E+03  0.00000000000E+00 0. -1.
         21    1    1    2  506  503  0.58976473430E+02  0.36748912493E+02  0.11213641473E+03  0.13192150126E+03  0.00000000000E+00 0.  1.
<scales pt_clust_3="31.57691" pt_clust_4="193.08943" pt_clust_5="14000.00000" pt_clust_6="73.81810"></scales>
<clustering>
<clus scale="   31.577">  2  3  1 -1</clus>
<clus scale="   73.818">  2  6  1 -1</clus>
<clus scale="  193.089">  2  4  1 -1</clus>
<clus scale="  193.089">  1  3  2 -1</clus>
</clustering>
</event>
<event>
 6    0  0.1221518E+003  0.1810793E+03  0.7546771E-02  0.1166763E+00
         21   -1    0    0  503  501  0.00000000000E+00  0.00000000000E+00  0.11187164537E+03  0.11187164537E+03  0.00000000000E+00 0. -1.
         21   -1    0    0  505  502 -0.00000000000E+00 -0.00000000000E+00 -0.10103839044E+04  0.10103839044E+04  0.00000000000E+00 0. -1.
         21    1    1    2  503  506  0.54991782485E+02  0.16565390107E+03 -0.11995815326E+03  0.21179062683E+03  0.00000000000E+00 0. -1.
         21    1    1    2  504  501 -0.70359708982E+02  0.15365820641E+02  0.18619343318E+02  0.74386000280E+02  0.00000000000E+00 0. -1.
         21    1    1    2  505  504  0.54211323240E+02 -0.19959410212E+03 -0.69713427462E+03  0.72716770419E+03  0.00000000000E+00 0. -1.
         21    1    1    2  506  502 -0.38843396742E+02  0.18574380409E+02 -0.10003917445E+03  0.10891121844E+03  0.00000000000E+00 0. -1.
<scales pt_clust_3="181.07926" pt_clust_4="73.30869" pt_clust_5="14000.00000" pt_clust_6="43.05598"></scales>
<clustering>
<clus scale="   43.056">  2  6  1 -1</clus>
<clus scale="   73.309">  1  4  2 -1</clus>
<clus scale="  181.079">  1  3  2 -1</clus>
<clus scale="   73.309">  1  3  2 -1</clus>
</clustering>
</event>
<event>
 6    0  0.1221518E+003  0.9366648E+02  0.7546771E-02  0.1294208E+00
         21   -1    0    0  505  501  0.00000000000E+00  0.00000000000E+00  0.32112305076E+04  0.32112305076E+04  0.00000000000E+00 0. -1.
         21   -1    0    0  504  502 -0.00000000000E+00 -0.00000000000E+00 -0.77436625335E+03  0.77436625335E+03  0.00000000000E+00 0.  1.
         21    1    1    2  503  506  0.76690067673E+02 -0.20277989517E+02 -0.40128995140E+03  0.40905523885E+03  0.00000000000E+00 0.  1.
         21    1    1    2  504  501 -0.11614903530E+03  0.71716998912E+02  0.29530466369E+03  0.32532871182E+03  0.00000000000E+00 0.  1.
         21    1    1    2  505  503  0.37903270169E+02 -0.20676015811E+02  0.28962002666E+04  0.28965220766E+04  0.00000000000E+00 0. -1.
         21    1    1    2  506  502  0.15556974563E+01 -0.30762993585E+02 -0.35335072467E+03  0.35469073373E+03  0.00000000000E+00 0.  1.
<scales pt_clust_3="14000.00000" pt_clust_4="93.66648" pt_clust_5="43.18203" pt_clust_6="30.80230"></scales>
<clustering>
<clus scale="   30.802">  2  6  1 -1</clus>
<clus scale="   43.182">  1  5  2 -1</clus>
<clus scale="   93.666">  1  4  2 -1</clus>
<clus scale="   43.182">  1  3  2 -1</clus>
</clustering>
</event>
<event>
 6    0  0.1221518E+003  0.1256669E+03  0.7546771E-02  0.1234031E+00
         21   -1    0    0  504  501  0.00000000000E+00  0.00000000000E+00  0.13120560435E+03  0.13120560435E+03  0.00000000000E+00 0. -1.
         21   -1    0    0  506  502 -0.00000000000E+00 -0.00000000000E+00 -0.17173043640E+04  0.17173043640E+04  0.00000000000E+00 0.  1.
         21    1    1    2  503  501 -0.26798315412E+02 -0.65500889157E+02  0.51547059370E+02  0.87553500894E+02  0.00000000000E+00 0. -1.
         21    1    1    2  504  502  0.83611582982E+02  0.10296530042E+02 -0.15244561368E+04  0.15267820501E+04  0.00000000000E+00 0.  1.
         21    1    1    2  505  503 -0.10307809570E+03  0.39233383323E+02  0.61231946790E+00  0.11029382174E+03  0.00000000000E+00 0. -1.
         21    1    1    2  506  505  0.46264828127E+02  0.15970975791E+02 -0.11380200165E+03  0.12388059561E+03  0.00000000000E+00 0. -1.
<scales pt_clust_3="70.40829" pt_clust_4="125.66686" pt_clust_5="14000.00000" pt_clust_6="48.94391"></scales>
<clustering>
<clus scale="   48.944">  2  6  1 -1</clus>
<clus scale="   70.408">  1  3  2 -1</clus>
<clus scale="  125.667">  2  4  1 -1</clus>
<clus scale="   70.408">  1  3  2 -1</clus>
</clustering>
</event>
<event>
 6    0  0.1221518E+003  0.6720010E+02  0.7546771E-02  0.1369882E+00
         21   -1    0    0  506  501  0.00000000000E+00  0.00000000000E+00  0.46297802095E+03  0.46297802095E+03  0.00000000000E+00 0. -1.
         21   -1    0    0  504  502 -0.00000000000E+00 -0.00000000000E+00 -0.25068104274E+03  0.25068104274E+03  0.00000000000E+00 0.  1.
         21    1    1    2  503  501 -0.18539164803E+02  0.33589775671E+02  0.29829805410E+03  0.30075522064E+03  0.00000000000E+00 0. -1.
         21    1    1    2  504  505  0.24165264419E+02  0.59140101067E+02 -0.18244036552E+03  0.19330286736E+03  0.00000000000E+00 0.  1.
         21    1    1    2  505  503  0.39168061692E+02  0.40196300719E+02  0.18286227423E+02  0.59027669457E+02  0.00000000000E+00 0.  1.
         21    1    1    2  506  502 -0.44794161308E+02 -0.13292617746E+03  0.78153062210E+02  0.16057330623E+03  0.00000000000E+00 0. -1.
<scales pt_clust_3="38.36631" pt_clust_4="67.20010" pt_clust_5="59.39184" pt_clust_6="14000.00000"></scales>
<clustering>
<clus scale="   38.366">  1  3  2 -1</clus>
<clus scale="   59.392">  1  5  2 -1</clus>
<clus scale="   67.200">  2  4  1 -1</clus>
<clus scale="   38.366">  1  3  2 -1</clus>
</clustering>
</event>
<event>
 6    0  0.1221518E+003  0.1407875E+03  0.7546771E-02  0.1212273E+00
         21   -1    0    0  505  501  0.00000000000E+00  0.00000000000E+00  0.71265297210E+03  0.71265297210E+03  0.00000000000E+00 0. -1.
         21   -1    0    0  504  502 -0.00000000000E+00 -0.00000000000E+00 -0.64226786343E+03  0.64226786343E+03  0.00000000000E+00 0.  1.
         21    1    1    2  503  501  0.12014446692E+03  0.40401175451E+01  0.32279904124E+03  0.34445643629E+03  0.00000000000E+00 0. -1.
         21    1    1    2  504  503 -0.13649842304E+03 -0.13461047065E+03  0.29957472667E+03  0.35566390759E+03  0.00000000000E+00 0. -1.
         21    1    1    2  505  506  0.92387576358E+01  0.37935043854E+02  0.39805617353E+02  0.55757594709E+02  0.00000000000E+00 0.  1.
         21    1    1    2  506  502  0.71151984815E+01  0.92635309251E+02 -0.59179427659E+03  0.59904289694E+03  0.00000000000E+00 0.  1.
<scales pt_clust_3="14000.00000" pt_clust_4="140.78746" pt_clust_5="39.04385" pt_clust_6="93.11821"></scales>
<clustering>
<clus scale="   39.044">  1  5  2 -1</clus>
<clus scale="   93.118">  2  6  1 -1</clus>
<clus scale="  140.787">  2  4  1 -1</clus>
<clus scale="   39.044">  1  3  2 -1</clus>
</clustering>
</event>
<event>
 6    0  0.1221518E+003  0.9935584E+02  0.7546771E-02  0.1281656E+00
         21   -1    0    0  504  501  0.00000000000E+00  0.00000000000E+00  0.13568644359E+04  0.13568644359E+04  0.00000000000E+00 0. -1.
         21   -1    0    0  506  502 -0.00000000000E+00 -0.00000000000E+00 -0.10581365531E+04  0.10581365531E+04  0.00000000000E+00 0. -1.
         21    1    1    2  503  501  0.39840496922E+01 -0.68219728226E+02  0.18633656864E+03  0.19847196473E+03  0.00000000000E+00 0.  1.
         21    1    1    2  504  505 -0.14756486845E+02  0.10761669298E+03  0.11280591708E+04  0.11332769296E+04  0.00000000000E+00 0. -1.
         21    1    1    2  505  502  0.60747894061E+02 -0.12178281428E+03 -0.11711517836E+03  0.17954755774E+03  0.00000000000E+00 0.  1.
         21    1    1    2  506  503 -0.49975456908E+02  0.82385849525E+02 -0.89855267819E+03  0.90370453688E+03  0.00000000000E+00 0. -1.
<scales pt_clust_3="68.33596" pt_clust_4="42.78526" pt_clust_5="99.35584" pt_clust_6="14000.00000"></scales>
<clustering>
<clus scale="   68.336">  1  3  2 -1</clus>
<clus scale="   42.785">  1  4  2 -1</clus>
<clus scale="   99.356">  1  5  2 -1</clus>
<clus scale="   68.336">  1  3  2 -1</clus>
</clustering>
</event>
<event>
 6    0  0.1221518E+003  0.8666489E+02  0.7546771E-02  0.1311135E+00
         21   -1    0    0  506  501  0.00000000000E+00  0.00000000000E+00  0.42769908659E+03  0.42769908659E+03  0.00000000000E+00 0.  1.
         21   -1    0    0  501  502 -0.00000000000E+00 -0.00000000000E+00 -0.92179266342E+02  0.92179266342E+02  0.00000000000E+00 0.  1.
         21    1    1    2  503  504  0.29835276353E+02 -0.47735838645E+02 -0.41251688484E+02  0.69789367449E+02  0.00000000000E+00 0.  1.
         21    1    1    2  504  502 -0.93231270777E+01  0.34038380812E+02  0.65406144697E+01  0.35893059280E+02  0.00000000000E+00 0.  1.
         21    1    1    2  505  503 -0.78120081974E+02 -0.48827525393E+02  0.12974704807E+03  0.15912627353E+03  0.00000000000E+00 0.  1.
         21    1    1    2  506  505  0.57607932699E+02  0.62524983226E+02  0.24048384619E+03  0.25506965267E+03  0.00000000000E+00 0.  1.
<scales pt_clust_3="32.88671" pt_clust_4="35.29210" pt_clust_5="86.66489" pt_clust_6="14000.00000"></scales>
<clustering>
<clus scale="   35.292">  2  4  1 -1</clus>
<clus scale="   32.887">  2  3  1 -1</clus>
<clus scale="   86.665">  2  5  1 -1</clus>
<clus scale="   86.665">  1  3  2 -1</clus>
</clustering>
</event>
<event>
 6    0  0.1221518E+003  0.1669226E+03  0.7546771E-02  0.1181096E+00
         21   -1    0    0  504  501  0.00000000000E+00  0.00000000000E+00  0.76480927993E+03  0.76480927993E+03  0.00000000000E+00 0. -1.
         21   -1    0    0  506  502 -0.00000000000E+00 -0.00000000000E+00 -0.18284696641E+03  0.18284696641E+03  0.00000000000E+00 0. -1.
         21    1    1    2  503  501  0.38885127803E+02 -0.14278152641E+02  0.29461180501E+03  0.29750972162E+03  0.00000000000E+00 0. -1.
         21    1    1    2  504  505 -0.66692388532E+02  0.17744495878E+03  0.38140887992E+03  0.42591938412E+03  0.00000000000E+00 0. -1.
         21    1    1    2  505  502  0.59445731761E+02 -0.14402567817E+03 -0.10223263204E+03  0.18635638452E+03  0.00000000000E+00 0. -1.
         21    1    1    2  506  503 -0.31638471032E+02 -0.19141127969E+02  0.81742606373E+01  0.37870756080E+02  0.00000000000E+00 0. -1.
<scales pt_clust_3="41.22515" pt_clust_4="14000.00000" pt_clust_5="166.92256" pt_clust_6="36.97804"></scales>
<clustering>
<clus scale="   36.978">  2  6  1 -1</clus>
<clus scale="   41.225">  1  3  2 -1</clus>
<clus scale="  166.923">  2  5  1 -1</clus>
<clus scale="   41.225">  1  3  2 -1</clus>
</clustering>
</event>
<event>
 6    0  0.1221518E+003  0.8774660E+02  0.7546771E-02  0.1308402E+00
         21   -1    0    0  505  501  0.00000000000E+00  0.00000000000E+00  0.19288848556E+04  0.19288848556E+04  0.00000000000E+00 0.  1.
         21   -1    0    0  504  502 -0.00000000000E+00 -0.00000000000E+00 -0.34514087280E+02  0.34514087280E+02  0.00000000000E+00 0.  1.
         21    1    1    2  503  501  0.29729770292E+02 -0.17923859664E+02  0.14395016084E+03  0.14807691513E+03  0.00000000000E+00 0.  1.
         21    1    1    2  504  506  0.18484874713E+02 -0.42840614954E+02  0.17078815829E+01  0.46689674901E+02  0.00000000000E+00 0.  1.
         21    1    1    2  505  502  0.20327439404E+02  0.98772458855E+02  0.15730436316E+04  0.15762726510E+04  0.00000000000E+00 0.  1.
         21    1    1    2  506  503 -0.68542084409E+02 -0.38007984236E+02  0.17566909430E+03  0.19235970185E+03  0.00000000000E+00 0.  1.
<scales pt_clust_3="34.71490" pt_clust_4="47.04246" pt_clust_5="87.74660" pt_clust_6="14000.00000"></scales>
<clustering>
<clus scale="   34.715">  1  3  2 -1</clus>
<clus scale="   47.042">  2  4  1 -1</clus>
<clus scale="   87.747">  1  5  2 -1</clus>
<clus scale="   34.715">  1  3  2 -1</clus>
</clustering>
</event>
<event>
 6    0  0.1221518E+003  0.8261925E+02  0.7546771E-02  0.1321779E+00
         21   -1    0    0  503  501  0.00000000000E+00  0.00000000000E+00  0.30293227595E+02  0.30293227595E+02  0.00000000000E+00 0.  1.
         21   -1    0    0  504  502 -0.00000000000E+00 -0.00000000000E+00 -0.19338613583E+04  0.19338613583E+04  0.00000000000E+00 0. -1.
         21    1    1    2  503  506 -0.38707823911E+02 -0.17973981935E+02 -0.16417979785E+03  0.16963597991E+03  0.00000000000E+00 0.  1.
         21    1    1    2  504  505  0.40698120804E+02  0.71211366012E+02 -0.12347570929E+04  0.12374782722E+04  0.00000000000E+00 0. -1.
         21    1    1    2  505  501  0.19937856272E+02 -0.10290442507E+03 -0.48961565021E+03  0.50070981990E+03  0.00000000000E+00 0.  1.
         21    1    1    2  506  502 -0.21928153165E+02  0.49667040997E+02 -0.15015589780E+02  0.56330513925E+02  0.00000000000E+00 0.  1.
<scales pt_clust_3="42.67739" pt_clust_4="82.61925" pt_clust_5="14000.00000" pt_clust_6="62.48773"></scales>
<clustering>
<clus scale="   42.677">  1  3  2 -1</clus>
<clus scale="   62.488">  1  6  2 -1</clus>
<clus scale="   82.619">  2  4  1 -1</clus>
<clus scale="   42.677">  1  3  2 -1</clus>
</clustering>
</event>
<event>
 6    0  0.1221518E+003  0.1226938E+03  0.7546771E-02  0.1238718E+00
         21   -1    0    0  504  501  0.00000000000E+00  0.00000000000E+00  0.46536055171E+03  0.46536055171E+03  0.00000000000E+00 0. -1.
         21   -1    0    0  505  502 -0.00000000000E+00 -0.00000000000E+00 -0.92575417707E+03  0.92575417707E+03  0.00000000000E+00 0.  1.
         21    1    1    2  503  501 -0.33501721905E+02  0.35733025008E+02  0.43572605864E+03  0.43847053792E+03  0.00000000000E+00 0. -1.
         21    1    1    2  504  506 -0.35912270449E+02  0.87987862461E+02 -0.10373255859E+03  0.14068403897E+03  0.00000000000E+00 0.  1.
         21    1    1    2  505  503  0.44527906778E+02  0.40394845284E+01 -0.15013083216E+03  0.15664711515E+03  0.00000000000E+00 0. -1.
         21    1    1    2  506  502  0.24886085576E+02 -0.12776037200E+03 -0.64225629324E+03  0.65531303674E+03  0.00000000000E+00 0.  1.
<scales pt_clust_3="48.93294" pt_clust_4="122.69376" pt_clust_5="44.71076" pt_clust_6="14000.00000"></scales>
<clustering>
<clus scale="   44.711">  2  5  1 -1</clus>
<clus scale="   48.933">  1  3  2 -1</clus>
<clus scale="  122.694">  1  4  2 -1</clus>
<clus scale="   48.933">  1  3  2 -1</clus>
</clustering>
</event>
<event>
 6    0  0.1221518E+003  0.1324620E+03  0.7546771E-02  0.1223848E+00
         21   -1    0    0  506  501  0.00000000000E+00  0.00000000000E+00  0.42288948705E+03  0.42288948705E+03  0.00000000000E+00 0. -1.
         21   -1    0    0  503  502 -0.00000000000E+00 -0.00000000000E+00 -0.10245680742E+03  0.10245680742E+03  0.00000000000E+00 0. -1.
         21    1    1    2  503  505  0.64544431596E+02 -0.12275002282E+03  0.51733580281E+02  0.14801998204E+03  0.00000000000E+00 0. -1.
         21    1    1    2  504  502 -0.40331345994E+02  0.10507889569E+02 -0.71821351616E+01  0.42292035637E+02  0.00000000000E+00 0. -1.
         21    1    1    2  505  501  0.14336643752E+02 -0.33798489735E+02  0.76947460560E+02  0.85257192946E+02  0.00000000000E+00 0. -1.
         21    1    1    2  506  504 -0.38549729354E+02  0.14604062299E+03  0.19893377395E+03  0.24977708385E+03  0.00000000000E+00 0. -1.
<scales pt_clust_3="132.46204" pt_clust_4="40.55502" pt_clust_5="36.71345" pt_clust_6="14000.00000"></scales>
<clustering>
<clus scale="   36.713">  1  5  2 -1</clus>
<clus scale="   40.555">  2  4  1 -1</clus>
<clus scale="  132.462">  2  3  1 -1</clus>
<clus scale="   36.713">  1  3  2 -1</clus>
</clustering>
</event>
<event>
 6    0  0.1221518E+003  0.7768051E+02  0.7546771E-02  0.1335766E+00
         21   -1    0    0  504  501  0.00000000000E+00  0.00000000000E+00  0.17104366666E+03  0.17104366666E+03  0.00000000000E+00 0. -1.
         21   -1    0    0  506  502 -0.00000000000E+00 -0.00000000000E+00 -0.10465059836E+04  0.10465059836E+04  0.00000000000E+00 0. -1.
         21    1    1    2  503  502 -0.15223047868E+02  0.28505927988E+02 -0.38598324260E+03  0.38733369681E+03  0.00000000000E+00 0. -1.
         21    1    1    2  504  505 -0.12847511024E+02 -0.40122850396E+02  0.21776697345E+02  0.47424953459E+02  0.00000000000E+00 0. -1.
         21    1    1    2  505  503  0.35062840494E+02 -0.10088851120E+03 -0.61823021587E+03  0.62738863098E+03  0.00000000000E+00 0. -1.
         21    1    1    2  506  501 -0.69922816024E+01  0.11250543361E+03  0.10697444417E+03  0.15540236902E+03  0.00000000000E+00 0. -1.
<scales pt_clust_3="32.31608" pt_clust_4="41.69462" pt_clust_5="77.68051" pt_clust_6="14000.00000"></scales>
<clustering>
<clus scale="   32.316">  2  3  1 -1</clus>
<clus scale="   41.695">  1  4  2 -1</clus>
<clus scale="   77.681">  2  5  1 -1</clus>
<clus scale="   41.695">  1  3  2 -1</clus>
</clustering>
</event>
<event>
 6    0  0.1221518E+003  0.1309857E+03  0.7546771E-02  0.1226000E+00
         21   -1    0    0  504  501  0.00000000000E+00  0.00000000000E+00  0.17401493190E+03  0.17401493190E+03  0.00000000000E+00 0.  1.
         21   -1    0    0  506  502 -0.00000000000E+00 -0.00000000000E+00 -0.59064100454E+03  0.59064100454E+03  0.00000000000E+00 0.  1.
         21    1    1    2  503  501 -0.32083922514E+02 -0.42591915790E+02 -0.11079032956E+03  0.12295505886E+03  0.00000000000E+00 0.  1.
         21    1    1    2  504  505  0.13346059549E+03  0.42450223863E+01  0.12733539004E+03  0.18451030410E+03  0.00000000000E+00 0.  1.
         21    1    1    2  505  502 -0.97511505901E+02 -0.10001588800E+01 -0.37026984030E+03  0.38289587193E+03  0.00000000000E+00 0.  1.
         21    1    1    2  506  503 -0.38651670739E+01  0.39347052284E+02 -0.62901292817E+02  0.74294701547E+02  0.00000000000E+00 0.  1.
<scales pt_clust_3="47.19055" pt_clust_4="130.98573" pt_clust_5="14000.00000" pt_clust_6="39.53644"></scales>
<clustering>
<clus scale="   39.536">  2  6  1 -1</clus>
<clus scale="   47.191">  2  3  1 -1</clus>
<clus scale="  130.986">  1  4  2 -1</clus>
<clus scale="  130.986">  1  3  2 -1</clus>
</clustering>
</event>
<event>
 6    0  0.1221518E+003  0.9039941E+02  0.7546771E-02  0.1301887E+00
         21   -1    0    0  505  501  0.00000000000E+00  0.00000000000E+00  0.83004382858E+03  0.83004382858E+03  0.00000000000E+00 0. -1.
         21   -1    0    0  504  502 -0.00000000000E+00 -0.00000000000E+00 -0.44179961339E+03  0.44179961339E+03  0.00000000000E+00 0. -1.
         21    1    1    2  503  506  0.27965032848E+02 -0.60736854113E+02  0.14053435610E+02  0.68326477753E+02  0.00000000000E+00 0. -1.
         21    1    1    2  504  503  0.16518692248E+02 -0.26580569866E+02 -0.36509794038E+03  0.36643676120E+03  0.00000000000E+00 0. -1.
         21    1    1    2  505  502 -0.97119058827E+02  0.83466387065E+02  0.37675432874E+02  0.13348478415E+03  0.00000000000E+00 0. -1.
         21    1    1    2  506  501  0.52635333731E+02  0.38510369131E+01  0.70161328708E+03  0.70359541887E+03  0.00000000000E+00 0. -1.
<scales pt_clust_3="90.39941" pt_clust_4="31.29527" pt_clust_5="14000.00000" pt_clust_6="52.96672"></scales>
<clustering>
<clus scale="   31.295">  2  4  1 -1</clus>
<clus scale="   52.967">  1  6  2 -1</clus>
<clus scale="   90.399">  2  3  1 -1</clus>
<clus scale="   52.967">  1  3  2 -1</clus>
</clustering>
</event>
<event>
 6    0  0.1221518E+003  0.8910840E+02  0.7546771E-02  0.1305025E+00
         21   -1    0    0  505  501  0.00000000000E+00  0.00000000000E+00  0.19452756461E+03  0.19452756461E+03  0.00000000000E+00 0. -1.
         21   -1    0    0  503  502 -0.00000000000E+00 -0.00000000000E+00 -0.17095493270E+04  0.17095493270E+04  0.00000000000E+00 0.  1.
         21    1    1    2  503  504  0.85956819095E+02  0.51969012438E+02 -0.15660879037E+04  0.15693057940E+04  0.00000000000E+00 0.  1.
         21    1    1    2  504  506 -0.49136200819E+02 -0.17279951257E+02 -0.12046670853E+03  0.13124477441E+03  0.00000000000E+00 0. -1.
         21    1    1    2  505  502 -0.19036773560E+02 -0.67360946818E+02  0.13087835112E+03  0.14842182689E+03  0.00000000000E+00 0. -1.
         21    1    1    2  506  501 -0.17783844716E+02  0.32671885637E+02  0.40654498734E+02  0.55104496289E+02  0.00000000000E+00 0. -1.
<scales pt_clust_3="89.10840" pt_clust_4="14000.00000" pt_clust_5="51.06772" pt_clust_6="37.19835"></scales>
<clustering>
<clus scale="   37.198">  1  6  2 -1</clus>
<clus scale="   51.068">  1  5  2 -1</clus>
<clus scale="   89.108">  2  3  1 -1</clus>
<clus scale="   37.198">  1  3  2 -1</clus>
</clustering>
</event>
<event>
 6    0  0.1221518E+003  0.1873408E+03  0.7546771E-02  0.1160882E+00
         21   -1    0    0  503  501  0.00000000000E+00  0.00000000000E+00  0.99362923201E+03  0.99362923201E+03  0.00000000000E+00 0. -1.
         21   -1    0    0  505  502 -0.00000000000E+00 -0.00000000000E+00 -0.11400525747E+04  0.11400525747E+04  0.00000000000E+00 0.  1.
         21    1    1    2  503  504 -0.20656716857E+03  0.73673781738E+02 -0.57530496373E+03  0.61568955045E+03  0.00000000000E+00 0.  1.
         21    1    1    2  504  502  0.60293403528E+01 -0.31353795854E+02 -0.43904625707E+03  0.44020566706E+03  0.00000000000E+00 0.  1.
         21    1    1    2  505  506  0.14123747685E+02 -0.27895753308E+02 -0.93374331059E+02  0.98470396577E+02  0.00000000000E+00 0.  1.
         21    1    1    2  506  501  0.18641408053E+03 -0.14424232576E+02  0.96130220913E+03  0.97931619265E+03  0.00000000000E+00 0. -1.
<scales pt_clust_3="14000.00000" pt_clust_4="44.73214" pt_clust_5="31.26745" pt_clust_6="187.34075"></scales>
<clustering>
<clus scale="   31.267">  2  5  1 -1</clus>
<clus scale="   44.732">  2  4  1 -1</clus>
<clus scale="  187.341">  1  6  2 -1</clus>
<clus scale="  187.341">  1  3  2 -1</clus>
</clustering>
</event>
<event>
 6    0  0.1221518E+003  0.1067174E+03  0.7546771E-02  0.1266772E+00
         21   -1    0    0  503  501  0.00000000000E+00  0.00000000000E+00  0.75581821770E+03  0.75581821770E+03  0.00000000000E+00 0.  1.
         21   -1    0    0  504  502 -0.00000000000E+00 -0.00000000000E+00 -0.44068317599E+03  0.44068317599E+03  0.00000000000E+00 0.  1.
         21    1    1    2  503  505 -0.93712165439E+02 -0.40691736166E+02  0.49008317722E+03  0.50061892487E+03  0.00000000000E+00 0.  1.
         21    1    1    2  504  501 -0.32271283658E+02 -0.35773286447E+01 -0.41023143296E+03  0.41151435165E+03  0.00000000000E+00 0.  1.
         21    1    1    2  505  506  0.10213474026E+03  0.69007492192E+02  0.20129450531E+03  0.23603605025E+03  0.00000000000E+00 0.  1.
         21    1    1    2  506  502  0.23848708841E+02 -0.24738427381E+02  0.33988792136E+02  0.48332066928E+02  0.00000000000E+00 0.  1.
<scales pt_clust_3="14000.00000" pt_clust_4="32.46895" pt_clust_5="106.71738" pt_clust_6="30.23308"></scales>
<clustering>
<clus scale="   32.469">  2  4  1 -1</clus>
<clus scale="   30.233">  2  6  1 -1</clus>
<clus scale="  106.717">  2  5  1 -1</clus>
<clus scale="  106.717">  1  3  2 -1</clus>
</clustering>
</event>
<event>
 6    0  0.1221518E+003  0.3084519E+03  0.7546771E-02  0.1081090E+00
         21   -1    0    0  506  501  0.00000000000E+00  0.00000000000E+00  0.23481977719E+04  0.23481977719E+04  0.00000000000E+00 0. -1.
         21   -1    0    0  505  502 -0.00000000000E+00 -0.00000000000E+00 -0.40187937697E+03  0.40187937697E+03  0.00000000000E+00 0.  1.
         21    1    1    2  503  502 -0.32916372990E+03  0.11904190592E+02  0.16509475865E+04  0.16834840077E+04  0.00000000000E+00 0. -1.
         21    1    1    2  504  501  0.93140779643E+02  0.38709506736E+02  0.10287374820E+03  0.14407164472E+03  0.00000000000E+00 0.  1.
         21    1    1    2  505  504  0.27661134996E+03 -0.71541578332E+02 -0.30790232031E+03  0.42004270641E+03  0.00000000000E+00 0.  1.
         21    1    1    2  506  503 -0.40588399701E+02  0.20927881004E+02  0.50039938054E+03  0.50247879004E+03  0.00000000000E+00 0. -1.
<scales pt_clust_3="41.37087" pt_clust_4="100.86442" pt_clust_5="287.74566" pt_clust_6="41.37087"></scales>
<clustering>
<clus scale="   41.371">  3  6 -1 -1</clus>
<clus scale="  100.864">  1  4  2 -1</clus>
<clus scale="  287.746">  2  5  1 -1</clus>
<clus scale="  100.864">  1  3  2 -1</clus>
</clustering>
</event>
<event>
 6    0  0.1221518E+003  0.1466840E+03  0.7546771E-02  0.1204608E+00
         21   -1    0    0  504  501  0.00000000000E+00  0.00000000000E+00  0.35846062145E+03  0.35846062145E+03  0.00000000000E+00 0. -1.
         21   -1    0    0  505  502 -0.00000000000E+00 -0.00000000000E+00 -0.37119477641E+03  0.37119477641E+03  0.00000000000E+00 0. -1.
         21    1    1    2  503  501 -0.22075425582E+02 -0.84347618892E+02  0.80358626171E+02  0.11857214693E+03  0.00000000000E+00 0. -1.
         21    1    1    2  504  506  0.16339768546E+03 -0.19316922399E+02  0.18791643157E+03  0.24976895796E+03  0.00000000000E+00 0. -1.
         21    1    1    2  505  503 -0.39124445562E+02  0.68118884306E+02 -0.22734599274E+03  0.24053503914E+03  0.00000000000E+00 0. -1.
         21    1    1    2  506  502 -0.10219781431E+03  0.35545656986E+02 -0.53663219959E+02  0.12077925384E+03  0.00000000000E+00 0. -1.
<scales pt_clust_3="79.76351" pt_clust_4="14000.00000" pt_clust_5="78.55511" pt_clust_6="146.68396"></scales>
<clustering>
<clus scale="   78.555">  2  5  1 -1</clus>
<clus scale="   79.764">  1  3  2 -1</clus>
<clus scale="  146.684">  2  6  1 -1</clus>
<clus scale="   79.764">  1  3  2 -1</clus>
</clustering>
</event>
<event>
 6    0  0.1221518E+003  0.7003967E+02  0.7546771E-02  0.1359958E+00
         21   -1    0    0  504  501  0.00000000000E+00  0.00000000000E+00  0.59847815355E+03  0.59847815355E+03  0.00000000000E+00 0.  1.
         21   -1    0    0  503  502 -0.00000000000E+00 -0.00000000000E+00 -0.53005043767E+03  0.53005043767E+03  0.00000000000E+00 0. -1.
         21    1    1    2  503  506 -0.23583527910E+02  0.86731321089E+02 -0.19186397264E+03  0.21187328488E+03  0.00000000000E+00 0. -1.
         21    1    1    2  504  505  0.13105211313E+02  0.43631059099E+02  0.56925961867E+03  0.57107961733E+03  0.00000000000E+00 0.  1.
         21    1    1    2  505  502  0.12403121400E+02 -0.60948968578E+02 -0.23914656730E+03  0.24710259983E+03  0.00000000000E+00 0. -1.
         21    1    1    2  506  501 -0.19248048032E+01 -0.69413411610E+02 -0.69821362840E+02  0.98473089185E+02  0.00000000000E+00 0. -1.
<scales pt_clust_3="70.03967" pt_clust_4="45.55673" pt_clust_5="14000.00000" pt_clust_6="47.56690"></scales>
<clustering>
<clus scale="   45.557">  1  4  2 -1</clus>
<clus scale="   47.567">  1  6  2 -1</clus>
<clus scale="   70.040">  1  3  2 -1</clus>
<clus scale="   45.557">  1  3  2 -1</clus>
</clustering>
</event>
<event>
 6    0  0.1221518E+003  0.1095748E+03  0.7546771E-02  0.1261359E+00
         21   -1    0    0  504  501  0.00000000000E+00  0.00000000000E+00  0.60688756063E+03  0.60688756063E+03  0.00000000000E+00 0.  1.
         21   -1    0    0  503  502 -0.00000000000E+00 -0.00000000000E+00 -0.33445573480E+03  0.33445573480E+03  0.00000000000E+00 0.  1.
         21    1    1    2  503  505 -0.11336062002E+03  0.40307093167E+02 -0.30164224484E+03  0.32475119061E+03  0.00000000000E+00 0.  1.
         21    1    1    2  504  502  0.52045267558E+02  0.92384673683E+01  0.46875339597E+03  0.47172428959E+03  0.00000000000E+00 0.  1.
         21    1    1    2  505  506  0.56458656230E+02 -0.16459977878E+02  0.38918289413E+02  0.70520521736E+02  0.00000000000E+00 0.  1.
         21    1    1    2  506  501  0.48566962303E+01 -0.33085582658E+02  0.66402385280E+02  0.74347293488E+02  0.00000000000E+00 0.  1.
<scales pt_clust_3="14000.00000" pt_clust_4="59.66894" pt_clust_5="109.57480" pt_clust_6="33.44014"></scales>
<clustering>
<clus scale="   33.440">  1  6  2 -1</clus>
<clus scale="   59.669">  1  4  2 -1</clus>
<clus scale="  109.575">  1  5  2 -1</clus>
<clus scale="   33.440">  1  3  2 -1</clus>
</clustering>
</event>
<event>
 6    0  0.1221518E+003  0.8227434E+02  0.7546771E-02  0.1322718E+00
         21   -1    0    0  504  501  0.00000000000E+00  0.00000000000E+00  0.39269033775E+03  0.39269033775E+03  0.00000000000E+00 0.  1.
         21   -1    0    0  503  502 -0.00000000000E+00 -0.00000000000E+00 -0.19931726932E+04  0.19931726932E+04  0.00000000000E+00 0. -1.
         21    1    1    2  503  505  0.71085933972E+02  0.52748269735E+02 -0.18126227729E+04  0.18147828814E+04  0.00000000000E+00 0. -1.
         21    1    1    2  504  506  0.46285323609E+02  0.42956101988E+01  0.12254210727E+03  0.13106239546E+03  0.00000000000E+00 0.  1.
         21    1    1    2  505  501 -0.90880823885E+02 -0.73096980319E+02  0.25041618841E+03  0.27624402274E+03  0.00000000000E+00 0.  1.
         21    1    1    2  506  502 -0.26490433697E+02  0.16053100386E+02 -0.16081787826E+03  0.16377373134E+03  0.00000000000E+00 0. -1.
<scales pt_clust_3="14000.00000" pt_clust_4="46.42632" pt_clust_5="82.27434" pt_clust_6="30.97491"></scales>
<clustering>
<clus scale="   30.975">  2  6  1 -1</clus>
<clus scale="   46.426">  1  4  2 -1</clus>
<clus scale="   82.274">  1  5  2 -1</clus>
<clus scale="   46.426">  1  3  2 -1</clus>
</clustering>
</event>
<event>
 6    0  0.1221518E+003  0.9063947E+02  0.7546771E-02  0.1301310E+00
         21   -1    0    0  504  501  0.00000000000E+00  0.00000000000E+00  0.17148280958E+03  0.17148280958E+03  0.00000000000E+00 0. -1.
         21   -1    0    0  506  502 -0.00000000000E+00 -0.00000000000E+00 -0.45623168336E+03  0.45623168336E+03  0.00000000000E+00 0.  1.
         21    1    1    2  503  501 -0.29366521108E+02  0.37665957067E+02  0.12989455075E+03  0.13839693348E+03  0.00000000000E+00 0. -1.
         21    1    1    2  504  505  0.85892658593E+02 -0.33876591895E+01 -0.12576278062E+03  0.15233286587E+03  0.00000000000E+00 0.  1.
         21    1    1    2  505  502  0.31322910734E+02  0.52184567524E+01 -0.21028102102E+03  0.21266514719E+03  0.00000000000E+00 0.  1.
         21    1    1    2  506  503 -0.87849048219E+02 -0.39496754630E+02 -0.78599622880E+02  0.12431954640E+03  0.00000000000E+00 0.  1.
<scales pt_clust_3="47.50048" pt_clust_4="14000.00000" pt_clust_5="31.75464" pt_clust_6="90.63947"></scales>
<clustering>
<clus scale="   31.755">  2  5  1 -1</clus>
<clus scale="   47.500">  1  3  2 -1</clus>
<clus scale="   90.639">  2  6  1 -1</clus>
<clus scale="   47.500">  1  3  2 -1</clus>
</clustering>
</event>
<event>
 6    0  0.1221518E+003  0.1047735E+03  0.7546771E-02  0.1270566E+00
         21   -1    0    0  503  501  0.00000000000E+00  0.00000000000E+00  0.10753557263E+03  0.10753557263E+03  0.00000000000E+00 0.  1.
         21   -1    0    0  504  502 -0.00000000000E+00 -0.00000000000E+00 -0.33377669359E+03  0.33377669359E+03  0.00000000000E+00 0.  1.
         21    1    1    2  503  506  0.22938123182E+02  0.42830628573E+02  0.32748393276E+02  0.58592469664E+02  0.00000000000E+00 0.  1.
         21    1    1    2  504  505 -0.25447988668E+02  0.30965651199E+02 -0.87773880495E+02  0.96492102157E+02  0.00000000000E+00 0.  1.
         21    1    1    2  505  501 -0.75597448269E+02  0.42192998777E+02 -0.43692995000E+02  0.96975776061E+02  0.00000000000E+00 0.  1.
         21    1    1    2  506  502  0.78107313755E+02 -0.11598927855E+03 -0.12752263875E+03  0.18925191833E+03  0.00000000000E+00 0.  1.
<scales pt_clust_3="49.44321" pt_clust_4="40.08081" pt_clust_5="14000.00000" pt_clust_6="104.77354"></scales>
<clustering>
<clus scale="   40.081">  2  4  1 -1</clus>
<clus scale="   49.443">  1  3  2 -1</clus>
<clus scale="  104.774">  2  6  1 -1</clus>
<clus scale="   49.443">  1  3  2 -1</clus>
</clustering>
</event>
<event>
 6    0  0.1221518E+003  0.1004091E+03  0.7546771E-02  0.1279438E+00
         21   -1    0    0  503  501  0.00000000000E+00  0.00000000000E+00  0.59482895014E+03  0.59482895014E+03  0.00000000000E+00 0. -1.
         21   -1    0    0  504  502 -0.00000000000E+00 -0.00000000000E+00 -0.61440571774E+03  0.61440571774E+03  0.00000000000E+00 0.  1.
         21    1    1    2  503  506 -0.34383492214E+02  0.68073398140E+02  0.52661688695E+03  0.53211047508E+03  0.00000000000E+00 0. -1.
         21    1    1    2  504  505  0.15267425670E+02 -0.13907927104E+03 -0.35284508681E+03  0.37957317240E+03  0.00000000000E+00 0.  1.
         21    1    1    2  505  501  0.30649080980E+02  0.31523300239E+02  0.40701497834E+02  0.59914076383E+02  0.00000000000E+00 0. -1.
         21    1    1    2  506  502 -0.11533014436E+02  0.39482572663E+02 -0.23405006557E+03  0.23763694401E+03  0.00000000000E+00 0.  1.
<scales pt_clust_3="100.40912" pt_clust_4="14000.00000" pt_clust_5="44.49046" pt_clust_6="41.13252"></scales>
<clustering>
<clus scale="   41.133">  2  6  1 -1</clus>
<clus scale="   44.490">  1  5  2 -1</clus>
<clus scale="  100.409">  1  3  2 -1</clus>
<clus scale="   44.490">  1  3  2 -1</clus>
</clustering>
</event>
<event>
 6    0  0.1221518E+003  0.1587216E+03  0.7546771E-02  0.1190148E+00
         21   -1    0    0  504  501  0.00000000000E+00  0.00000000000E+00  0.31231831632E+03  0.31231831632E+03  0.00000000000E+00 0. -1.
         21   -1    0    0  501  502 -0.00000000000E+00 -0.00000000000E+00 -0.22826437607E+03  0.22826437607E+03  0.00000000000E+00 0.  1.
         21    1    1    2  503  506  0.14331172126E+03  0.71835429273E+02 -0.72141324685E+02  0.17579234646E+03  0.00000000000E+00 0.  1.
         21    1    1    2  504  503 -0.25678748424E+02 -0.32963951890E+02  0.20819458041E+03  0.21234642346E+03  0.00000000000E+00 0. -1.
         21    1    1    2  505  502 -0.27659022117E+02 -0.44365656844E+02 -0.27299417038E+02  0.58979582758E+02  0.00000000000E+00 0. -1.
         21    1    1    2  506  505 -0.89973950714E+02  0.54941794608E+01 -0.24699898438E+02  0.93464339713E+02  0.00000000000E+00 0.  1.
<scales pt_clust_3="141.44202" pt_clust_4="41.78541" pt_clust_5="55.53310" pt_clust_6="55.53310"></scales>
<clustering>
<clus scale="   41.785">  1  4  2 -1</clus>
<clus scale="   55.533">  5  6 -1 -1</clus>
<clus scale="  141.442">  1  3  2 -1</clus>
<clus scale="   41.785">  1  3  2 -1</clus>
</clustering>
</event>
<event>
 6    0  0.1221518E+003  0.1217104E+03  0.7546771E-02  0.1240302E+00
         21   -1    0    0  504  501  0.00000000000E+00  0.00000000000E+00  0.78916584345E+03  0.78916584345E+03  0.00000000000E+00 0. -1.
         21   -1    0    0  505  502 -0.00000000000E+00 -0.00000000000E+00 -0.60694116789E+03  0.60694116789E+03  0.00000000000E+00 0. -1.
         21    1    1    2  503  501 -0.26869576623E+02  0.69305708941E+02  0.12157967502E+03  0.14250218531E+03  0.00000000000E+00 0. -1.
         21    1    1    2  504  506  0.65319689041E+02 -0.29027865411E+02  0.59780809706E+03  0.60206627513E+03  0.00000000000E+00 0. -1.
         21    1    1    2  505  503 -0.49140989742E+02  0.10824188098E+03 -0.47590379194E+03  0.49052580039E+03  0.00000000000E+00 0. -1.
         21    1    1    2  506  502  0.10690877324E+02 -0.14851972451E+03 -0.61259304587E+02  0.16101275050E+03  0.00000000000E+00 0.  1.
<scales pt_clust_3="52.49760" pt_clust_4="71.47922" pt_clust_5="121.71043" pt_clust_6="14000.00000"></scales>
<clustering>
<clus scale="   71.479">  1  4  2 -1</clus>
<clus scale="   52.498">  1  3  2 -1</clus>
<clus scale="  121.710">  2  5  1 -1</clus>
<clus scale="   71.479">  1  3  2 -1</clus>
</clustering>
</event>
<event>
 6    0  0.1221518E+003  0.7775222E+02  0.7546771E-02  0.1335554E+00
         21   -1    0    0  503  501  0.00000000000E+00  0.00000000000E+00  0.84111207667E+02  0.84111207667E+02  0.00000000000E+00 0.  1.
         21   -1    0    0  504  502 -0.00000000000E+00 -0.00000000000E+00 -0.15717833794E+04  0.15717833794E+04  0.00000000000E+00 0.  1.
         21    1    1    2  503  505 -0.73789625259E+02  0.69439465689E+02 -0.13458256900E+03  0.16846131921E+03  0.00000000000E+00 0.  1.
         21    1    1    2  504  506  0.10311020936E+03 -0.39203383725E+02 -0.11411421238E+04  0.11464614984E+04  0.00000000000E+00 0.  1.
         21    1    1    2  505  502 -0.60328589090E+02 -0.11719455953E+02 -0.26763374302E+03  0.27459917100E+03  0.00000000000E+00 0.  1.
         21    1    1    2  506  501  0.31008004992E+02 -0.18516626011E+02  0.55686264120E+02  0.66372598443E+02  0.00000000000E+00 0.  1.
<scales pt_clust_3="77.75222" pt_clust_4="14000.00000" pt_clust_5="57.51131" pt_clust_6="36.11595"></scales>
<clustering>
<clus scale="   36.116">  1  6  2 -1</clus>
<clus scale="   57.511">  2  5  1 -1</clus>
<clus scale="   77.752">  1  3  2 -1</clus>
<clus scale="   36.116">  1  3  2 -1</clus>
</clustering>
</event>
<event>
 6    0  0.1221518E+003  0.7145334E+02  0.7546771E-02  0.1355219E+00
         21   -1    0    0  504  501  0.00000000000E+00  0.00000000000E+00  0.58188826203E+03  0.58188826203E+03  0.00000000000E+00 0. -1.
         21   -1    0    0  503  502 -0.00000000000E+00 -0.00000000000E+00 -0.26428275996E+03  0.26428275996E+03  0.00000000000E+00 0. -1.
         21    1    1    2  503  505 -0.58010499271E+02 -0.23267482311E+02 -0.14856114226E+03  0.16117384015E+03  0.00000000000E+00 0. -1.
         21    1    1    2  504  502  0.59472701523E+02  0.95434674982E+02  0.42337892099E+03  0.43805763337E+03  0.00000000000E+00 0. -1.
         21    1    1    2  505  506  0.43199126007E+02 -0.48356648772E+02 -0.86495893830E+02  0.10810212587E+03  0.00000000000E+00 0. -1.
         21    1    1    2  506  501 -0.44661328260E+02 -0.23810543899E+02  0.12928361717E+03  0.13883742259E+03  0.00000000000E+00 0. -1.
<scales pt_clust_3="63.21134" pt_clust_4="71.45334" pt_clust_5="14000.00000" pt_clust_6="50.61202"></scales>
<clustering>
<clus scale="   50.612">  1  6  2 -1</clus>
<clus scale="   63.211">  2  3  1 -1</clus>
<clus scale="   71.453">  1  4  2 -1</clus>
<clus scale="   50.612">  1  3  2 -1</clus>
</clustering>
</event>
<event>
 6    0  0.1221518E+003  0.6923987E+02  0.7546771E-02  0.1362697E+00
         21   -1    0    0  503  501  0.00000000000E+00  0.00000000000E+00  0.12574492770E+03  0.12574492770E+03  0.00000000000E+00 0. -1.
         21   -1    0    0  506  502 -0.00000000000E+00 -0.00000000000E+00 -0.40055483149E+03  0.40055483149E+03  0.00000000000E+00 0. -1.
         21    1    1    2  503  502 -0.89125251863E+01  0.52510096459E+02 -0.89907751474E+01  0.54014603331E+02  0.00000000000E+00 0. -1.
         21    1    1    2  504  505  0.38308985555E+02 -0.13644945775E+03 -0.55153067506E+02  0.15207857755E+03  0.00000000000E+00 0. -1.
         21    1    1    2  505  501 -0.27667497749E+02  0.20271322800E+02  0.45082364468E+02  0.56646593417E+02  0.00000000000E+00 0. -1.
         21    1    1    2  506  504 -0.17289626196E+01  0.63668038488E+02 -0.25574842561E+03  0.26355998489E+03  0.00000000000E+00 0. -1.
<scales pt_clust_3="61.08491" pt_clust_4="14000.00000" pt_clust_5="34.29894" pt_clust_6="69.23987"></scales>
<clustering>
<clus scale="   34.299">  1  5  2 -1</clus>
<clus scale="   61.085">  1  3  2 -1</clus>
<clus scale="   69.240">  2  6  1 -1</clus>
<clus scale="   34.299">  1  3  2 -1</clus>
</clustering>
</event>
<event>
 6    0  0.1221518E+003  0.1269876E+03  0.7546771E-02  0.1231995E+00
         21   -1    0    0  505  501  0.00000000000E+00  0.00000000000E+00  0.14762601477E+03  0.14762601477E+03  0.00000000000E+00 0.  1.
         21   -1    0    0  503  502 -0.00000000000E+00 -0.00000000000E+00 -0.46179142800E+03  0.46179142800E+03  0.00000000000E+00 0. -1.
         21    1    1    2  503  506 -0.24076941186E+02  0.96004495833E+02 -0.43497068630E+02  0.10811363141E+03  0.00000000000E+00 0.  1.
         21    1    1    2  504  502  0.34526109724E+02 -0.95837525678E+02 -0.33765597885E+03  0.35268745886E+03  0.00000000000E+00 0. -1.
         21    1    1    2  505  504 -0.15434256420E+02 -0.64815790846E+02  0.43888064651E+02  0.79783865744E+02  0.00000000000E+00 0.  1.
         21    1    1    2  506  501  0.49850878817E+01  0.64648820691E+02  0.23099569601E+02  0.68832486761E+02  0.00000000000E+00 0.  1.
<scales pt_clust_3="55.60594" pt_clust_4="106.79873" pt_clust_5="66.62809" pt_clust_6="55.60594"></scales>
<clustering>
<clus scale="   55.606">  3  6 -1 -1</clus>
<clus scale="   66.628">  1  5  2 -1</clus>
<clus scale="  106.799">  2  4  1 -1</clus>
<clus scale="   66.628">  1  3  2 -1</clus>
</clustering>
</event>
<event>
 6    0  0.1221518E+003  0.6734889E+02  0.7546771E-02  0.1369348E+00
         21   -1    0    0  504  501  0.00000000000E+00  0.00000000000E+00  0.10758614680E+03  0.10758614680E+03  0.00000000000E+00 0. -1.
         21   -1    0    0  503  502 -0.00000000000E+00 -0.00000000000E+00 -0.90849917764E+03  0.90849917764E+03  0.00000000000E+00 0. -1.
         21    1    1    2  503  506 -0.47901943961E+02 -0.38886957232E+02 -0.39043347344E+03  0.39527849532E+03  0.00000000000E+00 0. -1.
         21    1    1    2  504  505  0.61931221166E+01 -0.33619713542E+02 -0.37295111666E+01  0.34388212424E+02  0.00000000000E+00 0.  1.
         21    1    1    2  505  502  0.65261745651E+02  0.10392283909E+03 -0.48424071117E+03  0.49954791390E+03  0.00000000000E+00 0. -1.
         21    1    1    2  506  501 -0.23552923806E+02 -0.31416168316E+02  0.77490664942E+02  0.86870702798E+02  0.00000000000E+00 0. -1.
<scales pt_clust_3="62.13434" pt_clust_4="34.18538" pt_clust_5="67.34889" pt_clust_6="14000.00000"></scales>
<clustering>
<clus scale="   34.185">  1  4  2 -1</clus>
<clus scale="   62.134">  2  3  1 -1</clus>
<clus scale="   67.349">  2  5  1 -1</clus>
<clus scale="   34.185">  1  3  2 -1</clus>
</clustering>
</event>
<event>
 6    0  0.1221518E+003  0.1664851E+03  0.7546771E-02  0.1181564E+00
         21   -1    0    0  503  501  0.00000000000E+00  0.00000000000E+00  0.58313406640E+03  0.58313406640E+03  0.00000000000E+00 0.  1.
         21   -1    0    0  504  502 -0.00000000000E+00 -0.00000000000E+00 -0.72133774410E+02  0.72133774410E+02  0.00000000000E+00 0.  1.
         21    1    1    2  503  506 -0.44261257395E+02 -0.12742664076E+02  0.11122988320E+03  0.12038904149E+03  0.00000000000E+00 0.  1.
         21    1    1    2  504  505  0.24414118860E+02  0.21658170395E+02 -0.18175675475E+02  0.37356133681E+02  0.00000000000E+00 0.  1.
         21    1    1    2  505  501  0.76355024707E+02  0.11229882901E+03  0.19753902358E+03  0.23971396003E+03  0.00000000000E+00 0.  1.
         21    1    1    2  506  502 -0.56507886172E+02 -0.12121433533E+03  0.22040706069E+03  0.25780870561E+03  0.00000000000E+00 0.  1.
<scales pt_clust_3="41.92773" pt_clust_4="32.63626" pt_clust_5="150.88308" pt_clust_6="41.92773"></scales>
<clustering>
<clus scale="   32.636">  2  4  1 -1</clus>
<clus scale="   41.928">  3  6 -1 -1</clus>
<clus scale="  150.883">  1  5  2 -1</clus>
<clus scale="  150.883">  1  3  2 -1</clus>
</clustering>
</event>
<event>
 6    0  0.1221518E+003  0.1708890E+03  0.7546771E-02  0.1176924E+00
         21   -1    0    0  503  501  0.00000000000E+00  0.00000000000E+00  0.63344084839E+03  0.63344084839E+03  0.00000000000E+00 0. -1.
         21   -1    0    0  504  502 -0.00000000000E+00 -0.00000000000E+00 -0.13176009213E+04  0.13176009213E+04  0.00000000000E+00 0. -1.
         21    1    1    2  503  502 -0.50159103371E+02  0.96159179633E+02 -0.96009459863E+03  0.96620089101E+03  0.00000000000E+00 0. -1.
         21    1    1    2  504  505  0.38155860422E+02  0.81399436903E+02 -0.32009845185E+03  0.33248271667E+03  0.00000000000E+00 0.  1.
         21    1    1    2  505  506 -0.88110087297E+02 -0.10005545259E+03  0.24089109708E+03  0.27532344929E+03  0.00000000000E+00 0. -1.
         21    1    1    2  506  501  0.10011333025E+03 -0.77503163946E+02  0.35514188048E+03  0.37703471271E+03  0.00000000000E+00 0. -1.
<scales pt_clust_3="170.88902" pt_clust_4="89.89849" pt_clust_5="14000.00000" pt_clust_6="126.39399"></scales>
<clustering>
<clus scale="   89.898">  2  4  1 -1</clus>
<clus scale="  126.394">  1  6  2 -1</clus>
<clus scale="  170.889">  2  3  1 -1</clus>
<clus scale="  126.394">  1  3  2 -1</clus>
</clustering>
</event>
<event>
 6    0  0.1221518E+003  0.9067505E+02  0.7546771E-02  0.1301225E+00
         21   -1    0    0  506  501  0.00000000000E+00  0.00000000000E+00  0.97246884604E+03  0.97246884604E+03  0.00000000000E+00 0.  1.
         21   -1    0    0  505  502 -0.00000000000E+00 -0.00000000000E+00 -0.41603853786E+02  0.41603853786E+02  0.00000000000E+00 0.  1.
         21    1    1    2  503  502 -0.12371686390E+02  0.32764746635E+02  0.32392451043E+02  0.47705954877E+02  0.00000000000E+00 0. -1.
         21    1    1    2  504  503 -0.53629223121E+02  0.36286736991E+02  0.54515395555E+03  0.54898602542E+03  0.00000000000E+00 0.  1.
         21    1    1    2  505  501  0.10824285835E+03 -0.31396773902E+02  0.79863955326E+02  0.13813227413E+03  0.00000000000E+00 0.  1.
         21    1    1    2  506  504 -0.42241948841E+02 -0.37654709724E+02  0.27345463033E+03  0.27924844539E+03  0.00000000000E+00 0.  1.
<scales pt_clust_3="35.02267" pt_clust_4="14000.00000" pt_clust_5="90.67505" pt_clust_6="55.58615"></scales>
<clustering>
<clus scale="   35.023">  2  3  1 -1</clus>
<clus scale="   55.586">  1  6  2 -1</clus>
<clus scale="   90.675">  2  5  1 -1</clus>
<clus scale="   55.586">  1  3  2 -1</clus>
</clustering>
</event>
<event>
 6    0  0.1221518E+003  0.1588234E+03  0.7546771E-02  0.1190032E+00
         21   -1    0    0  503  501  0.00000000000E+00  0.00000000000E+00  0.69892901113E+03  0.69892901113E+03  0.00000000000E+00 0.  1.
         21   -1    0    0  505  502 -0.00000000000E+00 -0.00000000000E+00 -0.83659400863E+03  0.83659400863E+03  0.00000000000E+00 0.  1.
         21    1    1    2  503  504  0.62334668583E+02 -0.14693715306E+03 -0.13335545601E+03  0.20798994087E+03  0.00000000000E+00 0.  1.
         21    1    1    2  504  502 -0.33369183063E+02 -0.17589376571E+01 -0.21663455880E+03  0.21919655176E+03  0.00000000000E+00 0.  1.
         21    1    1    2  505  506 -0.89691385608E+02  0.11949779489E+03 -0.43374717922E+03  0.45876015859E+03  0.00000000000E+00 0. -1.
         21    1    1    2  506  501  0.60725900088E+02  0.29198295829E+02  0.64607219653E+03  0.64957636853E+03  0.00000000000E+00 0.  1.
<scales pt_clust_3="14000.00000" pt_clust_4="33.41551" pt_clust_5="158.82342" pt_clust_6="67.29351"></scales>
<clustering>
<clus scale="   33.416">  2  4  1 -1</clus>
<clus scale="   67.294">  1  6  2 -1</clus>
<clus scale="  158.823">  2  5  1 -1</clus>
<clus scale="   67.294">  1  3  2 -1</clus>
</clustering>
</event>
<event>
 6    0  0.1221518E+003  0.1558942E+03  0.7546771E-02  0.1193412E+00
         21   -1    0    0  503  501  0.00000000000E+00  0.00000000000E+00  0.13272693797E+04  0.13272693797E+04  0.00000000000E+00 0.  1.
         21   -1    0    0  505  502 -0.00000000000E+00 -0.00000000000E+00 -0.78649592899E+02  0.78649592899E+02  0.00000000000E+00 0.  1.
         21    1    1    2  503  502 -0.37736447367E+02 -0.34681689024E+02  0.67456774033E+03  0.67651200677E+03  0.00000000000E+00 0. -1.
         21    1    1    2  504  501  0.19959899742E+03  0.40501865606E+02  0.45392613819E+03  0.49752296411E+03  0.00000000000E+00 0.  1.
         21    1    1    2  505  506 -0.53849188722E+02  0.46991344135E+02  0.16954291251E+02  0.73453179246E+02  0.00000000000E+00 0.  1.
         21    1    1    2  506  504 -0.10801336133E+03 -0.52811520717E+02  0.10317161703E+03  0.15843082246E+03  0.00000000000E+00 0.  1.
<scales pt_clust_3="51.25289" pt_clust_4="155.89417" pt_clust_5="71.94700" pt_clust_6="14000.00000"></scales>
<clustering>
<clus scale="   51.253">  1  3  2 -1</clus>
<clus scale="   71.947">  2  5  1 -1</clus>
<clus scale="  155.894">  1  4  2 -1</clus>
<clus scale="   51.253">  1  3  2 -1</clus>
</clustering>
</event>
<event>
 6    0  0.1221518E+003  0.1276422E+03  0.7546771E-02  0.1230997E+00
         21   -1    0    0  505  501  0.00000000000E+00  0.00000000000E+00  0.62257546851E+03  0.62257546851E+03  0.00000000000E+00 0.  1.
         21   -1    0    0  506  502 -0.00000000000E+00 -0.00000000000E+00 -0.91808366352E+02  0.91808366352E+02  0.00000000000E+00 0. -1.
         21    1    1    2  503  504  0.10295497321E+03 -0.96201280669E+02  0.15047278274E+03  0.20614672264E+03  0.00000000000E+00 0.  1.
         21    1    1    2  504  501 -0.76720711060E+01  0.46201170525E+02  0.26537101962E+03  0.26947205215E+03  0.00000000000E+00 0. -1.
         21    1    1    2  505  502 -0.12290058486E+03  0.27380734378E+02  0.14503270761E+03  0.19206442838E+03  0.00000000000E+00 0. -1.
         21    1    1    2  506  503  0.27617682757E+02  0.22619375766E+02 -0.30109407816E+02  0.46700631687E+02  0.00000000000E+00 0. -1.
<scales pt_clust_3="127.64215" pt_clust_4="47.53177" pt_clust_5="14000.00000" pt_clust_6="35.69836"></scales>
<clustering>
<clus scale="   35.698">  2  6  1 -1</clus>
<clus scale="   47.532">  1  4  2 -1</clus>
<clus scale="  127.642">  1  3  2 -1</clus>
<clus scale="   47.532">  1  3  2 -1</clus>
</clustering>
</event>
<event>
 6    0  0.1221518E+003  0.2304331E+03  0.7546771E-02  0.1126335E+00
         21   -1    0    0  504  501  0.00000000000E+00  0.00000000000E+00  0.12055700372E+04  0.12055700372E+04  0.00000000000E+00 0. -1.
         21   -1    0    0  505  502 -0.00000000000E+00 -0.00000000000E+00 -0.15057854144E+03  0.15057854144E+03  0.00000000000E+00 0.  1.
         21    1    1    2  503  506  0.60066845080E+02 -0.13099992602E+02  0.76808611859E+02  0.98382917927E+02  0.00000000000E+00 0. -1.
         21    1    1    2  504  503 -0.12623612224E+03  0.19032546825E+03  0.43275358600E+03  0.48932096687E+03  0.00000000000E+00 0. -1.
         21    1    1    2  505  501  0.97617555793E+02 -0.21167191648E+03  0.63006876763E+03  0.67180416742E+03  0.00000000000E+00 0. -1.
         21    1    1    2  506  502 -0.31448278637E+02  0.34446440839E+02 -0.84639469716E+02  0.96640526435E+02  0.00000000000E+00 0.  1.
<scales pt_clust_3="54.84296" pt_clust_4="14000.00000" pt_clust_5="230.43311" pt_clust_6="46.64281"></scales>
<clustering>
<clus scale="   46.643">  2  6  1 -1</clus>
<clus scale="   54.843">  2  3  1 -1</clus>
<clus scale="  230.433">  1  5  2 -1</clus>
<clus scale="  230.433">  1  3  2 -1</clus>
</clustering>
</event>
<event>
 6    0  0.1221518E+003  0.9808143E+02  0.7546771E-02  0.1284383E+00
         21   -1    0    0  503  501  0.00000000000E+00  0.00000000000E+00  0.38115903162E+03  0.38115903162E+03  0.00000000000E+00 0.  1.
         21   -1    0    0  505  502 -0.00000000000E+00 -0.00000000000E+00 -0.11423538723E+03  0.11423538723E+03  0.00000000000E+00 0.  1.
         21    1    1    2  503  506 -0.32920712222E+02  0.68763114540E+02  0.28868136973E+03  0.29857841925E+03  0.00000000000E+00 0.  1.
         21    1    1    2  504  501  0.16550869851E+02 -0.38458647461E+02  0.16626683085E+02  0.45049366785E+02  0.00000000000E+00 0. -1.
         21    1    1    2  505  504  0.23297212335E+02 -0.82190902397E+02 -0.48812981996E+02  0.98391116219E+02  0.00000000000E+00 0.  1.
         21    1    1    2  506  502 -0.69273699637E+01  0.51886435318E+02  0.10428573577E+02  0.53375516592E+02  0.00000000000E+00 0.  1.
<scales pt_clust_3="78.89827" pt_clust_4="40.79104" pt_clust_5="40.79104" pt_clust_6="52.34683"></scales>
<clustering>
<clus scale="   40.791">  4  5 -1 -1</clus>
<clus scale="   52.347">  2  6  1 -1</clus>
<clus scale="   78.898">  1  3  2 -1</clus>
<clus scale="   78.898">  1  3  2 -1</clus>
</clustering>
</event>
<event>
 6    0  0.1221518E+003  0.1121908E+03  0.7546771E-02  0.1256566E+00
         21   -1    0    0  503  501  0.00000000000E+00  0.00000000000E+00  0.59706524210E+03  0.59706524210E+03  0.00000000000E+00 0.  1.
         21   -1    0    0  506  502 -0.00000000000E+00 -0.00000000000E+00 -0.59870826807E+03  0.59870826807E+03  0.00000000000E+00 0. -1.
         21    1    1    2  503  505 -0.42897831113E+02  0.15743606965E+03 -0.19404260934E+02  0.16432548580E+03  0.00000000000E+00 0.  1.
         21    1    1    2  504  501  0.19948116810E+02 -0.51880333708E+02  0.51284876319E+03  0.51585206241E+03  0.00000000000E+00 0.  1.
         21    1    1    2  505  502  0.38015863401E+02 -0.78734771228E+02 -0.46285081347E+03  0.47103635274E+03  0.00000000000E+00 0. -1.
         21    1    1    2  506  504 -0.15066149099E+02 -0.26820964712E+02 -0.32236714753E+02  0.44559609231E+02  0.00000000000E+00 0. -1.
<scales pt_clust_3="112.19082" pt_clust_4="55.63588" pt_clust_5="14000.00000" pt_clust_6="30.76285"></scales>
<clustering>
<clus scale="   30.763">  2  6  1 -1</clus>
<clus scale="   55.636">  1  4  2 -1</clus>
<clus scale="  112.191">  1  3  2 -1</clus>
<clus scale="   55.636">  1  3  2 -1</clus>
</clustering>
</event>
<event>
 6    0  0.1221518E+003  0.7043028E+02  0.7546771E-02  0.1358636E+00
         21   -1    0    0  504  501  0.00000000000E+00  0.00000000000E+00  0.20782040750E+03  0.20782040750E+03  0.00000000000E+00 0. -1.
         21   -1    0    0  503  502 -0.00000000000E+00 -0.00000000000E+00 -0.20125413394E+04  0.20125413394E+04  0.00000000000E+00 0.  1.
         21    1    1    2  503  506  0.17066361105E+02  0.32192966605E+02 -0.18559566116E+04  0.18563142493E+04  0.00000000000E+00 0.  1.
         21    1    1    2  504  505  0.38886140450E+02  0.40611179535E+02  0.53633273315E+02  0.77704104324E+02  0.00000000000E+00 0. -1.
         21    1    1    2  505  502  0.51667350990E+01  0.39990532023E+02 -0.11110143088E+03  0.11819249446E+03  0.00000000000E+00 0.  1.
         21    1    1    2  506  501 -0.61119236654E+02 -0.11279467816E+03  0.10870383735E+03  0.16815089879E+03  0.00000000000E+00 0. -1.
<scales pt_clust_3="36.43690" pt_clust_4="58.92880" pt_clust_5="70.43028" pt_clust_6="14000.00000"></scales>
<clustering>
<clus scale="   36.437">  2  3  1 -1</clus>
<clus scale="   58.929">  1  4  2 -1</clus>
<clus scale="   70.430">  2  5  1 -1</clus>
<clus scale="   58.929">  1  3  2 -1</clus>
</clustering>
</event>
<event>
 6    0  0.1221518E+003  0.9415545E+02  0.7546771E-02  0.1293090E+00
         21   -1    0    0  503  501  0.00000000000E+00  0.00000000000E+00  0.27378686197E+02  0.27378686197E+02  0.00000000000E+00 0. -1.
         21   -1    0    0  505  502 -0.00000000000E+00 -0.00000000000E+00 -0.17802780949E+04  0.17802780949E+04  0.00000000000E+00 0. -1.
         21    1    1    2  503  506 -0.13333635104E+03  0.12658392364E+03 -0.72706696703E+03  0.74995229634E+03  0.00000000000E+00 0. -1.
         21    1    1    2  504  501  0.73328782112E+02 -0.28201098726E+02 -0.13315201703E+03  0.15460230236E+03  0.00000000000E+00 0. -1.
         21    1    1    2  505  504  0.42568364411E+02 -0.29449463993E+02 -0.58622621184E+03  0.58850701613E+03  0.00000000000E+00 0. -1.
         21    1    1    2  506  502  0.17439204518E+02 -0.68933360920E+02 -0.30645421277E+03  0.31459516625E+03  0.00000000000E+00 0. -1.
<scales pt_clust_3="14000.00000" pt_clust_4="94.15545" pt_clust_5="51.76231" pt_clust_6="81.73646"></scales>
<clustering>
<clus scale="   51.762">  2  5  1 -1</clus>
<clus scale="   81.736">  2  6  1 -1</clus>
<clus scale="   94.155">  1  4  2 -1</clus>
<clus scale="   94.155">  1  3  2 -1</clus>
</clustering>
</event>
<event>
 6    0  0.1221518E+003  0.1173945E+03  0.7546771E-02  0.1247458E+00
         21   -1    0    0  504  501  0.00000000000E+00  0.00000000000E+00  0.15798968611E+04  0.15798968611E+04  0.00000000000E+00 0.  1.
         21   -1    0    0  506  502 -0.00000000000E+00 -0.00000000000E+00 -0.11972677800E+04  0.11972677800E+04  0.00000000000E+00 0.  1.
         21    1    1    2  503  502 -0.34727152048E+02 -0.29362589507E+02 -0.21241409561E+03  0.21722772559E+03  0.00000000000E+00 0. -1.
         21    1    1    2  504  503 -0.93399328800E+02  0.68561388539E+01  0.19855973382E+02  0.95732444548E+02  0.00000000000E+00 0. -1.
         21    1    1    2  505  501 -0.10287866094E+03 -0.55925377653E+02  0.15016255046E+04  0.15061841929E+04  0.00000000000E+00 0.  1.
         21    1    1    2  506  505  0.23100514179E+03  0.78431828306E+02 -0.92643830122E+03  0.95802027807E+03  0.00000000000E+00 0.  1.
<scales pt_clust_3="45.47677" pt_clust_4="94.91301" pt_clust_5="14000.00000" pt_clust_6="117.39447"></scales>
<clustering>
<clus scale="   45.477">  2  3  1 -1</clus>
<clus scale="   94.913">  2  4  1 -1</clus>
<clus scale="  117.394">  2  6  1 -1</clus>
<clus scale="  117.394">  1  3  2 -1</clus>
</clustering>
</event>
<event>
 6    0  0.1221518E+003  0.1641150E+03  0.7546771E-02  0.1184128E+00
         21   -1    0    0  503  501  0.00000000000E+00  0.00000000000E+00  0.47668962675E+02  0.47668962675E+02  0.00000000000E+00 0.  1.
         21   -1    0    0  506  502 -0.00000000000E+00 -0.00000000000E+00 -0.13454180517E+04  0.13454180517E+04  0.00000000000E+00 0.  1.
         21    1    1    2  503  504  0.71875667996E+02 -0.23239296523E+02 -0.95681126264E+02  0.12190592470E+03  0.00000000000E+00 0.  1.
         21    1    1    2  504  502  0.56718238948E+02 -0.10444670556E+03 -0.23243379046E+03  0.26105849896E+03  0.00000000000E+00 0.  1.
         21    1    1    2  505  501 -0.92934248490E+02  0.81304476332E+02 -0.17975901939E+03  0.21808369372E+03  0.00000000000E+00 0.  1.
         21    1    1    2  506  505 -0.35659658454E+02  0.46381525754E+02 -0.78987515292E+03  0.79203889700E+03  0.00000000000E+00 0.  1.
<scales pt_clust_3="66.24865" pt_clust_4="66.24865" pt_clust_5="144.12315" pt_clust_6="58.50519"></scales>
<clustering>
<clus scale="   58.505">  2  6  1 -1</clus>
<clus scale="   66.249">  3  4 -1 -1</clus>
<clus scale="  144.123">  1  5  2 -1</clus>
<clus scale="  144.123">  1  3  2 -1</clus>
</clustering>
</event>
<event>
 6    0  0.1221518E+003  0.1104332E+03  0.7546771E-02  0.1259770E+00
         21   -1    0    0  503  501  0.00000000000E+00  0.00000000000E+00  0.52038543320E+02  0.52038543320E+02  0.00000000000E+00 0. -1.
         21   -1    0    0  506  502 -0.00000000000E+00 -0.00000000000E+00 -0.17105931415E+04  0.17105931415E+04  0.00000000000E+00 0. -1.
         21    1    1    2  503  502 -0.16223345323E+02 -0.31439098383E+02 -0.24240040431E+01  0.35461100324E+02  0.00000000000E+00 0.  1.
         21    1    1    2  504  505  0.69555354959E+02  0.33608377104E+02 -0.19262019432E+03  0.20753315320E+03  0.00000000000E+00 0. -1.
         21    1    1    2  505  501  0.68532982545E+02  0.15647566125E+02 -0.23134351587E+02  0.74005501454E+02  0.00000000000E+00 0. -1.
         21    1    1    2  506  504 -0.12186499218E+03 -0.17816844846E+02 -0.14403760482E+04  0.14456319298E+04  0.00000000000E+00 0. -1.
<scales pt_clust_3="35.37815" pt_clust_4="110.43317" pt_clust_5="57.32819" pt_clust_6="14000.00000"></scales>
<clustering>
<clus scale="   35.378">  1  3  2 -1</clus>
<clus scale="   57.328">  1  5  2 -1</clus>
<clus scale="  110.433">  1  4  2 -1</clus>
<clus scale="   35.378">  1  3  2 -1</clus>
</clustering>
</event>
<event>
 6    0  0.1221518E+003  0.1470592E+03  0.7546771E-02  0.1204134E+00
         21   -1    0    0  503  501  0.00000000000E+00  0.00000000000E+00  0.93770998406E+03  0.93770998406E+03  0.00000000000E+00 0.  1.
         21   -1    0    0  504  502 -0.00000000000E+00 -0.00000000000E+00 -0.48797859678E+03  0.48797859678E+03  0.00000000000E+00 0.  1.
         21    1    1    2  503  506  0.80857716378E+02  0.48432834734E+02  0.66189579964E+03  0.66857292748E+03  0.00000000000E+00 0.  1.
         21    1    1    2  504  505  0.30147472660E+02  0.66590473360E+02 -0.25726234908E+03  0.26744546641E+03  0.00000000000E+00 0.  1.
         21    1    1    2  505  501 -0.44848265004E+02 -0.21485794724E+03 -0.14637936933E+03  0.26382233440E+03  0.00000000000E+00 0.  1.
         21    1    1    2  506  502 -0.66156924033E+02  0.99834639144E+02  0.19147730605E+03  0.22584785255E+03  0.00000000000E+00 0.  1.
<scales pt_clust_3="95.14444" pt_clust_4="73.09693" pt_clust_5="14000.00000" pt_clust_6="147.05916"></scales>
<clustering>
<clus scale="   73.097">  2  4  1 -1</clus>
<clus scale="   95.144">  1  3  2 -1</clus>
<clus scale="  147.059">  1  6  2 -1</clus>
<clus scale="   95.144">  1  3  2 -1</clus>
</clustering>
</event>
<event>
 6    0  0.1221518E+003  0.8753305E+02  0.7546771E-02  0.1308938E+00
         21   -1    0    0  505  501  0.00000000000E+00  0.00000000000E+00  0.25286329401E+03  0.25286329401E+03  0.00000000000E+00 0.  1.
         21   -1    0    0  506  502 -0.00000000000E+00 -0.00000000000E+00 -0.15332702590E+03  0.15332702590E+03  0.00000000000E+00 0.  1.
         21    1    1    2  503  502 -0.29574666355E+02  0.82136688052E+02 -0.55440659946E+02  0.10341548815E+03  0.00000000000E+00 0.  1.
         21    1    1    2  504  501  0.25071662969E+02  0.21300462067E+02  0.39726502262E+02  0.51579966559E+02  0.00000000000E+00 0. -1.
         21    1    1    2  505  503 -0.40104919096E+02 -0.10508436725E+03  0.15494127407E+03  0.19146259997E+03  0.00000000000E+00 0.  1.
         21    1    1    2  506  504  0.44607922482E+02  0.16472171356E+01 -0.39690848279E+02  0.59732265230E+02  0.00000000000E+00 0.  1.
<scales pt_clust_3="87.53305" pt_clust_4="32.89830" pt_clust_5="14000.00000" pt_clust_6="45.89854"></scales>
<clustering>
<clus scale="   32.898">  1  4  2 -1</clus>
<clus scale="   45.899">  2  6  1 -1</clus>
<clus scale="   87.533">  2  3  1 -1</clus>
<clus scale="   32.898">  1  3  2 -1</clus>
</clustering>
</event>
<event>
 6    0  0.1221518E+003  0.7192443E+02  0.7546771E-02  0.1353669E+00
         21   -1    0    0  504  501  0.00000000000E+00  0.00000000000E+00  0.17057644879E+04  0.17057644879E+04  0.00000000000E+00 0.  1.
         21   -1    0    0  506  502 -0.00000000000E+00 -0.00000000000E+00 -0.14247994974E+02  0.14247994974E+02  0.00000000000E+00 0. -1.
         21    1    1    2  503  502  0.47446021427E+02  0.34329206590E+02  0.12732838287E+03  0.14015040656E+03  0.00000000000E+00 0. -1.
         21    1    1    2  504  503  0.20700051755E+01  0.76778028969E+02  0.74051933396E+03  0.74449179621E+03  0.00000000000E+00 0.  1.
         21    1    1    2  505  501  0.14457646417E+02 -0.32418664492E+02  0.28870793192E+03  0.29088187173E+03  0.00000000000E+00 0.  1.
         21    1    1    2  506  505 -0.63973673019E+02 -0.78688571068E+02  0.53496084420E+03  0.54448840840E+03  0.00000000000E+00 0. -1.
<scales pt_clust_3="57.96730" pt_clust_4="14000.00000" pt_clust_5="35.49638" pt_clust_6="71.92443"></scales>
<clustering>
<clus scale="   35.496">  1  5  2 -1</clus>
<clus scale="   57.967">  2  3  1 -1</clus>
<clus scale="   71.924">  2  6  1 -1</clus>
<clus scale="   35.496">  1  3  2 -1</clus>
</clustering>
</event>
<event>
 6    0  0.1221518E+003  0.8890361E+02  0.7546771E-02  0.1305529E+00
         21   -1    0    0  504  501  0.00000000000E+00  0.00000000000E+00  0.69055608024E+03  0.69055608024E+03  0.00000000000E+00 0.  1.
         21   -1    0    0  505  502 -0.00000000000E+00 -0.00000000000E+00 -0.11022868857E+03  0.11022868857E+03  0.00000000000E+00 0.  1.
         21    1    1    2  503  502  0.74520097644E+02  0.19509283568E+02 -0.23415967321E+02  0.80511891195E+02  0.00000000000E+00 0.  1.
         21    1    1    2  504  503  0.95094826891E+02 -0.14342826025E+02  0.25202779676E+03  0.26975313363E+03  0.00000000000E+00 0.  1.
         21    1    1    2  505  506 -0.12829408051E+03  0.59107872698E+01  0.38046956400E+02  0.13394730080E+03  0.00000000000E+00 0.  1.
         21    1    1    2  506  501 -0.41320844028E+02 -0.11077244813E+02  0.31366860583E+03  0.31657244319E+03  0.00000000000E+00 0.  1.
<scales pt_clust_3="14000.00000" pt_clust_4="69.94433" pt_clust_5="88.90361" pt_clust_6="42.77987"></scales>
<clustering>
<clus scale="   42.780">  1  6  2 -1</clus>
<clus scale="   69.944">  1  4  2 -1</clus>
<clus scale="   88.904">  1  5  2 -1</clus>
<clus scale="   42.780">  1  3  2 -1</clus>
</clustering>
</event>
<event>
 6    0  0.1221518E+003  0.7570673E+02  0.7546771E-02  0.1341696E+00
         21   -1    0    0  506  501  0.00000000000E+00  0.00000000000E+00  0.17943057091E+02  0.17943057091E+02  0.00000000000E+00 0.  1.
         21   -1    0    0  505  502 -0.00000000000E+00 -0.00000000000E+00 -0.15750069103E+04  0.15750069103E+04  0.00000000000E+00 0.  1.
         21    1    1    2  503  501 -0.39943432910E+02  0.27582471273E+02 -0.57040134279E+02  0.74898915031E+02  0.00000000000E+00 0.  1.
         21    1    1    2  504  502  0.67295674531E+02  0.12147886783E+02 -0.51150860623E+03  0.51605942799E+03  0.00000000000E+00 0.  1.
         21    1    1    2  505  503 -0.86714109622E+02  0.55774735812E+01 -0.61248545958E+03  0.61861852802E+03  0.00000000000E+00 0.  1.
         21    1    1    2  506  504  0.59361868002E+02 -0.45307831637E+02 -0.37602965314E+03  0.38337309637E+03  0.00000000000E+00 0.  1.
<scales pt_clust_3="48.54143" pt_clust_4="14000.00000" pt_clust_5="75.70673" pt_clust_6="54.93389"></scales>
<clustering>
<clus scale="   48.541">  1  3  2 -1</clus>
<clus scale="   54.934">  1  6  2 -1</clus>
<clus scale="   75.707">  1  5  2 -1</clus>
<clus scale="   48.541">  1  3  2 -1</clus>
</clustering>
</event>
<event>
 6    0  0.1221518E+003  0.1095479E+03  0.7546771E-02  0.1261409E+00
         21   -1    0    0  504  501  0.00000000000E+00  0.00000000000E+00  0.18213300623E+04  0.18213300623E+04  0.00000000000E+00 0. -1.
         21   -1    0    0  503  502 -0.00000000000E+00 -0.00000000000E+00 -0.19056336146E+03  0.19056336146E+03  0.00000000000E+00 0. -1.
         21    1    1    2  503  501 -0.91325900341E+00  0.10009059269E+03  0.75426392238E+03  0.76087648498E+03  0.00000000000E+00 0. -1.
         21    1    1    2  504  505 -0.57054898936E+02 -0.11410373616E+03  0.10355753272E+04  0.10434036527E+04  0.00000000000E+00 0. -1.
         21    1    1    2  505  506  0.50534357583E+02  0.57306279398E+02 -0.53519718070E+02  0.93284999743E+02  0.00000000000E+00 0.  1.
         21    1    1    2  506  502  0.74338003565E+01 -0.43293135929E+02 -0.10555283066E+03  0.11432828638E+03  0.00000000000E+00 0. -1.
<scales pt_clust_3="109.54786" pt_clust_4="14000.00000" pt_clust_5="60.03026" pt_clust_6="43.92672"></scales>
<clustering>
<clus scale="   43.927">  2  6  1 -1</clus>
<clus scale="   60.030">  2  5  1 -1</clus>
<clus scale="  109.548">  1  3  2 -1</clus>
<clus scale="  109.548">  1  3  2 -1</clus>
</clustering>
</event>
<event>
 6    0  0.1221518E+003  0.7764331E+02  0.7546771E-02  0.1335876E+00
         21   -1    0    0  503  501  0.00000000000E+00  0.00000000000E+00  0.49810782084E+02  0.49810782084E+02  0.00000000000E+00 0. -1.
         21   -1    0    0  504  502 -0.00000000000E+00 -0.00000000000E+00 -0.12802721866E+04  0.12802721866E+04  0.00000000000E+00 0. -1.
         21    1    1    2  503  505 -0.76234620220E+01 -0.69160123013E+02 -0.93194997399E+01  0.70200376522E+02  0.00000000000E+00 0. -1.
         21    1    1    2  504  506  0.13155468768E+02 -0.32871816620E+02 -0.58623304857E+03  0.58730129399E+03  0.00000000000E+00 0. -1.
         21    1    1    2  505  502  0.43374216475E+02  0.12971644445E+03 -0.26289767911E+03  0.29634923367E+03  0.00000000000E+00 0. -1.
         21    1    1    2  506  501 -0.48906223221E+02 -0.27684504814E+02 -0.37201117708E+03  0.37623206449E+03  0.00000000000E+00 0. -1.
<scales pt_clust_3="77.64331" pt_clust_4="35.40653" pt_clust_5="14000.00000" pt_clust_6="61.73156"></scales>
<clustering>
<clus scale="   35.407">  2  4  1 -1</clus>
<clus scale="   61.732">  2  6  1 -1</clus>
<clus scale="   77.643">  1  3  2 -1</clus>
<clus scale="   77.643">  1  3  2 -1</clus>
</clustering>
</event>
<event>
 6    0  0.1221518E+003  0.6494261E+02  0.7546771E-02  0.1378188E+00
         21   -1    0    0  503  501  0.00000000000E+00  0.00000000000E+00  0.27764107957E+03  0.27764107957E+03  0.00000000000E+00 0. -1.
         21   -1    0    0  504  502 -0.00000000000E+00 -0.00000000000E+00 -0.10720953509E+03  0.10720953509E+03  0.00000000000E+00 0. -1.
         21    1    1    2  503  502 -0.59559076465E+02 -0.44639445812E+02 -0.42091703098E+01  0.74549854637E+02  0.00000000000E+00 0. -1.
         21    1    1    2  504  506  0.43158248346E+02  0.88647607936E+01 -0.16829888516E+02  0.47164218765E+02  0.00000000000E+00 0. -1.
         21    1    1    2  505  501  0.50794453693E+02 -0.37793053139E+02  0.16656682828E+03  0.17819343331E+03  0.00000000000E+00 0. -1.
         21    1    1    2  506  505 -0.34393625575E+02  0.73567738157E+02  0.24903775026E+02  0.84943107951E+02  0.00000000000E+00 0.  1.
<scales pt_clust_3="54.46159" pt_clust_4="44.05926" pt_clust_5="64.94261" pt_clust_6="14000.00000"></scales>
<clustering>
<clus scale="   44.059">  2  4  1 -1</clus>
<clus scale="   54.462">  2  3  1 -1</clus>
<clus scale="   64.943">  1  5  2 -1</clus>
<clus scale="   64.943">  1  3  2 -1</clus>
</clustering>
</event>
<event>
 6    0  0.1221518E+003  0.1010815E+03  0.7546771E-02  0.1278038E+00
         21   -1    0    0  506  501  0.00000000000E+00  0.00000000000E+00  0.11130204025E+03  0.11130204025E+03  0.00000000000E+00 0. -1.
         21   -1    0    0  505  502 -0.00000000000E+00 -0.00000000000E+00 -0.50472496220E+03  0.50472496220E+03  0.00000000000E+00 0. -1.
         21    1    1    2  503  501  0.89687704465E+02 -0.94121795166E+02 -0.10363836232E+03  0.16626396724E+03  0.00000000000E+00 0.  1.
         21    1    1    2  504  502 -0.64504462673E+02  0.51035255756E+02  0.92660978197E+01  0.82772480955E+02  0.00000000000E+00 0. -1.
         21    1    1    2  505  503 -0.37059627803E+02  0.85215185584E+01 -0.32173512880E+03  0.32397457523E+03  0.00000000000E+00 0. -1.
         21    1    1    2  506  504  0.11876386011E+02  0.34565020852E+02  0.22684471343E+02  0.43015979023E+02  0.00000000000E+00 0. -1.
<scales pt_clust_3="101.08152" pt_clust_4="14000.00000" pt_clust_5="37.97563" pt_clust_6="36.54845"></scales>
<clustering>
<clus scale="   36.548">  1  6  2 -1</clus>
<clus scale="   37.976">  2  5  1 -1</clus>
<clus scale="  101.082">  2  3  1 -1</clus>
<clus scale="   36.548">  1  3  2 -1</clus>
</clustering>
</event>
<event>
 6    0  0.1221518E+003  0.8320683E+02  0.7546771E-02  0.1320190E+00
         21   -1    0    0  503  501  0.00000000000E+00  0.00000000000E+00  0.10201568990E+04  0.10201568990E+04  0.00000000000E+00 0.  1.
         21   -1    0    0  505  502 -0.00000000000E+00 -0.00000000000E+00 -0.97206287721E+02  0.97206287721E+02  0.00000000000E+00 0. -1.
         21    1    1    2  503  506 -0.58705605896E+02  0.10784248857E+03  0.52668723239E+03  0.54081030988E+03  0.00000000000E+00 0.  1.
         21    1    1    2  504  501  0.51127291748E+02 -0.81205266279E+01  0.30393697129E+03  0.30831416677E+03  0.00000000000E+00 0. -1.
         21    1    1    2  505  504 -0.12981266973E+02 -0.60986285409E+02  0.16887498781E+03  0.18001833742E+03  0.00000000000E+00 0.  1.
         21    1    1    2  506  502  0.20559581121E+02 -0.38735676538E+02 -0.76548580230E+02  0.88220372635E+02  0.00000000000E+00 0. -1.
<scales pt_clust_3="83.20683" pt_clust_4="55.90347" pt_clust_5="14000.00000" pt_clust_6="43.85372"></scales>
<clustering>
<clus scale="   43.854">  2  6  1 -1</clus>
<clus scale="   55.903">  1  4  2 -1</clus>
<clus scale="   83.207">  1  3  2 -1</clus>
<clus scale="   55.903">  1  3  2 -1</clus>
</clustering>
</event>
<event>
 6    0  0.1221518E+003  0.1190058E+03  0.7546771E-02  0.1244746E+00
         21   -1    0    0  503  501  0.00000000000E+00  0.00000000000E+00  0.82643474699E+03  0.82643474699E+03  0.00000000000E+00 0.  1.
         21   -1    0    0  504  502 -0.00000000000E+00 -0.00000000000E+00 -0.58059531665E+03  0.58059531665E+03  0.00000000000E+00 0. -1.
         21    1    1    2  503  502  0.45368716003E+02  0.18242548805E+02  0.35826658349E+02  0.60618977451E+02  0.00000000000E+00 0.  1.
         21    1    1    2  504  505 -0.49698714898E+02  0.25665987710E+01 -0.50502621225E+03  0.50747219111E+03  0.00000000000E+00 0. -1.
         21    1    1    2  505  506 -0.64863379160E+02 -0.65958936848E+02 -0.23778763651E+02  0.95515804488E+02  0.00000000000E+00 0. -1.
         21    1    1    2  506  501  0.69193378055E+02  0.45149789271E+02  0.73881774788E+03  0.74342309059E+03  0.00000000000E+00 0.  1.
<scales pt_clust_3="48.89899" pt_clust_4="49.69523" pt_clust_5="14000.00000" pt_clust_6="119.00580"></scales>
<clustering>
<clus scale="   48.899">  1  3  2 -1</clus>
<clus scale="   49.695">  2  4  1 -1</clus>
<clus scale="  119.006">  1  6  2 -1</clus>
<clus scale="   48.899">  1  3  2 -1</clus>
</clustering>
</event>
<event>
 6    0  0.1221518E+003  0.9794946E+02  0.7546771E-02  0.1284668E+00
         21   -1    0    0  505  501  0.00000000000E+00  0.00000000000E+00  0.57324880678E+03  0.57324880678E+03  0.00000000000E+00 0.  1.
         21   -1    0    0  503  502 -0.00000000000E+00 -0.00000000000E+00 -0.37121295166E+03  0.37121295166E+03  0.00000000000E+00 0.  1.
         21    1    1    2  503  504  0.58296179023E+02  0.22926032620E+02 -0.24361459966E+02  0.67212559779E+02  0.00000000000E+00 0.  1.
         21    1    1    2  504  501  0.50888709037E+02  0.27340623375E+02  0.15636823886E+03  0.16669791995E+03  0.00000000000E+00 0.  1.
         21    1    1    2  505  506  0.46565438993E+01 -0.29842338683E+02  0.37922784834E+03  0.38042871808E+03  0.00000000000E+00 0.  1.
         21    1    1    2  506  502 -0.11384143196E+03 -0.20424317313E+02 -0.30919877211E+03  0.33012256064E+03  0.00000000000E+00 0.  1.
<scales pt_clust_3="97.94946" pt_clust_4="54.83092" pt_clust_5="30.20345" pt_clust_6="14000.00000"></scales>
<clustering>
<clus scale="   30.203">  1  5  2 -1</clus>
<clus scale="   54.831">  1  4  2 -1</clus>
<clus scale="   97.949">  1  3  2 -1</clus>
<clus scale="   30.203">  1  3  2 -1</clus>
</clustering>
</event>
<event>
 6    0  0.1221518E+003  0.1357431E+03  0.7546771E-02  0.1219174E+00
         21   -1    0    0  504  501  0.00000000000E+00  0.00000000000E+00  0.16454629806E+03  0.16454629806E+03  0.00000000000E+00 0.  1.
         21   -1    0    0  503  502 -0.00000000000E+00 -0.00000000000E+00 -0.27349728747E+04  0.27349728747E+04  0.00000000000E+00 0.  1.
         21    1    1    2  503  505 -0.20484425189E+02 -0.42909556819E+02 -0.38052182338E+03  0.38348102927E+03  0.00000000000E+00 0.  1.
         21    1    1    2  504  506  0.12489149514E+03  0.16410255404E+03 -0.83318510492E+03  0.85832683336E+03  0.00000000000E+00 0.  1.
         21    1    1    2  505  501 -0.10808144201E+03 -0.78464935597E+02  0.12049061292E+03  0.17987865918E+03  0.00000000000E+00 0.  1.
         21    1    1    2  506  502  0.36743720549E+01 -0.42728061626E+02 -0.14772102613E+04  0.14778326510E+04  0.00000000000E+00 0.  1.
<scales pt_clust_3="59.15074" pt_clust_4="135.74311" pt_clust_5="14000.00000" pt_clust_6="42.88576"></scales>
<clustering>
<clus scale="   42.886">  2  6  1 -1</clus>
<clus scale="   59.151">  2  3  1 -1</clus>
<clus scale="  135.743">  2  4  1 -1</clus>
<clus scale="  135.743">  1  3  2 -1</clus>
</clustering>
</event>
<event>
 6    0  0.1221518E+003  0.1469341E+03  0.7546771E-02  0.1204292E+00
         21   -1    0    0  506  501  0.00000000000E+00  0.00000000000E+00  0.12677839364E+04  0.12677839364E+04  0.00000000000E+00 0. -1.
         21   -1    0    0  504  502 -0.00000000000E+00 -0.00000000000E+00 -0.21127293592E+03  0.21127293592E+03  0.00000000000E+00 0. -1.
         21    1    1    2  503  501  0.90149158091E+01  0.34158952162E+02  0.97610797621E+03  0.97674709314E+03  0.00000000000E+00 0. -1.
         21    1    1    2  504  505 -0.98141725766E+02  0.88885915857E+02 -0.51005610320E+02  0.14189459700E+03  0.00000000000E+00 0. -1.
         21    1    1    2  505  503 -0.84343559068E+02 -0.63644768383E+02  0.14171179478E+03  0.17676743274E+03  0.00000000000E+00 0. -1.
         21    1    1    2  506  502  0.17347036902E+03 -0.59400099637E+02 -0.10303160182E+02  0.18364774945E+03  0.00000000000E+00 0. -1.
<scales pt_clust_3="35.32850" pt_clust_4="146.93408" pt_clust_5="91.26752" pt_clust_6="14000.00000"></scales>
<clustering>
<clus scale="   35.328">  1  3  2 -1</clus>
<clus scale="   91.268">  1  5  2 -1</clus>
<clus scale="  146.934">  2  4  1 -1</clus>
<clus scale="   35.328">  1  3  2 -1</clus>
</clustering>
</event>
<event>
 6    0  0.1221518E+003  0.1409505E+03  0.7546771E-02  0.1212056E+00
         21   -1    0    0  505  501  0.00000000000E+00  0.00000000000E+00  0.12038701936E+03  0.12038701936E+03  0.00000000000E+00 0. -1.
         21   -1    0    0  503  502 -0.00000000000E+00 -0.00000000000E+00 -0.73490828574E+03  0.73490828574E+03  0.00000000000E+00 0. -1.
         21    1    1    2  503  504 -0.66326588736E+02  0.40809410916E+02 -0.37983143474E+03  0.38773256660E+03  0.00000000000E+00 0. -1.
         21    1    1    2  504  506 -0.65374725767E+02 -0.12109789825E+02 -0.25475566912E+03  0.26328872503E+03  0.00000000000E+00 0. -1.
         21    1    1    2  505  502  0.10128670352E+03 -0.47245327557E+02 -0.52466522191E+02  0.12346600033E+03  0.00000000000E+00 0. -1.
         21    1    1    2  506  501  0.30414610981E+02  0.18545706466E+02  0.72532359660E+02  0.80808013138E+02  0.00000000000E+00 0. -1.
<scales pt_clust_3="49.47324" pt_clust_4="49.47324" pt_clust_5="130.03080" pt_clust_6="35.62291"></scales>
<clustering>
<clus scale="   35.623">  1  6  2 -1</clus>
<clus scale="   49.473">  3  4 -1 -1</clus>
<clus scale="  130.031">  1  5  2 -1</clus>
<clus scale="   35.623">  1  3  2 -1</clus>
</clustering>
</event>
<event>
 6    0  0.1221518E+003  0.9216486E+02  0.7546771E-02  0.1297692E+00
         21   -1    0    0  503  501  0.00000000000E+00  0.00000000000E+00  0.10695840379E+03  0.10695840379E+03  0.00000000000E+00 0. -1.
         21   -1    0    0  506  502 -0.00000000000E+00 -0.00000000000E+00 -0.38849493748E+03  0.38849493748E+03  0.00000000000E+00 0.  1.
         21    1    1    2  503  504  0.35738981219E+02  0.87618329989E+02 -0.88839480659E+02  0.12979483754E+03  0.00000000000E+00 0.  1.
         21    1    1    2  504  502  0.30922520454E+02  0.76496854520E+01 -0.22381045656E+03  0.22606600900E+03  0.00000000000E+00 0.  1.
         21    1    1    2  505  501 -0.39072153421E+02 -0.20588548774E+02  0.39870681269E+02  0.59499518809E+02  0.00000000000E+00 0. -1.
         21    1    1    2  506  505 -0.27589348251E+02 -0.74679466667E+02 -0.87572777493E+01  0.80092975922E+02  0.00000000000E+00 0.  1.
<scales pt_clust_3="92.16486" pt_clust_4="31.85467" pt_clust_5="42.31163" pt_clust_6="14000.00000"></scales>
<clustering>
<clus scale="   31.855">  2  4  1 -1</clus>
<clus scale="   42.312">  1  5  2 -1</clus>
<clus scale="   92.165">  2  3  1 -1</clus>
<clus scale="   42.312">  1  3  2 -1</clus>
</clustering>
</event>
<event>
 6    0  0.1221518E+003  0.7208112E+02  0.7546771E-02  0.1353156E+00
         21   -1    0    0  503  501  0.00000000000E+00  0.00000000000E+00  0.28159810820E+02  0.28159810820E+02  0.00000000000E+00 0. -1.
         21   -1    0    0  504  502 -0.00000000000E+00 -0.00000000000E+00 -0.21626360029E+04  0.21626360029E+04  0.00000000000E+00 0. -1.
         21    1    1    2  503  505  0.44120904023E+02 -0.83833784675E+02 -0.31380109234E+03  0.32778938844E+03  0.00000000000E+00 0. -1.
         21    1    1    2  504  506 -0.60387961316E+02  0.60470921843E+02 -0.57393508020E+03  0.58026279783E+03  0.00000000000E+00 0. -1.
         21    1    1    2  505  502  0.23138456428E+02 -0.25011274599E+02 -0.12309129016E+04  0.12313843930E+04  0.00000000000E+00 0. -1.
         21    1    1    2  506  501 -0.68713991353E+01  0.48374137431E+02 -0.15827117926E+02  0.51359234419E+02  0.00000000000E+00 0. -1.
<scales pt_clust_3="72.08112" pt_clust_4="14000.00000" pt_clust_5="34.07275" pt_clust_6="47.85444"></scales>
<clustering>
<clus scale="   34.073">  2  5  1 -1</clus>
<clus scale="   47.854">  1  6  2 -1</clus>
<clus scale="   72.081">  1  3  2 -1</clus>
<clus scale="   47.854">  1  3  2 -1</clus>
</clustering>
</event>
<event>
 6    0  0.1221518E+003  0.1208546E+03  0.7546771E-02  0.1241694E+00
         21   -1    0    0  505  501  0.00000000000E+00  0.00000000000E+00  0.68358907807E+03  0.68358907807E+03  0.00000000000E+00 0.  1.
         21   -1    0    0  504  502 -0.00000000000E+00 -0.00000000000E+00 -0.20275005464E+03  0.20275005464E+03  0.00000000000E+00 0.  1.
         21    1    1    2  503  506  0.83133610212E+02 -0.15303860127E+03  0.35832711240E+01  0.17419773379E+03  0.00000000000E+00 0.  1.
         21    1    1    2  504  503 -0.17259614851E+02  0.62427231444E+02 -0.19467655221E+02  0.67631672538E+02  0.00000000000E+00 0.  1.
         21    1    1    2  505  502 -0.92066416470E+02  0.23927452910E+02 -0.39878885763E+02  0.10314588491E+03  0.00000000000E+00 0.  1.
         21    1    1    2  506  501  0.26192421109E+02  0.66683916911E+02  0.53660229329E+03  0.54136384148E+03  0.00000000000E+00 0.  1.
<scales pt_clust_3="14000.00000" pt_clust_4="64.76923" pt_clust_5="120.85462" pt_clust_6="72.42039"></scales>
<clustering>
<clus scale="   64.769">  2  4  1 -1</clus>
<clus scale="   72.420">  1  6  2 -1</clus>
<clus scale="  120.855">  2  5  1 -1</clus>
<clus scale="   72.420">  1  3  2 -1</clus>
</clustering>
</event>
<event>
 6    0  0.1221518E+003  0.2043526E+03  0.7546771E-02  0.1146118E+00
         21   -1    0    0  502  501  0.00000000000E+00  0.00000000000E+00  0.24909268710E+03  0.24909268710E+03  0.00000000000E+00 0. -1.
         21   -1    0    0  506  502 -0.00000000000E+00 -0.00000000000E+00 -0.71807815669E+03  0.71807815669E+03  0.00000000000E+00 0. -1.
         21    1    1    2  503  505 -0.98408968832E+02  0.10106507532E+03  0.11208469888E+03  0.18017062557E+03  0.00000000000E+00 0. -1.
         21    1    1    2  504  503  0.12729796825E+03 -0.18105617763E+03 -0.57288767250E+03  0.61415502723E+03  0.00000000000E+00 0. -1.
         21    1    1    2  505  501  0.10474371320E+02  0.59085138172E+02  0.64176927157E+02  0.87860366416E+02  0.00000000000E+00 0. -1.
         21    1    1    2  506  504 -0.39363370734E+02  0.20905964135E+02 -0.72359423125E+02  0.84984824568E+02  0.00000000000E+00 0. -1.
<scales pt_clust_3="55.75104" pt_clust_4="185.38644" pt_clust_5="55.75104" pt_clust_6="44.57055"></scales>
<clustering>
<clus scale="   44.571">  2  6  1 -1</clus>
<clus scale="   55.751">  3  5 -1 -1</clus>
<clus scale="  185.386">  2  4  1 -1</clus>
<clus scale="  204.353">  1  3  2 -1</clus>
</clustering>
</event>
<event>
 6    0  0.1221518E+003  0.8885488E+02  0.7546771E-02  0.1305649E+00
         21   -1    0    0  503  501  0.00000000000E+00  0.00000000000E+00  0.19199125723E+03  0.19199125723E+03  0.00000000000E+00 0.  1.
         21   -1    0    0  506  502 -0.00000000000E+00 -0.00000000000E+00 -0.20411151892E+03  0.20411151892E+03  0.00000000000E+00 0.  1.
         21    1    1    2  503  504 -0.11013173558E+02  0.44237435458E+02  0.21387026448E+02  0.50355194251E+02  0.00000000000E+00 0.  1.
         21    1    1    2  504  502 -0.76065955482E+01  0.10675741132E+03 -0.98860658810E+02  0.14569981135E+03  0.00000000000E+00 0.  1.
         21    1    1    2  505  501  0.33008102886E+02 -0.11531813537E+03  0.93744890014E+02  0.15223636755E+03  0.00000000000E+00 0.  1.
         21    1    1    2  506  505 -0.14388333780E+02 -0.35676711407E+02 -0.28391519348E+02  0.47811402998E+02  0.00000000000E+00 0.  1.
<scales pt_clust_3="42.91571" pt_clust_4="14000.00000" pt_clust_5="88.85488" pt_clust_6="38.46884"></scales>
<clustering>
<clus scale="   38.469">  2  6  1 -1</clus>
<clus scale="   42.916">  1  3  2 -1</clus>
<clus scale="   88.855">  1  5  2 -1</clus>
<clus scale="   42.916">  1  3  2 -1</clus>
</clustering>
</event>
<event>
 6    0  0.1221518E+003  0.9390570E+02  0.7546771E-02  0.1293660E+00
         21   -1    0    0  506  501  0.00000000000E+00  0.00000000000E+00  0.10622595260E+04  0.10622595260E+04  0.00000000000E+00 0.  1.
         21   -1    0    0  504  502 -0.00000000000E+00 -0.00000000000E+00 -0.71195843012E+02  0.71195843012E+02  0.00000000000E+00 0.  1.
         21    1    1    2  503  505  0.50740817240E+02  0.88750728597E+02  0.72041958670E+03  0.72763706837E+03  0.00000000000E+00 0.  1.
         21    1    1    2  504  501 -0.59623761388E+02 -0.36631060658E+02  0.55568230966E+02  0.89356901354E+02  0.00000000000E+00 0.  1.
         21    1    1    2  505  502 -0.42295963100E+02 -0.57030900862E+01 -0.36135442478E+02  0.55921766193E+02  0.00000000000E+00 0.  1.
         21    1    1    2  506  503  0.51178907248E+02 -0.46416577853E+02  0.25121130777E+03  0.26053963306E+03  0.00000000000E+00 0.  1.
<scales pt_clust_3="93.90570" pt_clust_4="14000.00000" pt_clust_5="42.67873" pt_clust_6="64.28156"></scales>
<clustering>
<clus scale="   42.679">  2  5  1 -1</clus>
<clus scale="   64.282">  1  6  2 -1</clus>
<clus scale="   93.906">  1  3  2 -1</clus>
<clus scale="   64.282">  1  3  2 -1</clus>
</clustering>
</event>
<event>
 6    0  0.1221518E+003  0.8513100E+02  0.7546771E-02  0.1315090E+00
         21   -1    0    0  505  501  0.00000000000E+00  0.00000000000E+00  0.73411330660E+03  0.73411330660E+03  0.00000000000E+00 0.  1.
         21   -1    0    0  504  502 -0.00000000000E+00 -0.00000000000E+00 -0.11482215498E+03  0.11482215498E+03  0.00000000000E+00 0. -1.
         21    1    1    2  503  502  0.86495963858E+02  0.38497203070E+02  0.43435202623E+02  0.10416430883E+03  0.00000000000E+00 0. -1.
         21    1    1    2  504  501  0.10102725439E+02 -0.41265794687E+02 -0.72463959828E+02  0.83999740156E+02  0.00000000000E+00 0. -1.
         21    1    1    2  505  506 -0.49621791856E+02  0.42714603248E+02  0.36394855374E+03  0.36979103468E+03  0.00000000000E+00 0.  1.
         21    1    1    2  506  503 -0.46976897440E+02 -0.39946011631E+02  0.28437135508E+03  0.29098037791E+03  0.00000000000E+00 0. -1.
<scales pt_clust_3="85.13100" pt_clust_4="42.48448" pt_clust_5="62.74448" pt_clust_6="14000.00000"></scales>
<clustering>
<clus scale="   42.484">  2  4  1 -1</clus>
<clus scale="   62.744">  1  5  2 -1</clus>
<clus scale="   85.131">  2  3  1 -1</clus>
<clus scale="   62.744">  1  3  2 -1</clus>
</clustering>
</event>
<event>
 6    0  0.1221518E+003  0.1044542E+03  0.7546771E-02  0.1271199E+00
         21   -1    0    0  505  501  0.00000000000E+00  0.00000000000E+00  0.19349909739E+03  0.19349909739E+03  0.00000000000E+00 0.  1.
         21   -1    0    0  506  502 -0.00000000000E+00 -0.00000000000E+00 -0.24473138599E+04  0.24473138599E+04  0.00000000000E+00 0.  1.
         21    1    1    2  503  504 -0.67201633283E+01 -0.12084175444E+03  0.39837192554E+02  0.12741621609E+03  0.00000000000E+00 0.  1.
         21    1    1    2  504  502 -0.89468921720E+02  0.93963893007E+01 -0.21878037210E+04  0.21896525071E+04  0.00000000000E+00 0.  1.
         21    1    1    2  505  503  0.23435493924E+02  0.93586838164E+02  0.78742425275E+02  0.12453147470E+03  0.00000000000E+00 0.  1.
         21    1    1    2  506  501  0.72753591125E+02  0.17858526977E+02 -0.18459065932E+03  0.19921275942E+03  0.00000000000E+00 0.  1.
<scales pt_clust_3="104.45422" pt_clust_4="32.71495" pt_clust_5="14000.00000" pt_clust_6="74.91336"></scales>
<clustering>
<clus scale="   74.913">  2  6  1 -1</clus>
<clus scale="   32.715">  2  4  1 -1</clus>
<clus scale="  104.454">  2  3  1 -1</clus>
<clus scale="  104.454">  1  3  2 -1</clus>
</clustering>
</event>
<event>
 6    0  0.1221518E+003  0.1135189E+03  0.7546771E-02  0.1254189E+00
         21   -1    0    0  506  501  0.00000000000E+00  0.00000000000E+00  0.70464513805E+03  0.70464513805E+03  0.00000000000E+00 0. -1.
         21   -1    0    0  504  502 -0.00000000000E+00 -0.00000000000E+00 -0.92338818264E+02  0.92338818264E+02  0.00000000000E+00 0. -1.
         21    1    1    2  503  501  0.49828722132E+02  0.10043992760E+03 -0.23284125758E+02  0.11451301725E+03  0.00000000000E+00 0. -1.
         21    1    1    2  504  503  0.32602662887E+02  0.15713171553E+01  0.33036973592E+02  0.46441837700E+02  0.00000000000E+00 0.  1.
         21    1    1    2  505  502 -0.54497644285E+02  0.83464209682E+01  0.59273945299E+02  0.80950951613E+02  0.00000000000E+00 0.  1.
         21    1    1    2  506  505 -0.27933740733E+02 -0.11035766573E+03  0.54327952665E+03  0.55507814975E+03  0.00000000000E+00 0. -1.
<scales pt_clust_3="113.51886" pt_clust_4="32.64051" pt_clust_5="51.09101" pt_clust_6="14000.00000"></scales>
<clustering>
<clus scale="   32.641">  2  4  1 -1</clus>
<clus scale="   51.091">  2  5  1 -1</clus>
<clus scale="  113.519">  2  3  1 -1</clus>
<clus scale="  113.519">  1  3  2 -1</clus>
</clustering>
</event>
<event>
 6    0  0.3259407E+003  0.1246991E+03  0.7546771E-02  0.1235540E+00
         21   -1    0    0  506  501  0.00000000000E+00  0.00000000000E+00  0.14496543092E+04  0.14496543092E+04  0.00000000000E+00 0. -1.
         21   -1    0    0  505  502 -0.00000000000E+00 -0.00000000000E+00 -0.11365965117E+04  0.11365965117E+04  0.00000000000E+00 0. -1.
         21    1    1    2  503  501 -0.38114608772E+02  0.81656456177E+01  0.52966697327E+03  0.53109933509E+03  0.00000000000E+00 0. -1.
         21    1    1    2  504  502  0.57219072348E+01 -0.47687162949E+02 -0.10468054613E+04  0.10479067132E+04  0.00000000000E+00 0. -1.
         21    1    1    2  505  503  0.66259754121E+02 -0.58243237513E+02 -0.62790986419E+02  0.10828359852E+03  0.00000000000E+00 0.  1.
         21    1    1    2  506  504 -0.33867052584E+02  0.97764754844E+02  0.89298727201E+03  0.89896117408E+03  0.00000000000E+00 0. -1.
<scales pt_clust_3="38.97950" pt_clust_4="48.02165" pt_clust_5="14000.00000" pt_clust_6="124.69913"></scales>
<clustering>
<clus scale="   38.979">  1  3  2 -1</clus>
<clus scale="   48.022">  2  4  1 -1</clus>
<clus scale="  124.699">  1  6  2 -1</clus>
<clus scale="   38.979">  1  3  2 -1</clus>
</clustering>
</event>
<event>
 6    0  0.1221518E+003  0.8532364E+02  0.7546771E-02  0.1314588E+00
         21   -1    0    0  506  501  0.00000000000E+00  0.00000000000E+00  0.61812904237E+03  0.61812904237E+03  0.00000000000E+00 0. -1.
         21   -1    0    0  504  502 -0.00000000000E+00 -0.00000000000E+00 -0.14693842077E+03  0.14693842077E+03  0.00000000000E+00 0. -1.
         21    1    1    2  503  501 -0.26284949778E+02  0.49965543752E+02  0.36820315793E+03  0.37250640217E+03  0.00000000000E+00 0. -1.
         21    1    1    2  504  503 -0.43798923519E+02  0.39805259901E+02  0.14982735243E+03  0.16109326477E+03  0.00000000000E+00 0. -1.
         21    1    1    2  505  502 -0.11211493729E+02 -0.36918519464E+02 -0.10944582523E+03  0.11604767697E+03  0.00000000000E+00 0. -1.
         21    1    1    2  506  505  0.81295367026E+02 -0.52852284189E+02  0.62605936456E+02  0.11542011923E+03  0.00000000000E+00 0. -1.
<scales pt_clust_3="54.75652" pt_clust_4="14000.00000" pt_clust_5="38.58335" pt_clust_6="85.32364"></scales>
<clustering>
<clus scale="   38.583">  2  5  1 -1</clus>
<clus scale="   54.757">  1  3  2 -1</clus>
<clus scale="   85.324">  2  6  1 -1</clus>
<clus scale="   54.757">  1  3  2 -1</clus>
</clustering>
</event>
<event>
 6    0  0.1221518E+003  0.9736822E+02  0.7546771E-02  0.1285930E+00
         21   -1    0    0  505  501  0.00000000000E+00  0.00000000000E+00  0.14641010084E+03  0.14641010084E+03  0.00000000000E+00 0.  1.
         21   -1    0    0  506  502 -0.00000000000E+00 -0.00000000000E+00 -0.25720071804E+03  0.25720071804E+03  0.00000000000E+00 0. -1.
         21    1    1    2  503  501 -0.34213835163E+02 -0.22259455684E+02  0.64078668472E+01  0.41317437499E+02  0.00000000000E+00 0. -1.
         21    1    1    2  504  503  0.10372542378E+03 -0.29400549813E+02  0.56721441193E+02  0.12182232044E+03  0.00000000000E+00 0.  1.
         21    1    1    2  505  502 -0.10233832921E+03  0.43973299027E+02 -0.70807434976E+02  0.13198665652E+03  0.00000000000E+00 0. -1.
         21    1    1    2  506  504  0.32826740593E+02  0.76867064694E+01 -0.10311249026E+03  0.10848440442E+03  0.00000000000E+00 0. -1.
<scales pt_clust_3="37.18549" pt_clust_4="14000.00000" pt_clust_5="97.36822" pt_clust_6="33.71469"></scales>
<clustering>
<clus scale="   33.715">  2  6  1 -1</clus>
<clus scale="   37.185">  1  3  2 -1</clus>
<clus scale="   97.368">  2  5  1 -1</clus>
<clus scale="   37.185">  1  3  2 -1</clus>
</clustering>
</event>
<event>
 6    0  0.1221518E+003  0.8040612E+02  0.7546771E-02  0.1327903E+00
         21   -1    0    0  503  501  0.00000000000E+00  0.00000000000E+00  0.10811620057E+03  0.10811620057E+03  0.00000000000E+00 0. -1.
         21   -1    0    0  505  502 -0.00000000000E+00 -0.00000000000E+00 -0.13735242472E+04  0.13735242472E+04  0.00000000000E+00 0. -1.
         21    1    1    2  503  504 -0.11150463177E+03  0.64880807371E+01 -0.23131460334E+02  0.11406332695E+03  0.00000000000E+00 0. -1.
         21    1    1    2  504  502  0.67203090683E+02  0.71930401700E+01 -0.46894199662E+03  0.47378749605E+03  0.00000000000E+00 0. -1.
         21    1    1    2  505  506  0.95215177760E+01 -0.31283775565E+02 -0.82689756258E+03  0.82754390392E+03  0.00000000000E+00 0. -1.
         21    1    1    2  506  501  0.34780023308E+02  0.17602654658E+02  0.53562972874E+02  0.66245720883E+02  0.00000000000E+00 0. -1.
<scales pt_clust_3="14000.00000" pt_clust_4="80.40612" pt_clust_5="32.70067" pt_clust_6="38.91724"></scales>
<clustering>
<clus scale="   32.701">  2  5  1 -1</clus>
<clus scale="   38.917">  1  6  2 -1</clus>
<clus scale="   80.406">  2  4  1 -1</clus>
<clus scale="   38.917">  1  3  2 -1</clus>
</clustering>
</event>
<event>
 6    0  0.1221518E+003  0.8175929E+02  0.7546771E-02  0.1324132E+00
         21   -1    0    0  504  501  0.00000000000E+00  0.00000000000E+00  0.35951703547E+03  0.35951703547E+03  0.00000000000E+00 0. -1.
         21   -1    0    0  505  502 -0.00000000000E+00 -0.00000000000E+00 -0.24580365557E+03  0.24580365557E+03  0.00000000000E+00 0. -1.
         21    1    1    2  503  502  0.36050508318E+02 -0.32350594720E+02 -0.14061862679E+03  0.14872726156E+03  0.00000000000E+00 0. -1.
         21    1    1    2  504  506 -0.35746711815E+02  0.73605982110E+02  0.23237417579E+03  0.24636035716E+03  0.00000000000E+00 0. -1.
         21    1    1    2  505  501 -0.10794096846E+02 -0.91510479654E+02  0.87437305520E+02  0.12702740968E+03  0.00000000000E+00 0. -1.
         21    1    1    2  506  503  0.10490300344E+02  0.50255092264E+02 -0.65479474611E+02  0.83205662638E+02  0.00000000000E+00 0. -1.
<scales pt_clust_3="48.43759" pt_clust_4="81.75929" pt_clust_5="14000.00000" pt_clust_6="45.48880"></scales>
<clustering>
<clus scale="   48.438">  2  3  1 -1</clus>
<clus scale="   45.489">  2  6  1 -1</clus>
<clus scale="   81.759">  1  4  2 -1</clus>
<clus scale="   81.759">  1  3  2 -1</clus>
</clustering>
</event>
<event>
 6    0  0.1221518E+003  0.1016446E+03  0.7546771E-02  0.1276875E+00
         21   -1    0    0  503  501  0.00000000000E+00  0.00000000000E+00  0.11874444911E+04  0.11874444911E+04  0.00000000000E+00 0.  1.
         21   -1    0    0  506  502 -0.00000000000E+00 -0.00000000000E+00 -0.15646951812E+03  0.15646951812E+03  0.00000000000E+00 0.  1.
         21    1    1    2  503  502  0.38433473280E+02 -0.17878375436E+02 -0.11385952599E+03  0.12149386748E+03  0.00000000000E+00 0.  1.
         21    1    1    2  504  505 -0.81273336919E+01  0.13018472206E+03  0.79985113889E+03  0.81041715172E+03  0.00000000000E+00 0.  1.
         21    1    1    2  505  501  0.17176245660E+02 -0.29638273599E+02  0.30775849054E+03  0.30965906926E+03  0.00000000000E+00 0. -1.
         21    1    1    2  506  504 -0.47482385248E+02 -0.82668073026E+02  0.37224869531E+02  0.10234392077E+03  0.00000000000E+00 0. -1.
<scales pt_clust_3="42.51034" pt_clust_4="14000.00000" pt_clust_5="34.25567" pt_clust_6="101.64464"></scales>
<clustering>
<clus scale="   34.256">  1  5  2 -1</clus>
<clus scale="   42.510">  2  3  1 -1</clus>
<clus scale="  101.645">  2  6  1 -1</clus>
<clus scale="   34.256">  1  3  2 -1</clus>
</clustering>
</event>
<event>
 6    0  0.1221518E+003  0.6652112E+02  0.7546771E-02  0.1372339E+00
         21   -1    0    0  503  501  0.00000000000E+00  0.00000000000E+00  0.61229807680E+02  0.61229807680E+02  0.00000000000E+00 0.  1.
         21   -1    0    0  505  502 -0.00000000000E+00 -0.00000000000E+00 -0.10991704439E+04  0.10991704439E+04  0.00000000000E+00 0. -1.
         21    1    1    2  503  502 -0.16371035070E+02  0.44330579749E+02 -0.60261700420E+03  0.60446709161E+03  0.00000000000E+00 0. -1.
         21    1    1    2  504  506  0.59290562818E+02 -0.18320822999E+02 -0.97648999258E+02  0.11569939693E+03  0.00000000000E+00 0. -1.
         21    1    1    2  505  504  0.79711251401E+01 -0.72130386988E+02 -0.36059895709E+03  0.36782868216E+03  0.00000000000E+00 0. -1.
         21    1    1    2  506  501 -0.50890652888E+02  0.46120630238E+02  0.22924324359E+02  0.72405080846E+02  0.00000000000E+00 0.  1.
<scales pt_clust_3="47.25686" pt_clust_4="14000.00000" pt_clust_5="39.76168" pt_clust_6="66.52112"></scales>
<clustering>
<clus scale="   47.257">  2  3  1 -1</clus>
<clus scale="   39.762">  2  5  1 -1</clus>
<clus scale="   66.521">  1  6  2 -1</clus>
<clus scale="   66.521">  1  3  2 -1</clus>
</clustering>
</event>
<event>
 6    0  0.1221518E+003  0.1005800E+03  0.7546771E-02  0.1279081E+00
         21   -1    0    0  504  501  0.00000000000E+00  0.00000000000E+00  0.54869730085E+03  0.54869730085E+03  0.00000000000E+00 0. -1.
         21   -1    0    0  506  502 -0.00000000000E+00 -0.00000000000E+00 -0.73750932360E+03  0.73750932360E+03  0.00000000000E+00 0.  1.
         21    1    1    2  503  501  0.43084161890E+02  0.46571224558E+02  0.33821622991E+03  0.34411530355E+03  0.00000000000E+00 0. -1.
         21    1    1    2  504  502  0.64992274748E+02 -0.10069488372E+03  0.90173252808E+02  0.14998223531E+03  0.00000000000E+00 0. -1.
         21    1    1    2  505  503 -0.73619680697E+02  0.49204892914E+02  0.64480773978E+02  0.10953880173E+03  0.00000000000E+00 0. -1.
         21    1    1    2  506  505 -0.34456755941E+02  0.49187662524E+01 -0.68168227945E+03  0.68257028386E+03  0.00000000000E+00 0.  1.
<scales pt_clust_3="62.40861" pt_clust_4="100.57995" pt_clust_5="14000.00000" pt_clust_6="34.80607"></scales>
<clustering>
<clus scale="   34.806">  2  6  1 -1</clus>
<clus scale="   62.409">  1  3  2 -1</clus>
<clus scale="  100.580">  2  4  1 -1</clus>
<clus scale="   62.409">  1  3  2 -1</clus>
</clustering>
</event>
<event>
 6    0  0.1221518E+003  0.7106135E+02  0.7546771E-02  0.1356521E+00
         21   -1    0    0  504  501  0.00000000000E+00  0.00000000000E+00  0.99045210827E+02  0.99045210827E+02  0.00000000000E+00 0.  1.
         21   -1    0    0  503  502 -0.00000000000E+00 -0.00000000000E+00 -0.31702531678E+03  0.31702531678E+03  0.00000000000E+00 0.  1.
         21    1    1    2  503  506  0.40178250813E+02 -0.27303914880E+01 -0.82022980782E+02  0.91375687425E+02  0.00000000000E+00 0.  1.
         21    1    1    2  504  505 -0.61066451130E+02  0.16120310256E+02  0.28959246539E+02  0.69481032063E+02  0.00000000000E+00 0.  1.
         21    1    1    2  505  502  0.10016265402E+03 -0.17135822105E+02 -0.44356643043E+02  0.11087698337E+03  0.00000000000E+00 0.  1.
         21    1    1    2  506  501 -0.79274453704E+02  0.37459033369E+01 -0.12055972866E+03  0.14433682474E+03  0.00000000000E+00 0.  1.
<scales pt_clust_3="40.27092" pt_clust_4="71.06135" pt_clust_5="14000.00000" pt_clust_6="56.21219"></scales>
<clustering>
<clus scale="   40.271">  2  3  1 -1</clus>
<clus scale="   56.212">  2  6  1 -1</clus>
<clus scale="   71.061">  1  4  2 -1</clus>
<clus scale="   71.061">  1  3  2 -1</clus>
</clustering>
</event>
<event>
 6    0  0.1221518E+003  0.1193127E+03  0.7546771E-02  0.1244235E+00
         21   -1    0    0  503  501  0.00000000000E+00  0.00000000000E+00  0.46156139418E+03  0.46156139418E+03  0.00000000000E+00 0.  1.
         21   -1    0    0  505  502 -0.00000000000E+00 -0.00000000000E+00 -0.87364927572E+03  0.87364927572E+03  0.00000000000E+00 0. -1.
         21    1    1    2  503  506  0.15471708417E+02  0.93407967155E+02 -0.33881705354E+02  0.10056039005E+03  0.00000000000E+00 0. -1.
         21    1    1    2  504  501  0.66829723615E+02  0.22746062910E+01  0.41184529681E+03  0.41723846215E+03  0.00000000000E+00 0.  1.
         21    1    1    2  505  504 -0.11669970342E+03 -0.98516460541E+02 -0.44176063733E+03  0.46741499171E+03  0.00000000000E+00 0. -1.
         21    1    1    2  506  502  0.34398271391E+02  0.28338870954E+01 -0.34829083567E+03  0.34999682599E+03  0.00000000000E+00 0. -1.
<scales pt_clust_3="119.31273" pt_clust_4="67.04566" pt_clust_5="14000.00000" pt_clust_6="34.51481"></scales>
<clustering>
<clus scale="   34.515">  2  6  1 -1</clus>
<clus scale="   67.046">  1  4  2 -1</clus>
<clus scale="  119.313">  1  3  2 -1</clus>
<clus scale="   67.046">  1  3  2 -1</clus>
</clustering>
</event>
<event>
 6    0  0.1221518E+003  0.1415426E+03  0.7546771E-02  0.1211268E+00
         21   -1    0    0  504  501  0.00000000000E+00  0.00000000000E+00  0.38594822053E+03  0.38594822053E+03  0.00000000000E+00 0. -1.
         21   -1    0    0  506  502 -0.00000000000E+00 -0.00000000000E+00 -0.19993256656E+03  0.19993256656E+03  0.00000000000E+00 0.  1.
         21    1    1    2  503  501  0.43494515254E+02  0.16159320362E+02 -0.51061106105E+01  0.46679426489E+02  0.00000000000E+00 0. -1.
         21    1    1    2  504  502  0.32731721077E+01 -0.31994509246E+02  0.25240034375E+03  0.25444114409E+03  0.00000000000E+00 0. -1.
         21    1    1    2  505  503  0.81113296628E+02 -0.80216082465E+01  0.64399625936E+02  0.10387985805E+03  0.00000000000E+00 0. -1.
         21    1    1    2  506  505 -0.12788098399E+03  0.23856797130E+02 -0.12567820512E+03  0.18088035846E+03  0.00000000000E+00 0.  1.
<scales pt_clust_3="42.87669" pt_clust_4="32.16150" pt_clust_5="42.87669" pt_clust_6="128.35604"></scales>
<clustering>
<clus scale="   32.162">  1  4  2 -1</clus>
<clus scale="   42.877">  3  5 -1 -1</clus>
<clus scale="  128.356">  2  6  1 -1</clus>
<clus scale="   32.162">  1  3  2 -1</clus>
</clustering>
</event>
<event>
 6    0  0.1221518E+003  0.9560760E+02  0.7546771E-02  0.1289813E+00
         21   -1    0    0  506  501  0.00000000000E+00  0.00000000000E+00  0.24711491896E+03  0.24711491896E+03  0.00000000000E+00 0. -1.
         21   -1    0    0  504  502 -0.00000000000E+00 -0.00000000000E+00 -0.11617634372E+04  0.11617634372E+04  0.00000000000E+00 0. -1.
         21    1    1    2  503  502 -0.96301893453E+02  0.39266477468E+01 -0.10982389716E+04  0.11024601181E+04  0.00000000000E+00 0. -1.
         21    1    1    2  504  505  0.68673426234E+02  0.83954287057E+01  0.58382109214E+02  0.90526202671E+02  0.00000000000E+00 0. -1.
         21    1    1    2  505  501 -0.25615958866E+02 -0.45575855312E+02  0.14165730486E+03  0.15099711241E+03  0.00000000000E+00 0. -1.
         21    1    1    2  506  503  0.53244426085E+02  0.33253778859E+02 -0.16448960695E+02  0.64894922956E+02  0.00000000000E+00 0. -1.
<scales pt_clust_3="95.60760" pt_clust_4="14000.00000" pt_clust_5="52.28132" pt_clust_6="52.10161"></scales>
<clustering>
<clus scale="   52.281">  1  5  2 -1</clus>
<clus scale="   52.102">  1  6  2 -1</clus>
<clus scale="   95.608">  2  3  1 -1</clus>
<clus scale="   52.281">  1  3  2 -1</clus>
</clustering>
</event>
<event>
 6    0  0.1221518E+003  0.9232760E+02  0.7546771E-02  0.1297311E+00
         21   -1    0    0  505  501  0.00000000000E+00  0.00000000000E+00  0.85272969225E+03  0.85272969225E+03  0.00000000000E+00 0.  1.
         21   -1    0    0  506  502 -0.00000000000E+00 -0.00000000000E+00 -0.11043148102E+03  0.11043148102E+03  0.00000000000E+00 0.  1.
         21    1    1    2  503  501 -0.90077888829E+02 -0.83941597650E+01  0.65594748000E+03  0.66215676731E+03  0.00000000000E+00 0.  1.
         21    1    1    2  504  502  0.24337542630E+02  0.28627568331E+02  0.32016471452E+02  0.49365049316E+02  0.00000000000E+00 0.  1.
         21    1    1    2  505  504  0.14317222242E+03 -0.14573383523E+02 -0.18609089439E+02  0.14511018913E+03  0.00000000000E+00 0.  1.
         21    1    1    2  506  503 -0.77431876219E+02 -0.56600250422E+01  0.72943349220E+02  0.10652916753E+03  0.00000000000E+00 0. -1.
<scales pt_clust_3="92.32760" pt_clust_4="37.57464" pt_clust_5="14000.00000" pt_clust_6="73.42143"></scales>
<clustering>
<clus scale="   37.575">  2  4  1 -1</clus>
<clus scale="   73.421">  2  6  1 -1</clus>
<clus scale="   92.328">  1  3  2 -1</clus>
<clus scale="   92.328">  1  3  2 -1</clus>
</clustering>
</event>
<event>
 6    0  0.1221518E+003  0.8637375E+02  0.7546771E-02  0.1311879E+00
         21   -1    0    0  505  501  0.00000000000E+00  0.00000000000E+00  0.57040263577E+03  0.57040263577E+03  0.00000000000E+00 0.  1.
         21   -1    0    0  506  502 -0.00000000000E+00 -0.00000000000E+00 -0.29262813938E+03  0.29262813938E+03  0.00000000000E+00 0.  1.
         21    1    1    2  503  502  0.28102497487E+02  0.75467214834E+02 -0.25645200601E+03  0.26879859053E+03  0.00000000000E+00 0.  1.
         21    1    1    2  504  503  0.71792517374E+02 -0.89958449128E+02  0.14798653245E+03  0.18747453669E+03  0.00000000000E+00 0. -1.
         21    1    1    2  505  504 -0.67672423865E+02 -0.68684125208E+01  0.33879961351E+03  0.34556028440E+03  0.00000000000E+00 0.  1.
         21    1    1    2  506  501 -0.32222590996E+02  0.21359646815E+02  0.47440356442E+02  0.61197363521E+02  0.00000000000E+00 0.  1.
<scales pt_clust_3="80.63600" pt_clust_4="86.37375" pt_clust_5="14000.00000" pt_clust_6="38.65915"></scales>
<clustering>
<clus scale="   38.659">  1  6  2 -1</clus>
<clus scale="   80.636">  2  3  1 -1</clus>
<clus scale="   86.374">  2  4  1 -1</clus>
<clus scale="   38.659">  1  3  2 -1</clus>
</clustering>
</event>
<event>
 6    0  0.1221518E+003  0.1295306E+03  0.7546771E-02  0.1228154E+00
         21   -1    0    0  505  501  0.00000000000E+00  0.00000000000E+00  0.25826363770E+03  0.25826363770E+03  0.00000000000E+00 0. -1.
         21   -1    0    0  503  502 -0.00000000000E+00 -0.00000000000E+00 -0.12415880182E+03  0.12415880182E+03  0.00000000000E+00 0. -1.
         21    1    1    2  503  504 -0.75396764272E+02 -0.32919664767E+02 -0.42795446567E+02  0.92735250245E+02  0.00000000000E+00 0. -1.
         21    1    1    2  504  506  0.69096146995E+02  0.11975540524E+01  0.46287801706E+02  0.83176151943E+02  0.00000000000E+00 0. -1.
         21    1    1    2  505  502 -0.53050060756E+02  0.32058138598E+02 -0.11536241524E+01  0.61994871121E+02  0.00000000000E+00 0. -1.
         21    1    1    2  506  501  0.59350678032E+02 -0.33602788348E+00  0.13176610489E+03  0.14451616621E+03  0.00000000000E+00 0. -1.
<scales pt_clust_3="114.61634" pt_clust_4="55.92206" pt_clust_5="61.98414" pt_clust_6="55.92206"></scales>
<clustering>
<clus scale="   55.922">  4  6 -1 -1</clus>
<clus scale="   61.984">  2  5  1 -1</clus>
<clus scale="  114.616">  2  3  1 -1</clus>
<clus scale="  129.531">  1  3  2 -1</clus>
</clustering>
</event>
<event>
 6    0  0.1221518E+003  0.1311609E+03  0.7546771E-02  0.1225743E+00
         21   -1    0    0  504  501  0.00000000000E+00  0.00000000000E+00  0.31399528402E+02  0.31399528402E+02  0.00000000000E+00 0. -1.
         21   -1    0    0  506  502 -0.00000000000E+00 -0.00000000000E+00 -0.84338708710E+03  0.84338708710E+03  0.00000000000E+00 0. -1.
         21    1    1    2  503  505  0.88350061193E+00 -0.56805706786E+02 -0.60047432737E+02  0.82664158346E+02  0.00000000000E+00 0. -1.
         21    1    1    2  504  502 -0.56067857178E+02  0.11597748317E+03 -0.51917163640E+03  0.53491454388E+03  0.00000000000E+00 0. -1.
         21    1    1    2  505  501  0.50192146881E+02 -0.81265740648E+01 -0.69776608615E+02  0.86336944145E+02  0.00000000000E+00 0.  1.
         21    1    1    2  506  503  0.49922096858E+01 -0.51045202319E+02 -0.16299188094E+03  0.17087096913E+03  0.00000000000E+00 0.  1.
<scales pt_clust_3="48.54343" pt_clust_4="119.73305" pt_clust_5="50.84577" pt_clust_6="48.54343"></scales>
<clustering>
<clus scale="   50.846">  1  5  2 -1</clus>
<clus scale="   48.543">  3  6 -1 -1</clus>
<clus scale="  119.733">  2  4  1 -1</clus>
<clus scale="   50.846">  1  3  2 -1</clus>
</clustering>
</event>
<event>
 6    0  0.1221518E+003  0.1203396E+03  0.7546771E-02  0.1242538E+00
         21   -1    0    0  503  501  0.00000000000E+00  0.00000000000E+00  0.36659773180E+03  0.36659773180E+03  0.00000000000E+00 0.  1.
         21   -1    0    0  504  502 -0.00000000000E+00 -0.00000000000E+00 -0.11679729117E+03  0.11679729117E+03  0.00000000000E+00 0. -1.
         21    1    1    2  503  502  0.14314182841E+03  0.71345967524E+02  0.23207481632E+03  0.28184845307E+03  0.00000000000E+00 0.  1.
         21    1    1    2  504  505 -0.12708644806E+02 -0.43144964029E+02  0.10633403294E+02  0.46217603134E+02  0.00000000000E+00 0.  1.
         21    1    1    2  505  506 -0.87070590850E+02 -0.28570044238E+02 -0.31880485772E+02  0.97025257495E+02  0.00000000000E+00 0. -1.
         21    1    1    2  506  501 -0.43362592757E+02  0.36904074329E+00  0.38972706783E+02  0.58303709279E+02  0.00000000000E+00 0.  1.
<scales pt_clust_3="14000.00000" pt_clust_4="46.19213" pt_clust_5="120.33957" pt_clust_6="43.36416"></scales>
<clustering>
<clus scale="   43.364">  1  6  2 -1</clus>
<clus scale="   46.192">  2  4  1 -1</clus>
<clus scale="  120.340">  2  5  1 -1</clus>
<clus scale="   43.364">  1  3  2 -1</clus>
</clustering>
</event>
<event>
 6    0  0.1221518E+003  0.1376043E+03  0.7546771E-02  0.1216589E+00
         21   -1    0    0  503  501  0.00000000000E+00  0.00000000000E+00  0.22272387498E+03  0.22272387498E+03  0.00000000000E+00 0. -1.
         21   -1    0    0  504  502 -0.00000000000E+00 -0.00000000000E+00 -0.18445522161E+03  0.18445522161E+03  0.00000000000E+00 0.  1.
         21    1    1    2  503  505  0.13567142103E+03  0.47786146322E+02  0.66493184558E+02  0.15846638085E+03  0.00000000000E+00 0. -1.
         21    1    1    2  504  506 -0.13470634665E+03 -0.45312237276E+02 -0.70861999482E+01  0.14229972911E+03  0.00000000000E+00 0.  1.
         21    1    1    2  505  502  0.31460450085E+02 -0.26974048657E+02 -0.43455517351E+02  0.60047824346E+02  0.00000000000E+00 0.  1.
         21    1    1    2  506  501 -0.32425524469E+02  0.24500139611E+02  0.22317186107E+02  0.46365162286E+02  0.00000000000E+00 0. -1.
<scales pt_clust_3="137.60427" pt_clust_4="14000.00000" pt_clust_5="39.65482" pt_clust_6="40.64076"></scales>
<clustering>
<clus scale="   40.641">  1  6  2 -1</clus>
<clus scale="   39.655">  2  5  1 -1</clus>
<clus scale="  137.604">  1  3  2 -1</clus>
<clus scale="   40.641">  1  3  2 -1</clus>
</clustering>
</event>
<event>
 6    0  0.1221518E+003  0.1277394E+03  0.7546771E-02  0.1230849E+00
         21   -1    0    0  506  501  0.00000000000E+00  0.00000000000E+00  0.12662006524E+03  0.12662006524E+03  0.00000000000E+00 0.  1.
         21   -1    0    0  503  502 -0.00000000000E+00 -0.00000000000E+00 -0.18844457052E+04  0.18844457052E+04  0.00000000000E+00 0.  1.
         21    1    1    2  503  501  0.19252022983E+03 -0.61705433542E+01 -0.13248056262E+03  0.23378026856E+03  0.00000000000E+00 0.  1.
         21    1    1    2  504  502 -0.17998514131E+02 -0.75409513617E+02 -0.15090779389E+04  0.15110680882E+04  0.00000000000E+00 0.  1.
         21    1    1    2  505  504 -0.95013911680E+02  0.45137052916E+02 -0.14044966036E+03  0.17547394124E+03  0.00000000000E+00 0. -1.
         21    1    1    2  506  505 -0.79507804015E+02  0.36443004056E+02  0.24182521902E+02  0.90743472544E+02  0.00000000000E+00 0.  1.
<scales pt_clust_3="127.73941" pt_clust_4="77.52768" pt_clust_5="14000.00000" pt_clust_6="86.38811"></scales>
<clustering>
<clus scale="   77.528">  2  4  1 -1</clus>
<clus scale="   86.388">  1  6  2 -1</clus>
<clus scale="  127.739">  1  3  2 -1</clus>
<clus scale="   86.388">  1  3  2 -1</clus>
</clustering>
</event>
<event>
 6    0  0.1221518E+003  0.1092045E+03  0.7546771E-02  0.1262050E+00
         21   -1    0    0  506  501  0.00000000000E+00  0.00000000000E+00  0.13355763295E+04  0.13355763295E+04  0.00000000000E+00 0. -1.
         21   -1    0    0  505  502 -0.00000000000E+00 -0.00000000000E+00 -0.17988194794E+03  0.17988194794E+03  0.00000000000E+00 0. -1.
         21    1    1    2  503  501  0.65711303230E+02  0.30175746788E+02  0.21298660245E+03  0.22492630768E+03  0.00000000000E+00 0. -1.
         21    1    1    2  504  502 -0.95120459728E+02 -0.77531585045E+02 -0.13671102917E+03  0.18370888393E+03  0.00000000000E+00 0. -1.
         21    1    1    2  505  503 -0.16462332628E+02  0.38216265435E+02  0.19641137345E+02  0.46013754634E+02  0.00000000000E+00 0. -1.
         21    1    1    2  506  504  0.45871489126E+02  0.91395728222E+01  0.10597776710E+04  0.10608093312E+04  0.00000000000E+00 0. -1.
<scales pt_clust_3="14000.00000" pt_clust_4="109.20452" pt_clust_5="41.61119" pt_clust_6="46.74644"></scales>
<clustering>
<clus scale="   41.611">  2  5  1 -1</clus>
<clus scale="   46.746">  1  6  2 -1</clus>
<clus scale="  109.205">  2  4  1 -1</clus>
<clus scale="   46.746">  1  3  2 -1</clus>
</clustering>
</event>
<event>
 6    0  0.1221518E+003  0.1605786E+03  0.7546771E-02  0.1188045E+00
         21   -1    0    0  504  501  0.00000000000E+00  0.00000000000E+00  0.58510378438E+03  0.58510378438E+03  0.00000000000E+00 0.  1.
         21   -1    0    0  501  502 -0.00000000000E+00 -0.00000000000E+00 -0.19907122191E+03  0.19907122191E+03  0.00000000000E+00 0.  1.
         21    1    1    2  503  506  0.87140270903E+02  0.55341507812E+02  0.78528667509E+02  0.12970297190E+03  0.00000000000E+00 0.  1.
         21    1    1    2  504  505 -0.46660321428E+02 -0.16541170927E+02  0.18287384840E+03  0.18945617002E+03  0.00000000000E+00 0. -1.
         21    1    1    2  505  503 -0.13608654288E+03 -0.43017216388E+02  0.26155556472E+03  0.29796197995E+03  0.00000000000E+00 0.  1.
         21    1    1    2  506  502  0.95606593405E+02  0.42168795033E+01 -0.13692551816E+03  0.16705388442E+03  0.00000000000E+00 0.  1.
<scales pt_clust_3="150.56609" pt_clust_4="32.87237" pt_clust_5="32.87237" pt_clust_6="95.69954"></scales>
<clustering>
<clus scale="   32.872">  4  5 -1 -1</clus>
<clus scale="   95.700">  2  6  1 -1</clus>
<clus scale="  150.566">  2  3  1 -1</clus>
<clus scale="  160.579">  1  3  2 -1</clus>
</clustering>
</event>
<event>
 6    0  0.1221518E+003  0.1255657E+03  0.7546771E-02  0.1234188E+00
         21   -1    0    0  503  501  0.00000000000E+00  0.00000000000E+00  0.42188281675E+03  0.42188281675E+03  0.00000000000E+00 0.  1.
         21   -1    0    0  505  502 -0.00000000000E+00 -0.00000000000E+00 -0.19245668872E+03  0.19245668872E+03  0.00000000000E+00 0.  1.
         21    1    1    2  503  504  0.24786134007E+02 -0.17721946231E+02  0.19834246362E+03  0.20066926195E+03  0.00000000000E+00 0.  1.
         21    1    1    2  504  506  0.89725778068E+02 -0.78644272016E+02  0.12496877299E+03  0.17277971812E+03  0.00000000000E+00 0.  1.
         21    1    1    2  505  501 -0.11154705940E+03  0.43333276841E+02  0.14152125275E+02  0.12050229040E+03  0.00000000000E+00 0.  1.
         21    1    1    2  506  502 -0.29648526785E+01  0.53032941406E+02 -0.10803723386E+03  0.12038823500E+03  0.00000000000E+00 0.  1.
<scales pt_clust_3="30.46998" pt_clust_4="125.56574" pt_clust_5="14000.00000" pt_clust_6="52.59009"></scales>
<clustering>
<clus scale="   30.470">  1  3  2 -1</clus>
<clus scale="   52.590">  2  6  1 -1</clus>
<clus scale="  125.566">  1  4  2 -1</clus>
<clus scale="   30.470">  1  3  2 -1</clus>
</clustering>
</event>
<event>
 6    0  0.1221518E+003  0.8261801E+02  0.7546771E-02  0.1321782E+00
         21   -1    0    0  504  501  0.00000000000E+00  0.00000000000E+00  0.10954050239E+04  0.10954050239E+04  0.00000000000E+00 0. -1.
         21   -1    0    0  505  502 -0.00000000000E+00 -0.00000000000E+00 -0.10928840786E+03  0.10928840786E+03  0.00000000000E+00 0.  1.
         21    1    1    2  503  506 -0.10234875617E+03 -0.99028415974E+02 -0.12225792356E+02  0.14293832606E+03  0.00000000000E+00 0.  1.
         21    1    1    2  504  503  0.62960217096E+02  0.51389918029E+02  0.93509507944E+03  0.93862011496E+03  0.00000000000E+00 0. -1.
         21    1    1    2  505  501 -0.18899350591E+02  0.42469938311E+02  0.34811310285E+02  0.58075024207E+02  0.00000000000E+00 0. -1.
         21    1    1    2  506  502  0.58287889660E+02  0.51685596338E+01  0.28436018693E+02  0.65059966560E+02  0.00000000000E+00 0.  1.
<scales pt_clust_3="82.61801" pt_clust_4="14000.00000" pt_clust_5="46.48528" pt_clust_6="56.29708"></scales>
<clustering>
<clus scale="   46.485">  2  5  1 -1</clus>
<clus scale="   56.297">  2  6  1 -1</clus>
<clus scale="   82.618">  2  3  1 -1</clus>
<clus scale="   82.618">  1  3  2 -1</clus>
</clustering>
</event>
<event>
 6    0  0.1221518E+003  0.2594295E+03  0.7546771E-02  0.1107486E+00
         21   -1    0    0  504  501  0.00000000000E+00  0.00000000000E+00  0.37057247755E+03  0.37057247755E+03  0.00000000000E+00 0. -1.
         21   -1    0    0  506  502 -0.00000000000E+00 -0.00000000000E+00 -0.21296615965E+04  0.21296615965E+04  0.00000000000E+00 0.  1.
         21    1    1    2  503  505 -0.19839795890E+03  0.75490974380E+02  0.17183107867E+03  0.27310539524E+03  0.00000000000E+00 0. -1.
         21    1    1    2  504  503 -0.60796121178E+02 -0.33075913258E+02  0.11889225093E+03  0.13757017017E+03  0.00000000000E+00 0.  1.
         21    1    1    2  505  502 -0.38712016569E+02 -0.89370433979E+02 -0.35476810734E+03  0.36789414874E+03  0.00000000000E+00 0. -1.
         21    1    1    2  506  501  0.29790609665E+03  0.46955372857E+02 -0.16950443412E+04  0.17216643599E+04  0.00000000000E+00 0.  1.
<scales pt_clust_3="259.42953" pt_clust_4="69.21116" pt_clust_5="98.87766" pt_clust_6="14000.00000"></scales>
<clustering>
<clus scale="   69.211">  1  4  2 -1</clus>
<clus scale="   98.878">  2  5  1 -1</clus>
<clus scale="  259.430">  1  3  2 -1</clus>
<clus scale="   69.211">  1  3  2 -1</clus>
</clustering>
</event>
<event>
 6    0  0.1221518E+003  0.7592968E+02  0.7546771E-02  0.1341016E+00
         21   -1    0    0  503  501  0.00000000000E+00  0.00000000000E+00  0.71370851912E+03  0.71370851912E+03  0.00000000000E+00 0. -1.
         21   -1    0    0  506  502 -0.00000000000E+00 -0.00000000000E+00 -0.14398276190E+03  0.14398276190E+03  0.00000000000E+00 0. -1.
         21    1    1    2  503  502  0.34430545148E+02  0.37567038141E+02  0.46386267265E+03  0.46665332301E+03  0.00000000000E+00 0. -1.
         21    1    1    2  504  501  0.28870036646E+02 -0.27643091424E+02  0.11555979691E+03  0.12227708772E+03  0.00000000000E+00 0. -1.
         21    1    1    2  505  504 -0.32560565618E+02 -0.80753860021E+02  0.10128203561E+03  0.13356431814E+03  0.00000000000E+00 0. -1.
         21    1    1    2  506  505 -0.30740016176E+02  0.70829913305E+02 -0.11097874796E+03  0.13519655215E+03  0.00000000000E+00 0. -1.
<scales pt_clust_3="59.20077" pt_clust_4="39.97023" pt_clust_5="14000.00000" pt_clust_6="75.92968"></scales>
<clustering>
<clus scale="   39.970">  1  4  2 -1</clus>
<clus scale="   59.201">  1  3  2 -1</clus>
<clus scale="   75.930">  2  6  1 -1</clus>
<clus scale="   39.970">  1  3  2 -1</clus>
</clustering>
</event>
<event>
 6    0  0.1221518E+003  0.1489934E+03  0.7546771E-02  0.1201715E+00
         21   -1    0    0  506  501  0.00000000000E+00  0.00000000000E+00  0.49490777859E+02  0.49490777859E+02  0.00000000000E+00 0. -1.
         21   -1    0    0  504  502 -0.00000000000E+00 -0.00000000000E+00 -0.74270289009E+03  0.74270289009E+03  0.00000000000E+00 0. -1.
         21    1    1    2  503  501 -0.11933003949E+02  0.46902184040E+02 -0.50040580515E+02  0.69615164650E+02  0.00000000000E+00 0. -1.
         21    1    1    2  504  505 -0.51903273066E+02 -0.15003752290E+02 -0.27557678061E+03  0.28082311932E+03  0.00000000000E+00 0.  1.
         21    1    1    2  505  503 -0.79216324850E+02  0.35552402218E+02 -0.12857277031E+03  0.15514559836E+03  0.00000000000E+00 0. -1.
         21    1    1    2  506  502  0.14305260186E+03 -0.67450833967E+02 -0.23902198080E+03  0.28660978561E+03  0.00000000000E+00 0. -1.
<scales pt_clust_3="44.21679" pt_clust_4="54.02835" pt_clust_5="44.21679" pt_clust_6="136.71620"></scales>
<clustering>
<clus scale="   44.217">  3  5 -1 -1</clus>
<clus scale="   54.028">  2  4  1 -1</clus>
<clus scale="  136.716">  2  6  1 -1</clus>
<clus scale="  148.993">  1  3  2 -1</clus>
</clustering>
</event>
<event>
 6    0  0.1221518E+003  0.6736468E+02  0.7546771E-02  0.1369291E+00
         21   -1    0    0  503  501  0.00000000000E+00  0.00000000000E+00  0.18847955117E+03  0.18847955117E+03  0.00000000000E+00 0. -1.
         21   -1    0    0  505  502 -0.00000000000E+00 -0.00000000000E+00 -0.25105216894E+04  0.25105216894E+04  0.00000000000E+00 0.  1.
         21    1    1    2  503  506  0.77512955572E+02 -0.37743015882E+02 -0.11612341303E+03  0.14462862988E+03  0.00000000000E+00 0.  1.
         21    1    1    2  504  502 -0.38242887479E+01 -0.43065745574E+02 -0.31728250349E+03  0.32021472585E+03  0.00000000000E+00 0.  1.
         21    1    1    2  505  501 -0.11753913109E+02  0.54087634246E+02  0.16776026492E+03  0.17665540790E+03  0.00000000000E+00 0. -1.
         21    1    1    2  506  504 -0.61934753715E+02  0.26721127210E+02 -0.20563964867E+04  0.20575024770E+04  0.00000000000E+00 0.  1.
<scales pt_clust_3="14000.00000" pt_clust_4="43.23521" pt_clust_5="55.26630" pt_clust_6="67.36468"></scales>
<clustering>
<clus scale="   43.235">  2  4  1 -1</clus>
<clus scale="   55.266">  1  5  2 -1</clus>
<clus scale="   67.365">  2  6  1 -1</clus>
<clus scale="   55.266">  1  3  2 -1</clus>
</clustering>
</event>
<event>
 6    0  0.1221518E+003  0.7990757E+02  0.7546771E-02  0.1329314E+00
         21   -1    0    0  505  501  0.00000000000E+00  0.00000000000E+00  0.12529042471E+03  0.12529042471E+03  0.00000000000E+00 0.  1.
         21   -1    0    0  506  502 -0.00000000000E+00 -0.00000000000E+00 -0.45369158355E+03  0.45369158355E+03  0.00000000000E+00 0.  1.
         21    1    1    2  503  502  0.72260111202E+02  0.48018812710E+02 -0.22829608412E+03  0.24422619038E+03  0.00000000000E+00 0.  1.
         21    1    1    2  504  503 -0.83381887482E+02  0.13882505493E+02 -0.16552347806E+03  0.18585823875E+03  0.00000000000E+00 0.  1.
         21    1    1    2  505  504 -0.30039882179E+02  0.23973919861E+02  0.16318220456E+02  0.41754373108E+02  0.00000000000E+00 0.  1.
         21    1    1    2  506  501  0.41161658459E+02 -0.85875238064E+02  0.49100182886E+02  0.10714320603E+03  0.00000000000E+00 0.  1.
<scales pt_clust_3="14000.00000" pt_clust_4="79.90757" pt_clust_5="38.43362" pt_clust_6="68.50462"></scales>
<clustering>
<clus scale="   38.434">  1  5  2 -1</clus>
<clus scale="   68.505">  1  6  2 -1</clus>
<clus scale="   79.908">  1  4  2 -1</clus>
<clus scale="   38.434">  1  3  2 -1</clus>
</clustering>
</event>
<event>
 6    0  0.1221518E+003  0.8650347E+02  0.7546771E-02  0.1311547E+00
         21   -1    0    0  503  501  0.00000000000E+00  0.00000000000E+00  0.38622561990E+03  0.38622561990E+03  0.00000000000E+00 0. -1.
         21   -1    0    0  505  502 -0.00000000000E+00 -0.00000000000E+00 -0.62151750370E+03  0.62151750370E+03  0.00000000000E+00 0.  1.
         21    1    1    2  503  506 -0.36699100513E+02 -0.79072435414E+01  0.28877479791E+03  0.29120479458E+03  0.00000000000E+00 0. -1.
         21    1    1    2  504  501  0.18802027495E+02  0.11403789052E+03 -0.30313641596E+02  0.11948670880E+03  0.00000000000E+00 0.  1.
         21    1    1    2  505  504  0.10306048739E+02 -0.35266391642E+02 -0.51985554295E+03  0.52115229881E+03  0.00000000000E+00 0.  1.
         21    1    1    2  506  502  0.75910242792E+01 -0.70864255341E+02  0.26102502839E+02  0.75899321401E+02  0.00000000000E+00 0.  1.
<scales pt_clust_3="37.51204" pt_clust_4="86.50347" pt_clust_5="36.74143" pt_clust_6="14000.00000"></scales>
<clustering>
<clus scale="   36.741">  2  5  1 -1</clus>
<clus scale="   37.512">  1  3  2 -1</clus>
<clus scale="   86.503">  2  4  1 -1</clus>
<clus scale="   37.512">  1  3  2 -1</clus>
</clustering>
</event>
<event>
 6    0  0.1221518E+003  0.1807172E+03  0.7546771E-02  0.1167111E+00
         21   -1    0    0  506  501  0.00000000000E+00  0.00000000000E+00  0.10709760882E+04  0.10709760882E+04  0.00000000000E+00 0. -1.
         21   -1    0    0  503  502 -0.00000000000E+00 -0.00000000000E+00 -0.22458632745E+03  0.22458632745E+03  0.00000000000E+00 0.  1.
         21    1    1    2  503  505 -0.14462784851E+02  0.13004219073E+03  0.11681600160E+03  0.17540274155E+03  0.00000000000E+00 0.  1.
         21    1    1    2  504  502  0.18331586031E+03 -0.81678085980E+02 -0.10708693573E+03  0.22747225364E+03  0.00000000000E+00 0.  1.
         21    1    1    2  505  501 -0.31430329156E+02  0.36236077362E+02  0.62344057671E+03  0.62528319311E+03  0.00000000000E+00 0. -1.
         21    1    1    2  506  504 -0.13742274630E+03 -0.84600182110E+02  0.21322011821E+03  0.26740422738E+03  0.00000000000E+00 0. -1.
<scales pt_clust_3="144.03827" pt_clust_4="14000.00000" pt_clust_5="47.96789" pt_clust_6="180.71724"></scales>
<clustering>
<clus scale="   47.968">  1  5  2 -1</clus>
<clus scale="  144.038">  1  3  2 -1</clus>
<clus scale="  180.717">  1  6  2 -1</clus>
<clus scale="   47.968">  1  3  2 -1</clus>
</clustering>
</event>
<event>
 6    0  0.1221518E+003  0.1136970E+03  0.7546771E-02  0.1253873E+00
         21   -1    0    0  505  501  0.00000000000E+00  0.00000000000E+00  0.18804836928E+03  0.18804836928E+03  0.00000000000E+00 0.  1.
         21   -1    0    0  504  502 -0.00000000000E+00 -0.00000000000E+00 -0.10960269617E+04  0.10960269617E+04  0.00000000000E+00 0. -1.
         21    1    1    2  503  506  0.96493386881E+02  0.60658770381E+01 -0.27588867314E+03  0.29233940641E+03  0.00000000000E+00 0. -1.
         21    1    1    2  504  503 -0.11603783279E+03  0.61892748192E+02 -0.78699542305E+03  0.79790806915E+03  0.00000000000E+00 0. -1.
         21    1    1    2  505  502  0.27503288003E+02 -0.26290565376E+02  0.54103733997E+01  0.38430415286E+02  0.00000000000E+00 0.  1.
         21    1    1    2  506  501 -0.79588420929E+01 -0.41668059854E+02  0.14949513039E+03  0.15539744010E+03  0.00000000000E+00 0.  1.
<scales pt_clust_3="113.69704" pt_clust_4="14000.00000" pt_clust_5="38.04766" pt_clust_6="68.02465"></scales>
<clustering>
<clus scale="   38.048">  1  5  2 -1</clus>
<clus scale="   68.025">  1  6  2 -1</clus>
<clus scale="  113.697">  1  3  2 -1</clus>
<clus scale="   38.048">  1  3  2 -1</clus>
</clustering>
</event>
<event>
 6    0  0.1221518E+003  0.2440779E+03  0.7546771E-02  0.1117106E+00
         21   -1    0    0  506  501  0.00000000000E+00  0.00000000000E+00  0.16737294613E+04  0.16737294613E+04  0.00000000000E+00 0. -1.
         21   -1    0    0  503  502 -0.00000000000E+00 -0.00000000000E+00 -0.13084384611E+03  0.13084384611E+03  0.00000000000E+00 0.  1.
         21    1    1    2  503  504 -0.19496379171E+02  0.49728964354E+02  0.39469538467E+02  0.66414781211E+02  0.00000000000E+00 0.  1.
         21    1    1    2  504  505  0.26188190339E+03  0.20310247627E+02  0.62671857719E+02  0.27004147687E+03  0.00000000000E+00 0.  1.
         21    1    1    2  505  501 -0.17865736894E+03 -0.10493937124E+03  0.97842713000E+03  0.10001251801E+04  0.00000000000E+00 0. -1.
         21    1    1    2  506  502 -0.63728155276E+02  0.34900159258E+02  0.46231708900E+03  0.46799186924E+03  0.00000000000E+00 0. -1.
<scales pt_clust_3="53.41422" pt_clust_4="14000.00000" pt_clust_5="244.07786" pt_clust_6="73.65426"></scales>
<clustering>
<clus scale="   53.414">  2  3  1 -1</clus>
<clus scale="   73.654">  1  6  2 -1</clus>
<clus scale="  244.078">  1  5  2 -1</clus>
<clus scale="   73.654">  1  3  2 -1</clus>
</clustering>
</event>
<event>
 6    0  0.1221518E+003  0.9563149E+02  0.7546771E-02  0.1289760E+00
         21   -1    0    0  503  501  0.00000000000E+00  0.00000000000E+00  0.17970191992E+03  0.17970191992E+03  0.00000000000E+00 0. -1.
         21   -1    0    0  506  502 -0.00000000000E+00 -0.00000000000E+00 -0.28935514284E+03  0.28935514284E+03  0.00000000000E+00 0. -1.
         21    1    1    2  503  505 -0.21523896193E+02 -0.11280957908E+03  0.39870884413E+02  0.12156877339E+03  0.00000000000E+00 0. -1.
         21    1    1    2  504  501 -0.46734075188E+02  0.43584444297E+02  0.67964679009E+02  0.93289201739E+02  0.00000000000E+00 0. -1.
         21    1    1    2  505  502  0.85356753702E+02  0.42446502778E+02 -0.18829630578E+03  0.21105207834E+03  0.00000000000E+00 0. -1.
         21    1    1    2  506  504 -0.17098782322E+02  0.26778632008E+02 -0.29192480567E+02  0.43147009290E+02  0.00000000000E+00 0. -1.
<scales pt_clust_3="14000.00000" pt_clust_4="65.44365" pt_clust_5="95.63149" pt_clust_6="31.77206"></scales>
<clustering>
<clus scale="   31.772">  2  6  1 -1</clus>
<clus scale="   65.444">  1  4  2 -1</clus>
<clus scale="   95.631">  2  5  1 -1</clus>
<clus scale="   65.444">  1  3  2 -1</clus>
</clustering>
</event>
<event>
 6    0  0.1221518E+003  0.6957905E+02  0.7546771E-02  0.1361530E+00
         21   -1    0    0  504  501  0.00000000000E+00  0.00000000000E+00  0.34651404790E+03  0.34651404790E+03  0.00000000000E+00 0.  1.
         21   -1    0    0  505  502 -0.00000000000E+00 -0.00000000000E+00 -0.27549496494E+03  0.27549496494E+03  0.00000000000E+00 0. -1.
         21    1    1    2  503  501 -0.41867054881E+02  0.55865192049E+02  0.30607784490E+03  0.31393855626E+03  0.00000000000E+00 0.  1.
         21    1    1    2  504  502  0.97900231521E+02 -0.37425883402E+01 -0.85754500759E+02  0.13020098579E+03  0.00000000000E+00 0. -1.
         21    1    1    2  505  506 -0.38924449724E+02 -0.11842888994E+02 -0.11584333254E+03  0.12278047280E+03  0.00000000000E+00 0.  1.
         21    1    1    2  506  503 -0.17108726917E+02 -0.40279714715E+02 -0.33460928644E+02  0.55088997993E+02  0.00000000000E+00 0.  1.
<scales pt_clust_3="14000.00000" pt_clust_4="69.57905" pt_clust_5="40.68620" pt_clust_6="51.92510"></scales>
<clustering>
<clus scale="   40.686">  2  5  1 -1</clus>
<clus scale="   51.925">  2  6  1 -1</clus>
<clus scale="   69.579">  2  4  1 -1</clus>
<clus scale="   69.579">  1  3  2 -1</clus>
</clustering>
</event>
<event>
 6    0  0.1221518E+003  0.1987056E+03  0.7546771E-02  0.1150836E+00
         21   -1    0    0  505  501  0.00000000000E+00  0.00000000000E+00  0.59497661746E+03  0.59497661746E+03  0.00000000000E+00 0. -1.
         21   -1    0    0  504  502 -0.00000000000E+00 -0.00000000000E+00 -0.36314081894E+03  0.36314081894E+03  0.00000000000E+00 0.  1.
         21    1    1    2  503  501 -0.55777373220E+01  0.33542739485E+02  0.63426651611E+02  0.71966427314E+02  0.00000000000E+00 0.  1.
         21    1    1    2  504  506 -0.45081701289E+02  0.34264171735E+02 -0.14673820598E+03  0.15728475562E+03  0.00000000000E+00 0.  1.
         21    1    1    2  505  502  0.17133414809E+03 -0.12222271039E+03  0.47605642494E+03  0.52050312291E+03  0.00000000000E+00 0. -1.
         21    1    1    2  506  503 -0.12067470947E+03  0.54415799167E+02 -0.16090907205E+03  0.20836313055E+03  0.00000000000E+00 0.  1.
<scales pt_clust_3="34.00333" pt_clust_4="39.80751" pt_clust_5="189.13414" pt_clust_6="39.80751"></scales>
<clustering>
<clus scale="   34.003">  1  3  2 -1</clus>
<clus scale="   39.808">  4  6 -1 -1</clus>
<clus scale="  189.134">  1  5  2 -1</clus>
<clus scale="   34.003">  1  3  2 -1</clus>
</clustering>
</event>
<event>
 6    0  0.1221518E+003  0.1175656E+03  0.7546771E-02  0.1247168E+00
         21   -1    0    0  503  501  0.00000000000E+00  0.00000000000E+00  0.18626644603E+04  0.18626644603E+04  0.00000000000E+00 0.  1.
         21   -1    0    0  504  502 -0.00000000000E+00 -0.00000000000E+00 -0.21966298997E+02  0.21966298997E+02  0.00000000000E+00 0.  1.
         21    1    1    2  503  506 -0.21236402919E+02 -0.59476000854E+02  0.11777266539E+04  0.11794186919E+04  0.00000000000E+00 0.  1.
         21    1    1    2  504  505  0.56538442204E+02  0.46112610682E+02  0.17629165653E+03  0.19079233861E+03  0.00000000000E+00 0.  1.
         21    1    1    2  505  501  0.53351513669E+02  0.99429645060E-01  0.68953339824E+02  0.87183467297E+02  0.00000000000E+00 0.  1.
         21    1    1    2  506  502 -0.88653552954E+02  0.13263960527E+02  0.41772651101E+03  0.42723626146E+03  0.00000000000E+00 0.  1.
<scales pt_clust_3="63.15362" pt_clust_4="46.16219" pt_clust_5="46.16219" pt_clust_6="104.43938"></scales>
<clustering>
<clus scale="   46.162">  4  5 -1 -1</clus>
<clus scale="   63.154">  1  3  2 -1</clus>
<clus scale="  104.439">  1  6  2 -1</clus>
<clus scale="   63.154">  1  3  2 -1</clus>
</clustering>
</event>
<event>
 6    0  0.1221518E+003  0.8273583E+02  0.7546771E-02  0.1321462E+00
         21   -1    0    0  506  501  0.00000000000E+00  0.00000000000E+00  0.93805097302E+03  0.93805097302E+03  0.00000000000E+00 0. -1.
         21   -1    0    0  505  502 -0.00000000000E+00 -0.00000000000E+00 -0.44702779535E+02  0.44702779535E+02  0.00000000000E+00 0.  1.
         21    1    1    2  503  501  0.40748863127E+02  0.26184959214E+02  0.49611376607E+03  0.49847265805E+03  0.00000000000E+00 0. -1.
         21    1    1    2  504  502 -0.27961592061E+02 -0.47098509820E+02  0.17139037943E+01  0.54800161716E+02  0.00000000000E+00 0.  1.
         21    1    1    2  505  503  0.54580585836E+02  0.53909107679E+02  0.29025319079E+03  0.30022016422E+03  0.00000000000E+00 0.  1.
         21    1    1    2  506  504 -0.67367856901E+02 -0.32995557074E+02  0.10526733282E+03  0.12926076856E+03  0.00000000000E+00 0.  1.
<scales pt_clust_3="48.43678" pt_clust_4="52.01479" pt_clust_5="82.73583" pt_clust_6="14000.00000"></scales>
<clustering>
<clus scale="   48.437">  1  3  2 -1</clus>
<clus scale="   52.015">  2  4  1 -1</clus>
<clus scale="   82.736">  2  5  1 -1</clus>
<clus scale="   48.437">  1  3  2 -1</clus>
</clustering>
</event>
<event>
 6    0  0.1221518E+003  0.1124152E+03  0.7546771E-02  0.1256162E+00
         21   -1    0    0  506  501  0.00000000000E+00  0.00000000000E+00  0.16082683194E+04  0.16082683194E+04  0.00000000000E+00 0. -1.
         21   -1    0    0  505  502 -0.00000000000E+00 -0.00000000000E+00 -0.27148854785E+02  0.27148854785E+02  0.00000000000E+00 0. -1.
         21    1    1    2  503  501 -0.43094182435E+02  0.11015623946E+03  0.87589211980E+03  0.88384303537E+03  0.00000000000E+00 0. -1.
         21    1    1    2  504  502 -0.54087695189E+02 -0.10805628715E+03  0.19411170656E+03  0.22865037631E+03  0.00000000000E+00 0. -1.
         21    1    1    2  505  503  0.32633226561E+02 -0.56116666936E+01  0.74216648740E+02  0.81268254744E+02  0.00000000000E+00 0.  1.
         21    1    1    2  506  504  0.64548651063E+02  0.35117143816E+01  0.43689898955E+03  0.44165550779E+03  0.00000000000E+00 0. -1.
<scales pt_clust_3="112.41520" pt_clust_4="14000.00000" pt_clust_5="33.11221" pt_clust_6="67.89799"></scales>
<clustering>
<clus scale="   33.112">  2  5  1 -1</clus>
<clus scale="   67.898">  1  6  2 -1</clus>
<clus scale="  112.415">  1  3  2 -1</clus>
<clus scale="   67.898">  1  3  2 -1</clus>
</clustering>
</event>
<event>
 6    0  0.1221518E+003  0.9413404E+02  0.7546771E-02  0.1293138E+00
         21   -1    0    0  504  501  0.00000000000E+00  0.00000000000E+00  0.17238980247E+04  0.17238980247E+04  0.00000000000E+00 0.  1.
         21   -1    0    0  506  502 -0.00000000000E+00 -0.00000000000E+00 -0.69747733981E+03  0.69747733981E+03  0.00000000000E+00 0.  1.
         21    1    1    2  503  502 -0.58219130766E+02 -0.46637518926E+02 -0.40594298697E+03  0.41273991088E+03  0.00000000000E+00 0.  1.
         21    1    1    2  504  503 -0.95583316468E+02  0.95548779763E+01 -0.10985083833E+03  0.14592694323E+03  0.00000000000E+00 0. -1.
         21    1    1    2  505  501  0.50759413534E+02  0.65534264032E+02  0.16834998371E+04  0.16855393674E+04  0.00000000000E+00 0.  1.
         21    1    1    2  506  505  0.10304303370E+03 -0.28451623083E+02 -0.14128532683E+03  0.17716914299E+03  0.00000000000E+00 0. -1.
<scales pt_clust_3="74.59575" pt_clust_4="14000.00000" pt_clust_5="82.63641" pt_clust_6="94.13404"></scales>
<clustering>
<clus scale="   74.596">  2  3  1 -1</clus>
<clus scale="   82.636">  1  5  2 -1</clus>
<clus scale="   94.134">  2  6  1 -1</clus>
<clus scale="   82.636">  1  3  2 -1</clus>
</clustering>
</event>
<event>
 6    0  0.1221518E+003  0.1011222E+03  0.7546771E-02  0.1277954E+00
         21   -1    0    0  503  501  0.00000000000E+00  0.00000000000E+00  0.60686754813E+03  0.60686754813E+03  0.00000000000E+00 0.  1.
         21   -1    0    0  506  502 -0.00000000000E+00 -0.00000000000E+00 -0.11567338597E+04  0.11567338597E+04  0.00000000000E+00 0. -1.
         21    1    1    2  503  504  0.61928040992E+02  0.97252845385E+02  0.51345761707E+03  0.52624321632E+03  0.00000000000E+00 0.  1.
         21    1    1    2  504  502  0.37669658891E+02 -0.13990508371E+03 -0.10205321902E+04  0.10307659225E+04  0.00000000000E+00 0. -1.
         21    1    1    2  505  501 -0.43449214569E+02  0.16219476011E+01  0.65067609531E+02  0.78257643529E+02  0.00000000000E+00 0. -1.
         21    1    1    2  506  505 -0.56148485315E+02  0.41030290723E+02 -0.10785934790E+03  0.12833462545E+03  0.00000000000E+00 0. -1.
<scales pt_clust_3="101.12224" pt_clust_4="14000.00000" pt_clust_5="43.47948" pt_clust_6="70.23323"></scales>
<clustering>
<clus scale="   43.479">  1  5  2 -1</clus>
<clus scale="   70.233">  2  6  1 -1</clus>
<clus scale="  101.122">  1  3  2 -1</clus>
<clus scale="   43.479">  1  3  2 -1</clus>
</clustering>
</event>
<event>
 6    0  0.1221518E+003  0.1052142E+03  0.7546771E-02  0.1269698E+00
         21   -1    0    0  503  501  0.00000000000E+00  0.00000000000E+00  0.12764929510E+03  0.12764929510E+03  0.00000000000E+00 0.  1.
         21   -1    0    0  504  502 -0.00000000000E+00 -0.00000000000E+00 -0.60562292957E+03  0.60562292957E+03  0.00000000000E+00 0.  1.
         21    1    1    2  503  506 -0.29029641303E+02 -0.49335318673E+02 -0.20808441818E+02  0.60907183432E+02  0.00000000000E+00 0.  1.
         21    1    1    2  504  505 -0.13922675357E+02  0.10685511178E+03 -0.51809013060E+03  0.52917788996E+03  0.00000000000E+00 0.  1.
         21    1    1    2  505  501  0.49227408220E+02  0.17747285531E+02  0.13636134329E+02  0.54076316658E+02  0.00000000000E+00 0.  1.
         21    1    1    2  506  502 -0.62750915599E+01 -0.75267078633E+02  0.47288803608E+02  0.89110834620E+02  0.00000000000E+00 0.  1.
<scales pt_clust_3="49.15830" pt_clust_4="105.21416" pt_clust_5="52.32881" pt_clust_6="14000.00000"></scales>
<clustering>
<clus scale="   52.329">  1  5  2 -1</clus>
<clus scale="   49.158">  1  3  2 -1</clus>
<clus scale="  105.214">  2  4  1 -1</clus>
<clus scale="   52.329">  1  3  2 -1</clus>
</clustering>
</event>
<event>
 6    0  0.1221518E+003  0.5393946E+02  0.7546771E-02  0.1425182E+00
         21   -1    0    0  505  501  0.00000000000E+00  0.00000000000E+00  0.90551523271E+01  0.90551523271E+01  0.00000000000E+00 0. -1.
         21   -1    0    0  506  502 -0.00000000000E+00 -0.00000000000E+00 -0.35685425670E+04  0.35685425670E+04  0.00000000000E+00 0. -1.
         21    1    1    2  503  502 -0.16755850336E+02 -0.84045227605E+02 -0.18227400947E+04  0.18247536304E+04  0.00000000000E+00 0. -1.
         21    1    1    2  504  501  0.54405747961E+02  0.17090197161E+01 -0.13591074949E+03  0.14640573072E+03  0.00000000000E+00 0. -1.
         21    1    1    2  505  503 -0.50448604411E+02  0.34883154659E+02 -0.40748801049E+03  0.41207811742E+03  0.00000000000E+00 0. -1.
         21    1    1    2  506  504  0.12798706786E+02  0.47453053230E+02 -0.11933485599E+04  0.11943602407E+04  0.00000000000E+00 0. -1.
<scales pt_clust_3="48.10286" pt_clust_4="14000.00000" pt_clust_5="53.93946" pt_clust_6="49.14875"></scales>
<clustering>
<clus scale="   49.149">  2  6  1 -1</clus>
<clus scale="   48.103">  2  3  1 -1</clus>
<clus scale="   53.939">  2  5  1 -1</clus>
<clus scale="   53.939">  1  3  2 -1</clus>
</clustering>
</event>
<event>
 6    0  0.1221518E+003  0.6083298E+02  0.7546771E-02  0.1394369E+00
         21   -1    0    0  504  501  0.00000000000E+00  0.00000000000E+00  0.23551506006E+04  0.23551506006E+04  0.00000000000E+00 0.  1.
         21   -1    0    0  503  502 -0.00000000000E+00 -0.00000000000E+00 -0.39216236382E+02  0.39216236382E+02  0.00000000000E+00 0. -1.
         21    1    1    2  503  501  0.11306697373E+03 -0.35669764536E+02  0.59335770663E+03  0.60508663898E+03  0.00000000000E+00 0.  1.
         21    1    1    2  504  506 -0.40973458318E+02  0.38471812653E+02  0.13936658501E+04  0.13947986975E+04  0.00000000000E+00 0.  1.
         21    1    1    2  505  502 -0.29717843795E+02 -0.22166763037E+02 -0.20237556296E+02  0.42238303803E+02  0.00000000000E+00 0. -1.
         21    1    1    2  506  505 -0.42375671619E+02  0.19364714919E+02  0.34914836369E+03  0.35224319667E+03  0.00000000000E+00 0.  1.
<scales pt_clust_3="14000.00000" pt_clust_4="60.83298" pt_clust_5="37.07446" pt_clust_6="50.44186"></scales>
<clustering>
<clus scale="   37.074">  2  5  1 -1</clus>
<clus scale="   50.442">  2  6  1 -1</clus>
<clus scale="   60.833">  1  4  2 -1</clus>
<clus scale="   60.833">  1  3  2 -1</clus>
</clustering>
</event>
<event>
 6    0  0.1221518E+003  0.1256775E+03  0.7546771E-02  0.1234014E+00
         21   -1    0    0  504  501  0.00000000000E+00  0.00000000000E+00  0.98234616940E+03  0.98234616940E+03  0.00000000000E+00 0.  1.
         21   -1    0    0  506  502 -0.00000000000E+00 -0.00000000000E+00 -0.88732079769E+02  0.88732079769E+02  0.00000000000E+00 0.  1.
         21    1    1    2  503  502 -0.43324412449E+02 -0.15122889460E+03  0.22946375932E+02  0.15897710353E+03  0.00000000000E+00 0.  1.
         21    1    1    2  504  503 -0.38830630833E+02 -0.75029925067E+01  0.66063167535E+02  0.76996460257E+02  0.00000000000E+00 0.  1.
         21    1    1    2  505  501  0.71541178157E+02  0.12106728633E+03  0.77040613306E+03  0.78313538922E+03  0.00000000000E+00 0.  1.
         21    1    1    2  506  505  0.10613865126E+02  0.37664600786E+02  0.34198413105E+02  0.51969296167E+02  0.00000000000E+00 0.  1.
<scales pt_clust_3="14000.00000" pt_clust_4="38.42084" pt_clust_5="125.67749" pt_clust_6="39.13153"></scales>
<clustering>
<clus scale="   39.132">  2  6  1 -1</clus>
<clus scale="   38.421">  1  4  2 -1</clus>
<clus scale="  125.677">  1  5  2 -1</clus>
<clus scale="   38.421">  1  3  2 -1</clus>
</clustering>
</event>
<event>
 6    0  0.1221518E+003  0.7787759E+02  0.7546771E-02  0.1335185E+00
         21   -1    0    0  505  501  0.00000000000E+00  0.00000000000E+00  0.54945649766E+02  0.54945649766E+02  0.00000000000E+00 0. -1.
         21   -1    0    0  503  502 -0.00000000000E+00 -0.00000000000E+00 -0.11738580397E+04  0.11738580397E+04  0.00000000000E+00 0.  1.
         21    1    1    2  503  504 -0.23055845778E+02 -0.63154852777E+02 -0.51569082849E+02  0.84731798988E+02  0.00000000000E+00 0. -1.
         21    1    1    2  504  501 -0.71279784268E+02  0.43593748749E+02 -0.36469370476E+02  0.91165989043E+02  0.00000000000E+00 0. -1.
         21    1    1    2  505  506  0.67782218003E+02 -0.16649371648E+02 -0.10583680345E+03  0.12677957098E+03  0.00000000000E+00 0. -1.
         21    1    1    2  506  502  0.26553412043E+02  0.36210475676E+02 -0.92503713312E+03  0.92612633042E+03  0.00000000000E+00 0.  1.
<scales pt_clust_3="55.50196" pt_clust_4="14000.00000" pt_clust_5="77.87759" pt_clust_6="44.90303"></scales>
<clustering>
<clus scale="   44.903">  2  6  1 -1</clus>
<clus scale="   55.502">  2  3  1 -1</clus>
<clus scale="   77.878">  2  5  1 -1</clus>
<clus scale="   77.878">  1  3  2 -1</clus>
</clustering>
</event>
<event>
 6    0  0.1221518E+003  0.9139651E+02  0.7546771E-02  0.1299505E+00
         21   -1    0    0  502  501  0.00000000000E+00  0.00000000000E+00  0.11067733080E+04  0.11067733080E+04  0.00000000000E+00 0. -1.
         21   -1    0    0  505  502 -0.00000000000E+00 -0.00000000000E+00 -0.64931825719E+02  0.64931825719E+02  0.00000000000E+00 0. -1.
         21    1    1    2  503  504 -0.33014494850E+02  0.12925635056E+03  0.62773029654E+03  0.64174955101E+03  0.00000000000E+00 0. -1.
         21    1    1    2  504  501 -0.65573594664E+01 -0.53132289612E+02  0.33875451025E+03  0.34295868173E+03  0.00000000000E+00 0. -1.
         21    1    1    2  505  506  0.36170594471E+02  0.59350935879E+01 -0.34160993901E+02  0.50104997202E+02  0.00000000000E+00 0. -1.
         21    1    1    2  506  503  0.34012598446E+01 -0.82059154531E+02  0.10951766942E+03  0.13689190380E+03  0.00000000000E+00 0. -1.
<scales pt_clust_3="14000.00000" pt_clust_4="52.68371" pt_clust_5="36.65429" pt_clust_6="91.39651"></scales>
<clustering>
<clus scale="   36.654">  2  5  1 -1</clus>
<clus scale="   52.684">  1  4  2 -1</clus>
<clus scale="   91.397">  2  6  1 -1</clus>
<clus scale="   52.684">  1  3  2 -1</clus>
</clustering>
</event>
<event>
 6    0  0.1221518E+003  0.9883640E+02  0.7546771E-02  0.1282762E+00
         21   -1    0    0  505  501  0.00000000000E+00  0.00000000000E+00  0.27874645241E+03  0.27874645241E+03  0.00000000000E+00 0.  1.
         21   -1    0    0  503  502 -0.00000000000E+00 -0.00000000000E+00 -0.45240021725E+03  0.45240021725E+03  0.00000000000E+00 0. -1.
         21    1    1    2  503  504  0.84408049936E+02  0.54111867946E+02 -0.35388877437E+03  0.36781799545E+03  0.00000000000E+00 0. -1.
         21    1    1    2  504  501 -0.50273619441E+02  0.36272554070E+02  0.93987499494E+01  0.62701447280E+02  0.00000000000E+00 0. -1.
         21    1    1    2  505  506 -0.11195748255E+02 -0.11442996073E+03  0.21591694492E+03  0.24462151949E+03  0.00000000000E+00 0.  1.
         21    1    1    2  506  502 -0.22938682240E+02  0.24045538716E+02 -0.45080685339E+02  0.56005707438E+02  0.00000000000E+00 0.  1.
<scales pt_clust_3="98.83640" pt_clust_4="64.16108" pt_clust_5="14000.00000" pt_clust_6="33.23208"></scales>
<clustering>
<clus scale="   33.232">  2  6  1 -1</clus>
<clus scale="   64.161">  1  4  2 -1</clus>
<clus scale="   98.836">  2  3  1 -1</clus>
<clus scale="   64.161">  1  3  2 -1</clus>
</clustering>
</event>
<event>
 6    0  0.1221518E+003  0.2295694E+03  0.7546771E-02  0.1126943E+00
         21   -1    0    0  504  501  0.00000000000E+00  0.00000000000E+00  0.12594066121E+04  0.12594066121E+04  0.00000000000E+00 0. -1.
         21   -1    0    0  503  502 -0.00000000000E+00 -0.00000000000E+00 -0.23457515784E+03  0.23457515784E+03  0.00000000000E+00 0.  1.
         21    1    1    2  503  506 -0.18962713439E+02 -0.48643746705E+02 -0.24657066331E+02  0.57738804236E+02  0.00000000000E+00 0.  1.
         21    1    1    2  504  505  0.63063459536E+02 -0.13330335259E+03  0.96979274148E+03  0.98094074498E+03  0.00000000000E+00 0. -1.
         21    1    1    2  505  502 -0.52274947138E+02  0.27137923416E+03 -0.66011944022E+02  0.28414245650E+03  0.00000000000E+00 0.  1.
         21    1    1    2  506  501  0.81742010411E+01 -0.89432134863E+02  0.14570772310E+03  0.17115976420E+03  0.00000000000E+00 0.  1.
<scales pt_clust_3="52.20918" pt_clust_4="229.56944" pt_clust_5="14000.00000" pt_clust_6="92.89193"></scales>
<clustering>
<clus scale="   52.209">  2  3  1 -1</clus>
<clus scale="   92.892">  1  6  2 -1</clus>
<clus scale="  229.569">  1  4  2 -1</clus>
<clus scale="   92.892">  1  3  2 -1</clus>
</clustering>
</event>
<event>
 6    0  0.1221518E+003  0.9042200E+02  0.7546771E-02  0.1301833E+00
         21   -1    0    0  504  501  0.00000000000E+00  0.00000000000E+00  0.11099541040E+03  0.11099541040E+03  0.00000000000E+00 0. -1.
         21   -1    0    0  503  502 -0.00000000000E+00 -0.00000000000E+00 -0.15499684145E+04  0.15499684145E+04  0.00000000000E+00 0.  1.
         21    1    1    2  503  506  0.26967326474E+01 -0.57341241434E+02 -0.69889796757E+03  0.70125149512E+03  0.00000000000E+00 0.  1.
         21    1    1    2  504  505 -0.29962020264E+02  0.31558540268E+02  0.95887903880E+01  0.44560173062E+02  0.00000000000E+00 0.  1.
         21    1    1    2  505  502  0.79853862989E+02  0.93512637671E+02 -0.80418867451E+03  0.81353591012E+03  0.00000000000E+00 0.  1.
         21    1    1    2  506  501 -0.52588575372E+02 -0.67729936505E+02  0.54524847619E+02  0.10161624657E+03  0.00000000000E+00 0. -1.
<scales pt_clust_3="56.94425" pt_clust_4="43.51625" pt_clust_5="90.42200" pt_clust_6="14000.00000"></scales>
<clustering>
<clus scale="   43.516">  1  4  2 -1</clus>
<clus scale="   56.944">  2  3  1 -1</clus>
<clus scale="   90.422">  2  5  1 -1</clus>
<clus scale="   43.516">  1  3  2 -1</clus>
</clustering>
</event>
<event>
 6    0  0.1221518E+003  0.1624352E+03  0.7546771E-02  0.1185975E+00
         21   -1    0    0  503  501  0.00000000000E+00  0.00000000000E+00  0.22304929701E+04  0.22304929701E+04  0.00000000000E+00 0.  1.
         21   -1    0    0  504  502 -0.00000000000E+00 -0.00000000000E+00 -0.18623298216E+03  0.18623298216E+03  0.00000000000E+00 0. -1.
         21    1    1    2  503  505 -0.44177389252E+02  0.19051032740E+03  0.20775210929E+04  0.20867054698E+04  0.00000000000E+00 0.  1.
         21    1    1    2  504  501  0.18813126363E+02 -0.27057327778E+02  0.95051575596E+02  0.10060235948E+03  0.00000000000E+00 0.  1.
         21    1    1    2  505  506  0.42678421175E+02 -0.10750592105E+03 -0.37944762657E+02  0.12173239383E+03  0.00000000000E+00 0. -1.
         21    1    1    2  506  502 -0.17314158286E+02 -0.55947078572E+02 -0.90367917858E+02  0.10768572912E+03  0.00000000000E+00 0. -1.
<scales pt_clust_3="162.43519" pt_clust_4="32.95501" pt_clust_5="14000.00000" pt_clust_6="58.64743"></scales>
<clustering>
<clus scale="   32.955">  1  4  2 -1</clus>
<clus scale="   58.647">  2  6  1 -1</clus>
<clus scale="  162.435">  1  3  2 -1</clus>
<clus scale="   32.955">  1  3  2 -1</clus>
</clustering>
</event>
<event>
 6    0  0.1221518E+003  0.8030808E+02  0.7546771E-02  0.1328179E+00
         21   -1    0    0  506  501  0.00000000000E+00  0.00000000000E+00  0.36826273242E+03  0.36826273242E+03  0.00000000000E+00 0.  1.
         21   -1    0    0  504  502 -0.00000000000E+00 -0.00000000000E+00 -0.30964433195E+03  0.30964433195E+03  0.00000000000E+00 0.  1.
         21    1    1    2  503  501  0.38128494758E+01 -0.30749190674E+02  0.31929477113E+03  0.32079464057E+03  0.00000000000E+00 0.  1.
         21    1    1    2  504  505 -0.15886688777E+00 -0.61256369173E+02 -0.71085660770E+02  0.93837834428E+02  0.00000000000E+00 0.  1.
         21    1    1    2  505  503 -0.54940910542E+02 -0.15293357247E+02 -0.30582717819E+02  0.64712387194E+02  0.00000000000E+00 0.  1.
         21    1    1    2  506  502  0.51286927954E+02  0.10729891709E+03 -0.15900799208E+03  0.19856220218E+03  0.00000000000E+00 0.  1.
<scales pt_clust_3="30.98468" pt_clust_4="80.30808" pt_clust_5="59.64245" pt_clust_6="14000.00000"></scales>
<clustering>
<clus scale="   30.985">  1  3  2 -1</clus>
<clus scale="   59.642">  1  5  2 -1</clus>
<clus scale="   80.308">  2  4  1 -1</clus>
<clus scale="   30.985">  1  3  2 -1</clus>
</clustering>
</event>
<event>
 6    0  0.1221518E+003  0.9823655E+02  0.7546771E-02  0.1284049E+00
         21   -1    0    0  504  501  0.00000000000E+00  0.00000000000E+00  0.73632161908E+02  0.73632161908E+02  0.00000000000E+00 0.  1.
         21   -1    0    0  503  502 -0.00000000000E+00 -0.00000000000E+00 -0.10017471853E+04  0.10017471853E+04  0.00000000000E+00 0.  1.
         21    1    1    2  503  505 -0.87890865255E+02  0.44322222332E+02 -0.84829893426E+03  0.85399083452E+03  0.00000000000E+00 0.  1.
         21    1    1    2  504  506 -0.31396379849E+02 -0.23832924734E+02  0.24110906725E+01  0.39491193034E+02  0.00000000000E+00 0.  1.
         21    1    1    2  505  501  0.84308362754E+02 -0.44153783013E+02 -0.67516859279E+01  0.95409862423E+02  0.00000000000E+00 0.  1.
         21    1    1    2  506  502  0.34978882350E+02  0.23664485415E+02 -0.75475493832E+02  0.86487457181E+02  0.00000000000E+00 0. -1.
<scales pt_clust_3="98.23655" pt_clust_4="39.41752" pt_clust_5="14000.00000" pt_clust_6="38.11890"></scales>
<clustering>
<clus scale="   39.418">  1  4  2 -1</clus>
<clus scale="   38.119">  1  6  2 -1</clus>
<clus scale="   98.237">  2  3  1 -1</clus>
<clus scale="   39.418">  1  3  2 -1</clus>
</clustering>
</event>
<event>
 6    0  0.1221518E+003  0.1217925E+03  0.7546771E-02  0.1240169E+00
         21   -1    0    0  505  501  0.00000000000E+00  0.00000000000E+00  0.22001625324E+03  0.22001625324E+03  0.00000000000E+00 0. -1.
         21   -1    0    0  504  502 -0.00000000000E+00 -0.00000000000E+00 -0.23742378307E+03  0.23742378307E+03  0.00000000000E+00 0. -1.
         21    1    1    2  503  502  0.44462675712E+02  0.29677932715E+02 -0.97673263844E+02  0.11134529937E+03  0.00000000000E+00 0. -1.
         21    1    1    2  504  501  0.76028119228E+02  0.77177724006E+02 -0.51648993892E+02  0.12001789269E+03  0.00000000000E+00 0. -1.
         21    1    1    2  505  506 -0.27786693718E+02 -0.34017301596E+02  0.91412703850E+02  0.10141774786E+03  0.00000000000E+00 0. -1.
         21    1    1    2  506  503 -0.92704101222E+02 -0.72838355125E+02  0.40502024050E+02  0.12465909639E+03  0.00000000000E+00 0. -1.
<scales pt_clust_3="51.13979" pt_clust_4="121.79250" pt_clust_5="43.92354" pt_clust_6="14000.00000"></scales>
<clustering>
<clus scale="   43.924">  1  5  2 -1</clus>
<clus scale="   51.140">  2  3  1 -1</clus>
<clus scale="  121.793">  2  4  1 -1</clus>
<clus scale="   43.924">  1  3  2 -1</clus>
</clustering>
</event>
<event>
 6    0  0.1221518E+003  0.1266948E+03  0.7546771E-02  0.1232444E+00
         21   -1    0    0  503  501  0.00000000000E+00  0.00000000000E+00  0.46290411034E+03  0.46290411034E+03  0.00000000000E+00 0. -1.
         21   -1    0    0  504  502 -0.00000000000E+00 -0.00000000000E+00 -0.13995644423E+03  0.13995644423E+03  0.00000000000E+00 0. -1.
         21    1    1    2  503  506  0.31463531929E+02  0.77136127460E+02  0.20491441973E+03  0.22120093900E+03  0.00000000000E+00 0. -1.
         21    1    1    2  504  505 -0.14442265771E+03  0.78371494910E+01 -0.43522571500E+02  0.15104151483E+03  0.00000000000E+00 0. -1.
         21    1    1    2  505  501  0.32986416224E+02 -0.36931722237E+01  0.90179730051E+02  0.96094364499E+02  0.00000000000E+00 0. -1.
         21    1    1    2  506  502  0.79972709556E+02 -0.81280104727E+02  0.71376087825E+02  0.13452373624E+03  0.00000000000E+00 0. -1.
<scales pt_clust_3="90.40716" pt_clust_4="126.69479" pt_clust_5="33.19252" pt_clust_6="14000.00000"></scales>
<clustering>
<clus scale="   33.193">  1  5  2 -1</clus>
<clus scale="   90.407">  1  3  2 -1</clus>
<clus scale="  126.695">  2  4  1 -1</clus>
<clus scale="   33.193">  1  3  2 -1</clus>
</clustering>
</event>
<event>
 6    0  0.1221518E+003  0.1436314E+03  0.7546771E-02  0.1208524E+00
         21   -1    0    0  506  501  0.00000000000E+00  0.00000000000E+00  0.17242151974E+02  0.17242151974E+02  0.00000000000E+00 0. -1.
         21   -1    0    0  504  502 -0.00000000000E+00 -0.00000000000E+00 -0.21806621123E+04  0.21806621123E+04  0.00000000000E+00 0. -1.
         21    1    1    2  503  505 -0.64956656743E+02  0.15779715313E+03 -0.10247168993E+04  0.10388282017E+04  0.00000000000E+00 0. -1.
         21    1    1    2  504  501  0.27168769033E+02 -0.15626692814E+02 -0.94634008863E+02  0.99689172795E+02  0.00000000000E+00 0.  1.
         21    1    1    2  505  502  0.36500462228E+02 -0.16533697589E+02 -0.47123597174E+03  0.47293655807E+03  0.00000000000E+00 0. -1.
         21    1    1    2  506  503  0.12874254819E+01 -0.12563676273E+03 -0.57283308033E+03  0.58645033168E+03  0.00000000000E+00 0. -1.
<scales pt_clust_3="143.63143" pt_clust_4="31.34223" pt_clust_5="41.87357" pt_clust_6="14000.00000"></scales>
<clustering>
<clus scale="   31.342">  1  4  2 -1</clus>
<clus scale="   41.874">  2  5  1 -1</clus>
<clus scale="  143.631">  2  3  1 -1</clus>
<clus scale="   31.342">  1  3  2 -1</clus>
</clustering>
</event>
<event>
 6    0  0.1221518E+003  0.7933574E+02  0.7546771E-02  0.1330947E+00
         21   -1    0    0  506  501  0.00000000000E+00  0.00000000000E+00  0.50849582941E+03  0.50849582941E+03  0.00000000000E+00 0.  1.
         21   -1    0    0  504  502 -0.00000000000E+00 -0.00000000000E+00 -0.18003705963E+04  0.18003705963E+04  0.00000000000E+00 0. -1.
         21    1    1    2  503  501 -0.33072435718E+02  0.75651859977E+01  0.33051399331E+03  0.33225068521E+03  0.00000000000E+00 0.  1.
         21    1    1    2  504  503 -0.29811016600E+02  0.10907485625E+03 -0.14085503288E+04  0.14130817563E+04  0.00000000000E+00 0. -1.
         21    1    1    2  505  502  0.36166089123E+02 -0.30324083569E+02 -0.37543585421E+03  0.37839082531E+03  0.00000000000E+00 0. -1.
         21    1    1    2  506  505  0.26717363195E+02 -0.86315958676E+02  0.16159742287E+03  0.18514315893E+03  0.00000000000E+00 0. -1.
<scales pt_clust_3="33.92666" pt_clust_4="79.33574" pt_clust_5="46.94500" pt_clust_6="14000.00000"></scales>
<clustering>
<clus scale="   33.927">  1  3  2 -1</clus>
<clus scale="   46.945">  2  5  1 -1</clus>
<clus scale="   79.336">  2  4  1 -1</clus>
<clus scale="   33.927">  1  3  2 -1</clus>
</clustering>
</event>
<event>
 6    0  0.1221518E+003  0.1230815E+03  0.7546771E-02  0.1238098E+00
         21   -1    0    0  504  501  0.00000000000E+00  0.00000000000E+00  0.47049348739E+02  0.47049348739E+02  0.00000000000E+00 0. -1.
         21   -1    0    0  503  502 -0.00000000000E+00 -0.00000000000E+00 -0.97073053803E+03  0.97073053803E+03  0.00000000000E+00 0.  1.
         21    1    1    2  503  505  0.73309893595E+02  0.16785446632E+02 -0.13342010967E+03  0.15315683916E+03  0.00000000000E+00 0. -1.
         21    1    1    2  504  506 -0.69308783407E+02  0.82177048223E+02 -0.20646034147E+03  0.23277166346E+03  0.00000000000E+00 0.  1.
         21    1    1    2  505  501  0.56386984936E+02 -0.13212535050E+03 -0.22829688249E+03  0.26973332547E+03  0.00000000000E+00 0. -1.
         21    1    1    2  506  502 -0.60388095124E+02  0.33162855642E+02 -0.35550385567E+03  0.36211805868E+03  0.00000000000E+00 0.  1.
<scales pt_clust_3="64.06054" pt_clust_4="14000.00000" pt_clust_5="123.08147" pt_clust_6="68.89483"></scales>
<clustering>
<clus scale="   68.895">  2  6  1 -1</clus>
<clus scale="   64.061">  2  3  1 -1</clus>
<clus scale="  123.081">  2  5  1 -1</clus>
<clus scale="  123.081">  1  3  2 -1</clus>
</clustering>
</event>
<event>
 6    0  0.1221518E+003  0.8656191E+02  0.7546771E-02  0.1311398E+00
         21   -1    0    0  506  501  0.00000000000E+00  0.00000000000E+00  0.61275489348E+02  0.61275489348E+02  0.00000000000E+00 0.  1.
         21   -1    0    0  504  502 -0.00000000000E+00 -0.00000000000E+00 -0.15283599564E+04  0.15283599564E+04  0.00000000000E+00 0.  1.
         21    1    1    2  503  502  0.48409153588E+02  0.67032189952E+02 -0.29430304227E+03  0.30569763056E+03  0.00000000000E+00 0. -1.
         21    1    1    2  504  505 -0.36039764164E+02  0.24275957438E+02 -0.11362573402E+04  0.11370879166E+04  0.00000000000E+00 0.  1.
         21    1    1    2  505  501  0.23828864303E+02 -0.85750131933E+02  0.78151114530E+01  0.89341904320E+02  0.00000000000E+00 0.  1.
         21    1    1    2  506  503 -0.36198253727E+02 -0.55580154573E+01 -0.44339195976E+02  0.57507994300E+02  0.00000000000E+00 0. -1.
<scales pt_clust_3="86.56191" pt_clust_4="43.65807" pt_clust_5="14000.00000" pt_clust_6="36.62247"></scales>
<clustering>
<clus scale="   36.622">  1  6  2 -1</clus>
<clus scale="   43.658">  2  4  1 -1</clus>
<clus scale="   86.562">  2  3  1 -1</clus>
<clus scale="   36.622">  1  3  2 -1</clus>
</clustering>
</event>
<event>
 6    0  0.1221518E+003  0.1542156E+03  0.7546771E-02  0.1195386E+00
         21   -1    0    0  506  501  0.00000000000E+00  0.00000000000E+00  0.14542039544E+03  0.14542039544E+03  0.00000000000E+00 0.  1.
         21   -1    0    0  504  502 -0.00000000000E+00 -0.00000000000E+00 -0.21080431814E+03  0.21080431814E+03  0.00000000000E+00 0.  1.
         21    1    1    2  503  502 -0.54306700701E+02 -0.25978324787E+02 -0.73597786781E+01  0.60648639243E+02  0.00000000000E+00 0.  1.
         21    1    1    2  504  501  0.61283729428E+01 -0.37160370019E+02 -0.25180338931E+02  0.45304519902E+02  0.00000000000E+00 0. -1.
         21    1    1    2  505  503 -0.91242157950E+02  0.23387185433E+01 -0.36058193010E+02  0.98136610268E+02  0.00000000000E+00 0.  1.
         21    1    1    2  506  505  0.13942048571E+03  0.60799976263E+02  0.32143879181E+01  0.15213494417E+03  0.00000000000E+00 0.  1.
<scales pt_clust_3="32.32616" pt_clust_4="37.66232" pt_clust_5="32.32616" pt_clust_6="148.99037"></scales>
<clustering>
<clus scale="   32.326">  3  5 -1 -1</clus>
<clus scale="   37.662">  2  4  1 -1</clus>
<clus scale="  148.990">  1  6  2 -1</clus>
<clus scale="  148.990">  1  3  2 -1</clus>
</clustering>
</event>
<event>
 6    0  0.1221518E+003  0.7845240E+02  0.7546771E-02  0.1333502E+00
         21   -1    0    0  506  501  0.00000000000E+00  0.00000000000E+00  0.13657217319E+03  0.13657217319E+03  0.00000000000E+00 0. -1.
         21   -1    0    0  505  502 -0.00000000000E+00 -0.00000000000E+00 -0.47126262563E+03  0.47126262563E+03  0.00000000000E+00 0. -1.
         21    1    1    2  503  502  0.11702655697E+02  0.36819174709E+02 -0.27887172259E+03  0.28153515134E+03  0.00000000000E+00 0. -1.
         21    1    1    2  504  503 -0.67865254870E+02 -0.43390193431E+02 -0.38914391493E+02  0.89457987736E+02  0.00000000000E+00 0. -1.
         21    1    1    2  505  501  0.86541465183E+02 -0.49977596617E+02 -0.93533500459E+02  0.13687841710E+03  0.00000000000E+00 0. -1.
         21    1    1    2  506  504 -0.30378866010E+02  0.56548615339E+02  0.76629162103E+02  0.99963242652E+02  0.00000000000E+00 0. -1.
<scales pt_clust_3="38.63423" pt_clust_4="78.45240" pt_clust_5="14000.00000" pt_clust_6="65.85630"></scales>
<clustering>
<clus scale="   38.634">  2  3  1 -1</clus>
<clus scale="   65.856">  1  6  2 -1</clus>
<clus scale="   78.452">  2  4  1 -1</clus>
<clus scale="   65.856">  1  3  2 -1</clus>
</clustering>
</event>
<event>
 6    0  0.1221518E+003  0.1681469E+03  0.7546771E-02  0.1179794E+00
         21   -1    0    0  505  501  0.00000000000E+00  0.00000000000E+00  0.75286817031E+03  0.75286817031E+03  0.00000000000E+00 0. -1.
         21   -1    0    0  504  502 -0.00000000000E+00 -0.00000000000E+00 -0.89522583120E+02  0.89522583120E+02  0.00000000000E+00 0.  1.
         21    1    1    2  503  501 -0.43191906560E+02  0.29446128696E+02 -0.20303491759E+02  0.56078936019E+02  0.00000000000E+00 0.  1.
         21    1    1    2  504  503 -0.49241869101E+02  0.97987144765E+02  0.38090660278E+02  0.11609108757E+03  0.00000000000E+00 0.  1.
         21    1    1    2  505  506 -0.13566593609E+02 -0.35597933009E+02  0.18042575468E+03  0.18440368284E+03  0.00000000000E+00 0. -1.
         21    1    1    2  506  502  0.10600036927E+03 -0.91835340453E+02  0.46513266399E+03  0.48581704700E+03  0.00000000000E+00 0. -1.
<scales pt_clust_3="47.15541" pt_clust_4="47.15541" pt_clust_5="38.09548" pt_clust_6="154.04698"></scales>
<clustering>
<clus scale="   38.095">  1  5  2 -1</clus>
<clus scale="   47.155">  3  4 -1 -1</clus>
<clus scale="  154.047">  1  6  2 -1</clus>
<clus scale="   38.095">  1  3  2 -1</clus>
</clustering>
</event>
<event>
 6    0  0.1221518E+003  0.8531979E+02  0.7546771E-02  0.1314598E+00
         21   -1    0    0  504  501  0.00000000000E+00  0.00000000000E+00  0.57217331372E+03  0.57217331372E+03  0.00000000000E+00 0.  1.
         21   -1    0    0  506  502 -0.00000000000E+00 -0.00000000000E+00 -0.14463508044E+03  0.14463508044E+03  0.00000000000E+00 0.  1.
         21    1    1    2  503  502  0.20179629470E+01 -0.87167997183E+02 -0.25010731074E+02  0.90707599330E+02  0.00000000000E+00 0.  1.
         21    1    1    2  504  503 -0.22837748612E+02  0.83683119842E+02  0.17017459393E+03  0.19100738135E+03  0.00000000000E+00 0.  1.
         21    1    1    2  505  501  0.89394617185E+02 -0.94642692728E+01  0.33553305134E+03  0.34736637505E+03  0.00000000000E+00 0.  1.
         21    1    1    2  506  505 -0.68574831520E+02  0.12949146614E+02 -0.53158680920E+02  0.87727038438E+02  0.00000000000E+00 0.  1.
<scales pt_clust_3="85.31979" pt_clust_4="14000.00000" pt_clust_5="84.34841" pt_clust_6="69.78673"></scales>
<clustering>
<clus scale="   69.787">  2  6  1 -1</clus>
<clus scale="   84.348">  1  5  2 -1</clus>
<clus scale="   85.320">  2  3  1 -1</clus>
<clus scale="   84.348">  1  3  2 -1</clus>
</clustering>
</event>
<event>
 6    0  0.1221518E+003  0.1338840E+03  0.7546771E-02  0.1221804E+00
         21   -1    0    0  506  501  0.00000000000E+00  0.00000000000E+00  0.28539738550E+04  0.28539738550E+04  0.00000000000E+00 0. -1.
         21   -1    0    0  504  502 -0.00000000000E+00 -0.00000000000E+00 -0.29739533299E+02  0.29739533299E+02  0.00000000000E+00 0. -1.
         21    1    1    2  503  501 -0.18174580028E+02  0.26677996401E+02  0.18254317515E+03  0.18537540733E+03  0.00000000000E+00 0. -1.
         21    1    1    2  504  505 -0.39242002850E+02 -0.30874384706E+02  0.17023032917E+02  0.52753635593E+02  0.00000000000E+00 0. -1.
         21    1    1    2  505  503 -0.30678033814E+01 -0.11177062861E+03  0.35593337030E+03  0.37308263016E+03  0.00000000000E+00 0. -1.
         21    1    1    2  506  502  0.60484386258E+02  0.11596701692E+03  0.22687347433E+04  0.22725017152E+04  0.00000000000E+00 0. -1.
<scales pt_clust_3="32.28050" pt_clust_4="49.90445" pt_clust_5="14000.00000" pt_clust_6="133.88400"></scales>
<clustering>
<clus scale="   32.281">  1  3  2 -1</clus>
<clus scale="   49.904">  2  4  1 -1</clus>
<clus scale="  133.884">  1  6  2 -1</clus>
<clus scale="   32.281">  1  3  2 -1</clus>
</clustering>
</event>
<event>
 6    0  0.1221518E+003  0.1388284E+03  0.7546771E-02  0.1214914E+00
         21   -1    0    0  504  501  0.00000000000E+00  0.00000000000E+00  0.81796743894E+03  0.81796743894E+03  0.00000000000E+00 0.  1.
         21   -1    0    0  503  502 -0.00000000000E+00 -0.00000000000E+00 -0.27481744248E+03  0.27481744248E+03  0.00000000000E+00 0.  1.
         21    1    1    2  503  505 -0.13798099248E+03  0.12752127038E+02 -0.22171228064E+03  0.26145306733E+03  0.00000000000E+00 0.  1.
         21    1    1    2  504  502  0.19704192146E+02 -0.59350707775E+02  0.35243961052E+03  0.35794474541E+03  0.00000000000E+00 0.  1.
         21    1    1    2  505  506  0.14762439789E+03  0.77816702937E+02  0.21932953149E+03  0.27559725233E+03  0.00000000000E+00 0.  1.
         21    1    1    2  506  501 -0.29347597551E+02 -0.31218122200E+02  0.19309313508E+03  0.19778981635E+03  0.00000000000E+00 0.  1.
<scales pt_clust_3="138.82837" pt_clust_4="77.21944" pt_clust_5="14000.00000" pt_clust_6="42.84685"></scales>
<clustering>
<clus scale="   42.847">  1  6  2 -1</clus>
<clus scale="   77.219">  1  4  2 -1</clus>
<clus scale="  138.828">  2  3  1 -1</clus>
<clus scale="   42.847">  1  3  2 -1</clus>
</clustering>
</event>
<event>
 6    0  0.1221518E+003  0.1007820E+03  0.7546771E-02  0.1278660E+00
         21   -1    0    0  506  501  0.00000000000E+00  0.00000000000E+00  0.48755601210E+03  0.48755601210E+03  0.00000000000E+00 0. -1.
         21   -1    0    0  503  502 -0.00000000000E+00 -0.00000000000E+00 -0.98535085999E+02  0.98535085999E+02  0.00000000000E+00 0. -1.
         21    1    1    2  503  504  0.12291493642E+03  0.43537834545E+02  0.24458820800E+02  0.13267199609E+03  0.00000000000E+00 0. -1.
         21    1    1    2  504  505 -0.68744702795E+02 -0.65865302435E+02  0.23410636193E+03  0.25272487199E+03  0.00000000000E+00 0. -1.
         21    1    1    2  505  501  0.26002186486E+02  0.35508236269E+02  0.10765988369E+03  0.11630820737E+03  0.00000000000E+00 0.  1.
         21    1    1    2  506  502 -0.80172420106E+02 -0.13180768379E+02  0.22795859684E+02  0.84386022655E+02  0.00000000000E+00 0. -1.
<scales pt_clust_3="14000.00000" pt_clust_4="67.29834" pt_clust_5="44.01078" pt_clust_6="100.78201"></scales>
<clustering>
<clus scale="   44.011">  1  5  2 -1</clus>
<clus scale="   67.298">  1  4  2 -1</clus>
<clus scale="  100.782">  2  6  1 -1</clus>
<clus scale="   44.011">  1  3  2 -1</clus>
</clustering>
</event>
<event>
 6    0  0.1221518E+003  0.7856071E+02  0.7546771E-02  0.1333186E+00
         21   -1    0    0  504  501  0.00000000000E+00  0.00000000000E+00  0.10806657664E+03  0.10806657664E+03  0.00000000000E+00 0.  1.
         21   -1    0    0  505  502 -0.00000000000E+00 -0.00000000000E+00 -0.42844168901E+03  0.42844168901E+03  0.00000000000E+00 0.  1.
         21    1    1    2  503  506  0.57037335048E+02 -0.23893880833E+02 -0.31878537818E+02  0.69573100434E+02  0.00000000000E+00 0.  1.
         21    1    1    2  504  502 -0.28370536517E+02  0.71716188258E+02 -0.91552544519E+02  0.11970784188E+03  0.00000000000E+00 0.  1.
         21    1    1    2  505  503 -0.26946351986E+01  0.30121691620E+02 -0.24843430266E+03  0.25026821633E+03  0.00000000000E+00 0.  1.
         21    1    1    2  506  501 -0.25972163333E+02 -0.77943999044E+02  0.51490272637E+02  0.96959107006E+02  0.00000000000E+00 0.  1.
<scales pt_clust_3="58.33327" pt_clust_4="78.56071" pt_clust_5="30.24198" pt_clust_6="14000.00000"></scales>
<clustering>
<clus scale="   30.242">  2  5  1 -1</clus>
<clus scale="   58.333">  2  3  1 -1</clus>
<clus scale="   78.561">  2  4  1 -1</clus>
<clus scale="   78.561">  1  3  2 -1</clus>
</clustering>
</event>
<event>
 6    0  0.1221518E+003  0.1159320E+03  0.7546771E-02  0.1249963E+00
         21   -1    0    0  505  501  0.00000000000E+00  0.00000000000E+00  0.62517970053E+03  0.62517970053E+03  0.00000000000E+00 0. -1.
         21   -1    0    0  504  502 -0.00000000000E+00 -0.00000000000E+00 -0.11056667927E+03  0.11056667927E+03  0.00000000000E+00 0. -1.
         21    1    1    2  503  506  0.66876768615E+02 -0.69985014808E+01 -0.52723092859E+02  0.85447093128E+02  0.00000000000E+00 0. -1.
         21    1    1    2  504  501 -0.22446086537E+01  0.35997076720E+02  0.27678216808E+03  0.27912218895E+03  0.00000000000E+00 0. -1.
         21    1    1    2  505  503 -0.10329439103E+03 -0.16623400634E+01  0.30471797503E+03  0.32175384831E+03  0.00000000000E+00 0. -1.
         21    1    1    2  506  502  0.38662231073E+02 -0.27336235175E+02 -0.14164028986E+02  0.49423249410E+02  0.00000000000E+00 0. -1.
<scales pt_clust_3="31.38436" pt_clust_4="36.06699" pt_clust_5="109.73356" pt_clust_6="31.38436"></scales>
<clustering>
<clus scale="   31.384">  3  6 -1 -1</clus>
<clus scale="   36.067">  1  4  2 -1</clus>
<clus scale="  109.734">  1  5  2 -1</clus>
<clus scale="   36.067">  1  3  2 -1</clus>
</clustering>
</event>
<event>
 6    0  0.1221518E+003  0.1390193E+03  0.7546771E-02  0.1214655E+00
         21   -1    0    0  504  501  0.00000000000E+00  0.00000000000E+00  0.15637916553E+03  0.15637916553E+03  0.00000000000E+00 0.  1.
         21   -1    0    0  503  502 -0.00000000000E+00 -0.00000000000E+00 -0.10524208180E+04  0.10524208180E+04  0.00000000000E+00 0. -1.
         21    1    1    2  503  506 -0.42237225034E+02 -0.93380393855E+01 -0.65570526919E+03  0.65713056708E+03  0.00000000000E+00 0. -1.
         21    1    1    2  504  502  0.47942033405E+02  0.15554115933E+03  0.81053214484E+02  0.18182715526E+03  0.00000000000E+00 0.  1.
         21    1    1    2  505  501  0.15818300827E+02 -0.29360424023E+02 -0.74485501807E+01  0.34172123722E+02  0.00000000000E+00 0.  1.
         21    1    1    2  506  505 -0.21523109198E+02 -0.11684269592E+03 -0.31394104759E+03  0.33567013746E+03  0.00000000000E+00 0. -1.
<scales pt_clust_3="43.21208" pt_clust_4="139.01926" pt_clust_5="33.35046" pt_clust_6="14000.00000"></scales>
<clustering>
<clus scale="   33.350">  1  5  2 -1</clus>
<clus scale="   43.212">  2  3  1 -1</clus>
<clus scale="  139.019">  1  4  2 -1</clus>
<clus scale="   33.350">  1  3  2 -1</clus>
</clustering>
</event>
<event>
 6    0  0.1221518E+003  0.9550215E+02  0.7546771E-02  0.1290049E+00
         21   -1    0    0  503  501  0.00000000000E+00  0.00000000000E+00  0.12337385510E+03  0.12337385510E+03  0.00000000000E+00 0. -1.
         21   -1    0    0  505  502 -0.00000000000E+00 -0.00000000000E+00 -0.18745646111E+04  0.18745646111E+04  0.00000000000E+00 0. -1.
         21    1    1    2  503  502 -0.61500681223E+02 -0.21875236467E+02 -0.21980555189E+02  0.68876734590E+02  0.00000000000E+00 0. -1.
         21    1    1    2  504  506  0.12502357586E+03 -0.74589267461E+02  0.35281033669E+02  0.14979721185E+03  0.00000000000E+00 0. -1.
         21    1    1    2  505  504 -0.70074007554E+02  0.63905116141E+02 -0.17252527457E+04  0.17278574209E+04  0.00000000000E+00 0. -1.
         21    1    1    2  506  501  0.65511129199E+01  0.32559387787E+02 -0.39238488807E+02  0.51407098901E+02  0.00000000000E+00 0. -1.
<scales pt_clust_3="62.12144" pt_clust_4="95.50215" pt_clust_5="14000.00000" pt_clust_6="33.21191"></scales>
<clustering>
<clus scale="   33.212">  1  6  2 -1</clus>
<clus scale="   62.121">  1  3  2 -1</clus>
<clus scale="   95.502">  1  4  2 -1</clus>
<clus scale="   33.212">  1  3  2 -1</clus>
</clustering>
</event>
<event>
 6    0  0.1221518E+003  0.1369449E+03  0.7546771E-02  0.1217500E+00
         21   -1    0    0  505  501  0.00000000000E+00  0.00000000000E+00  0.14151504243E+04  0.14151504243E+04  0.00000000000E+00 0. -1.
         21   -1    0    0  506  502 -0.00000000000E+00 -0.00000000000E+00 -0.11159075515E+04  0.11159075515E+04  0.00000000000E+00 0. -1.
         21    1    1    2  503  504 -0.10200793010E+03 -0.15828271044E+02 -0.90775317609E+02  0.13746385072E+03  0.00000000000E+00 0. -1.
         21    1    1    2  504  501  0.51040340289E+02  0.12719247658E+03  0.13352056757E+04  0.13422210097E+04  0.00000000000E+00 0. -1.
         21    1    1    2  505  502 -0.41599231435E+02 -0.99690616996E+02 -0.95173316051E+03  0.95784378893E+03  0.00000000000E+00 0. -1.
         21    1    1    2  506  503  0.92566821250E+02 -0.11673588543E+02  0.65456752453E+01  0.93529326578E+02  0.00000000000E+00 0. -1.
<scales pt_clust_3="93.72523" pt_clust_4="136.94495" pt_clust_5="14000.00000" pt_clust_6="93.29999"></scales>
<clustering>
<clus scale="   93.300">  2  6  1 -1</clus>
<clus scale="   93.725">  2  3  1 -1</clus>
<clus scale="  136.945">  1  4  2 -1</clus>
<clus scale="  136.945">  1  3  2 -1</clus>
</clustering>
</event>
<event>
 6    0  0.1221518E+003  0.7960674E+02  0.7546771E-02  0.1330171E+00
         21   -1    0    0  504  501  0.00000000000E+00  0.00000000000E+00  0.54380144136E+03  0.54380144136E+03  0.00000000000E+00 0.  1.
         21   -1    0    0  506  502 -0.00000000000E+00 -0.00000000000E+00 -0.11877379531E+03  0.11877379531E+03  0.00000000000E+00 0.  1.
         21    1    1    2  503  501  0.33643851245E+02 -0.63473984650E+02  0.38822022029E+03  0.39481108760E+03  0.00000000000E+00 0.  1.
         21    1    1    2  504  502 -0.11189855387E+03 -0.63699896963E+01 -0.83240887583E+01  0.11238840501E+03  0.00000000000E+00 0.  1.
         21    1    1    2  505  503  0.49542237702E+02  0.45216563307E+02  0.79674872783E+02  0.10414920195E+03  0.00000000000E+00 0. -1.
         21    1    1    2  506  505  0.28712464926E+02  0.24627411040E+02 -0.34543358258E+02  0.51226542108E+02  0.00000000000E+00 0.  1.
<scales pt_clust_3="71.49607" pt_clust_4="79.60674" pt_clust_5="14000.00000" pt_clust_6="37.82744"></scales>
<clustering>
<clus scale="   37.827">  2  6  1 -1</clus>
<clus scale="   71.496">  1  3  2 -1</clus>
<clus scale="   79.607">  2  4  1 -1</clus>
<clus scale="   71.496">  1  3  2 -1</clus>
</clustering>
</event>
<event>
 6    0  0.1221518E+003  0.1549204E+03  0.7546771E-02  0.1194554E+00
         21   -1    0    0  503  501  0.00000000000E+00  0.00000000000E+00  0.42701386347E+03  0.42701386347E+03  0.00000000000E+00 0. -1.
         21   -1    0    0  504  502 -0.00000000000E+00 -0.00000000000E+00 -0.27279373292E+03  0.27279373292E+03  0.00000000000E+00 0.  1.
         21    1    1    2  503  506  0.61213065375E+02 -0.13761973986E+03  0.32219411499E+03  0.35566174929E+03  0.00000000000E+00 0. -1.
         21    1    1    2  504  505  0.47316290272E+01 -0.33225145810E+02 -0.20096997525E+02  0.39117616708E+02  0.00000000000E+00 0. -1.
         21    1    1    2  505  501 -0.10154739561E+03  0.15654348033E+03 -0.40414206212E+02  0.19092156204E+03  0.00000000000E+00 0.  1.
         21    1    1    2  506  502  0.35602701205E+02  0.14301405339E+02 -0.10746278070E+03  0.11410666836E+03  0.00000000000E+00 0.  1.
<scales pt_clust_3="154.92039" pt_clust_4="33.56037" pt_clust_5="14000.00000" pt_clust_6="37.76744"></scales>
<clustering>
<clus scale="   33.560">  2  4  1 -1</clus>
<clus scale="   37.767">  2  6  1 -1</clus>
<clus scale="  154.920">  1  3  2 -1</clus>
<clus scale="  154.920">  1  3  2 -1</clus>
</clustering>
</event>
<event>
 6    0  0.1221518E+003  0.1087412E+03  0.7546771E-02  0.1262919E+00
         21   -1    0    0  503  501  0.00000000000E+00  0.00000000000E+00  0.16326494622E+04  0.16326494622E+04  0.00000000000E+00 0.  1.
         21   -1    0    0  506  502 -0.00000000000E+00 -0.00000000000E+00 -0.74722690892E+02  0.74722690892E+02  0.00000000000E+00 0.  1.
         21    1    1    2  503  502  0.67909010732E+02  0.17610380948E+02  0.45754250134E+03  0.46288972746E+03  0.00000000000E+00 0.  1.
         21    1    1    2  504  501 -0.36875983862E+02 -0.13604533188E+02  0.68908108848E+03  0.69020117938E+03  0.00000000000E+00 0. -1.
         21    1    1    2  505  504 -0.13539851441E+03 -0.21118847657E+02  0.42600680293E+03  0.44750481514E+03  0.00000000000E+00 0.  1.
         21    1    1    2  506  505  0.10436548754E+03  0.17112999897E+02 -0.14703621460E+02  0.10677643110E+03  0.00000000000E+00 0.  1.
<scales pt_clust_3="51.10394" pt_clust_4="39.30549" pt_clust_5="108.74120" pt_clust_6="14000.00000"></scales>
<clustering>
<clus scale="   39.305">  1  4  2 -1</clus>
<clus scale="   51.104">  1  3  2 -1</clus>
<clus scale="  108.741">  1  5  2 -1</clus>
<clus scale="   39.305">  1  3  2 -1</clus>
</clustering>
</event>
<event>
 6    0  0.1221518E+003  0.1566634E+03  0.7546771E-02  0.1192516E+00
         21   -1    0    0  505  501  0.00000000000E+00  0.00000000000E+00  0.73879170234E+03  0.73879170234E+03  0.00000000000E+00 0. -1.
         21   -1    0    0  506  502 -0.00000000000E+00 -0.00000000000E+00 -0.45664370431E+03  0.45664370431E+03  0.00000000000E+00 0.  1.
         21    1    1    2  503  504 -0.13689615010E+03 -0.81513364981E+02 -0.80768855266E+02  0.17862976394E+03  0.00000000000E+00 0.  1.
         21    1    1    2  504  501  0.15799535467E+03 -0.12138507281E+02  0.65239340027E+03  0.67136206638E+03  0.00000000000E+00 0. -1.
         21    1    1    2  505  502 -0.44118089485E+01  0.52533063957E+02 -0.13429117976E+00  0.52718164811E+02  0.00000000000E+00 0. -1.
         21    1    1    2  506  503 -0.16687395624E+02  0.41118808305E+02 -0.28934225579E+03  0.29272541152E+03  0.00000000000E+00 0.  1.
<scales pt_clust_3="14000.00000" pt_clust_4="156.66341" pt_clust_5="59.51633" pt_clust_6="44.37596"></scales>
<clustering>
<clus scale="   44.376">  2  6  1 -1</clus>
<clus scale="   59.516">  2  5  1 -1</clus>
<clus scale="  156.663">  1  4  2 -1</clus>
<clus scale="  156.663">  1  3  2 -1</clus>
</clustering>
</event>
<event>
 6    0  0.1221518E+003  0.1872034E+03  0.7546771E-02  0.1161008E+00
         21   -1    0    0  503  501  0.00000000000E+00  0.00000000000E+00  0.46994405196E+03  0.46994405196E+03  0.00000000000E+00 0.  1.
         21   -1    0    0  506  502 -0.00000000000E+00 -0.00000000000E+00 -0.33682129429E+03  0.33682129429E+03  0.00000000000E+00 0.  1.
         21    1    1    2  503  502  0.19171467603E+03 -0.36074769780E+02 -0.11943613421E+03  0.22873761425E+03  0.00000000000E+00 0.  1.
         21    1    1    2  504  505 -0.20384281207E+03  0.22023606172E+02  0.32490377790E+03  0.38418666837E+03  0.00000000000E+00 0.  1.
         21    1    1    2  505  501  0.20839531174E+02 -0.31238409431E+02  0.50323116376E+02  0.62789651418E+02  0.00000000000E+00 0.  1.
         21    1    1    2  506  504 -0.87113951358E+01  0.45289573038E+02 -0.12266800239E+03  0.13105141221E+03  0.00000000000E+00 0. -1.
<scales pt_clust_3="14000.00000" pt_clust_4="187.20339" pt_clust_5="37.55162" pt_clust_6="45.76905"></scales>
<clustering>
<clus scale="   37.552">  1  5  2 -1</clus>
<clus scale="   45.769">  2  6  1 -1</clus>
<clus scale="  187.203">  1  4  2 -1</clus>
<clus scale="   37.552">  1  3  2 -1</clus>
</clustering>
</event>
<event>
 6    0  0.1221518E+003  0.9004743E+02  0.7546771E-02  0.1302737E+00
         21   -1    0    0  503  501  0.00000000000E+00  0.00000000000E+00  0.70288805230E+03  0.70288805230E+03  0.00000000000E+00 0. -1.
         21   -1    0    0  504  502 -0.00000000000E+00 -0.00000000000E+00 -0.81355857173E+02  0.81355857173E+02  0.00000000000E+00 0.  1.
         21    1    1    2  503  506 -0.42893191048E+02 -0.72383589027E+02  0.15214639335E+03  0.17386125160E+03  0.00000000000E+00 0.  1.
         21    1    1    2  504  501  0.51946524142E+02  0.47500680916E+02  0.35159955082E+03  0.35857635197E+03  0.00000000000E+00 0. -1.
         21    1    1    2  505  502 -0.96458965570E+01  0.70927769126E+02 -0.43711455888E+02  0.83871825600E+02  0.00000000000E+00 0.  1.
         21    1    1    2  506  505  0.59256346303E+00 -0.46044861015E+02  0.16149770685E+03  0.16793448030E+03  0.00000000000E+00 0.  1.
<scales pt_clust_3="37.99027" pt_clust_4="70.39003" pt_clust_5="73.96945" pt_clust_6="37.99027"></scales>
<clustering>
<clus scale="   37.990">  3  6 -1 -1</clus>
<clus scale="   70.390">  1  4  2 -1</clus>
<clus scale="   73.969">  2  5  1 -1</clus>
<clus scale="   70.390">  1  3  2 -1</clus>
</clustering>
</event>
<event>
 6    0  0.1221518E+003  0.9275358E+02  0.7546771E-02  0.1296317E+00
         21   -1    0    0  505  501  0.00000000000E+00  0.00000000000E+00  0.63039660751E+03  0.63039660751E+03  0.00000000000E+00 0.  1.
         21   -1    0    0  504  502 -0.00000000000E+00 -0.00000000000E+00 -0.52672812390E+02  0.52672812390E+02  0.00000000000E+00 0. -1.
         21    1    1    2  503  502  0.74550421667E+02 -0.21192290121E+02  0.90130704820E+02  0.11887145361E+03  0.00000000000E+00 0.  1.
         21    1    1    2  504  506 -0.78699860572E+02  0.88864338712E+02  0.92412600263E+02  0.15043479463E+03  0.00000000000E+00 0. -1.
         21    1    1    2  505  503  0.42779615906E+02 -0.53273187482E+02  0.32721080411E+03  0.33426791406E+03  0.00000000000E+00 0.  1.
         21    1    1    2  506  501 -0.38630177002E+02 -0.14398861109E+02  0.67969685922E+02  0.79495257599E+02  0.00000000000E+00 0.  1.
<scales pt_clust_3="92.75358" pt_clust_4="14000.00000" pt_clust_5="64.92968" pt_clust_6="41.22642"></scales>
<clustering>
<clus scale="   41.226">  1  6  2 -1</clus>
<clus scale="   64.930">  1  5  2 -1</clus>
<clus scale="   92.754">  2  3  1 -1</clus>
<clus scale="   41.226">  1  3  2 -1</clus>
</clustering>
</event>
<event>
 6    0  0.1221518E+003  0.1240228E+03  0.7546771E-02  0.1236604E+00
         21   -1    0    0  503  501  0.00000000000E+00  0.00000000000E+00  0.11672565944E+03  0.11672565944E+03  0.00000000000E+00 0.  1.
         21   -1    0    0  505  502 -0.00000000000E+00 -0.00000000000E+00 -0.33515645472E+03  0.33515645472E+03  0.00000000000E+00 0.  1.
         21    1    1    2  503  506  0.38247031456E+02  0.88874358988E+01 -0.21753643723E+02  0.44889229747E+02  0.00000000000E+00 0.  1.
         21    1    1    2  504  501 -0.11396803773E+03 -0.65993667740E+02  0.44632361389E+02  0.13905367845E+03  0.00000000000E+00 0.  1.
         21    1    1    2  505  504  0.29734159526E+02  0.63259041944E+02 -0.15178280861E+03  0.16710430162E+03  0.00000000000E+00 0.  1.
         21    1    1    2  506  502  0.45986846749E+02 -0.61528101028E+01 -0.89526704333E+02  0.10083490435E+03  0.00000000000E+00 0.  1.
<scales pt_clust_3="38.47758" pt_clust_4="116.75736" pt_clust_5="69.89869" pt_clust_6="38.47758"></scales>
<clustering>
<clus scale="   38.478">  3  6 -1 -1</clus>
<clus scale="   69.899">  2  5  1 -1</clus>
<clus scale="  116.757">  1  4  2 -1</clus>
<clus scale="  116.757">  1  3  2 -1</clus>
</clustering>
</event>
<event>
 6    0  0.1221518E+003  0.6437526E+02  0.7546771E-02  0.1380337E+00
         21   -1    0    0  503  501  0.00000000000E+00  0.00000000000E+00  0.32499600113E+03  0.32499600113E+03  0.00000000000E+00 0.  1.
         21   -1    0    0  504  502 -0.00000000000E+00 -0.00000000000E+00 -0.66867743742E+02  0.66867743742E+02  0.00000000000E+00 0.  1.
         21    1    1    2  503  505 -0.51821295141E+02 -0.16982650588E+02  0.11563576705E+03  0.12784947271E+03  0.00000000000E+00 0.  1.
         21    1    1    2  504  506 -0.26598350237E+02 -0.32575675018E+02  0.24829341970E+02  0.48837926459E+02  0.00000000000E+00 0. -1.
         21    1    1    2  505  502 -0.17547548271E+02  0.58021949377E+02 -0.30958386181E+01  0.60696353075E+02  0.00000000000E+00 0.  1.
         21    1    1    2  506  501  0.95967193649E+02 -0.84636237714E+01  0.12075898699E+03  0.15447999263E+03  0.00000000000E+00 0.  1.
<scales pt_clust_3="14000.00000" pt_clust_4="42.05528" pt_clust_5="51.15898" pt_clust_6="64.37526"></scales>
<clustering>
<clus scale="   42.055">  2  4  1 -1</clus>
<clus scale="   51.159">  2  5  1 -1</clus>
<clus scale="   64.375">  2  6  1 -1</clus>
<clus scale="   64.375">  1  3  2 -1</clus>
</clustering>
</event>
<event>
 6    0  0.1221518E+003  0.1200742E+03  0.7546771E-02  0.1242975E+00
         21   -1    0    0  506  501  0.00000000000E+00  0.00000000000E+00  0.29130879914E+03  0.29130879914E+03  0.00000000000E+00 0. -1.
         21   -1    0    0  504  502 -0.00000000000E+00 -0.00000000000E+00 -0.19510121848E+03  0.19510121848E+03  0.00000000000E+00 0. -1.
         21    1    1    2  503  502  0.50013586737E+02  0.63209886528E+01 -0.10776048647E+03  0.11896905564E+03  0.00000000000E+00 0. -1.
         21    1    1    2  504  501  0.85805650874E+02 -0.29907618396E+02  0.45737107025E+02  0.10172983004E+03  0.00000000000E+00 0. -1.
         21    1    1    2  505  503 -0.13934074781E+03  0.77107391699E+02  0.10971381833E+03  0.19338695868E+03  0.00000000000E+00 0. -1.
         21    1    1    2  506  505  0.35215101977E+01 -0.53520761956E+02  0.48517141774E+02  0.72324173278E+02  0.00000000000E+00 0. -1.
<scales pt_clust_3="50.41144" pt_clust_4="120.07419" pt_clust_5="14000.00000" pt_clust_6="53.69855"></scales>
<clustering>
<clus scale="   50.411">  2  3  1 -1</clus>
<clus scale="   53.699">  1  6  2 -1</clus>
<clus scale="  120.074">  2  4  1 -1</clus>
<clus scale="   53.699">  1  3  2 -1</clus>
</clustering>
</event>
<event>
 6    0  0.1221518E+003  0.1113991E+03  0.7546771E-02  0.1258001E+00
         21   -1    0    0  503  501  0.00000000000E+00  0.00000000000E+00  0.15154788031E+04  0.15154788031E+04  0.00000000000E+00 0.  1.
         21   -1    0    0  504  502 -0.00000000000E+00 -0.00000000000E+00 -0.56690838959E+02  0.56690838959E+02  0.00000000000E+00 0. -1.
         21    1    1    2  503  502 -0.12050475874E+03 -0.14767396059E+03  0.98194599918E+03  0.10002734330E+04  0.00000000000E+00 0.  1.
         21    1    1    2  504  505  0.57547339068E+02  0.88981752272E+02  0.28068047154E+02  0.10962328102E+03  0.00000000000E+00 0. -1.
         21    1    1    2  505  506  0.26677138727E+02  0.57421588605E+02  0.17498515035E+03  0.18608791313E+03  0.00000000000E+00 0.  1.
         21    1    1    2  506  501  0.36280280941E+02  0.12706197176E+01  0.27378876750E+03  0.27618501493E+03  0.00000000000E+00 0.  1.
<scales pt_clust_3="14000.00000" pt_clust_4="111.39914" pt_clust_5="65.87697" pt_clust_6="36.30252"></scales>
<clustering>
<clus scale="   36.303">  1  6  2 -1</clus>
<clus scale="   65.877">  1  5  2 -1</clus>
<clus scale="  111.399">  2  4  1 -1</clus>
<clus scale="   36.303">  1  3  2 -1</clus>
</clustering>
</event>
<event>
 6    0  0.1221518E+003  0.1128033E+03  0.7546771E-02  0.1255465E+00
         21   -1    0    0  505  501  0.00000000000E+00  0.00000000000E+00  0.18915184310E+04  0.18915184310E+04  0.00000000000E+00 0.  1.
         21   -1    0    0  503  502 -0.00000000000E+00 -0.00000000000E+00 -0.15072362375E+04  0.15072362375E+04  0.00000000000E+00 0. -1.
         21    1    1    2  503  506  0.41583727395E+02  0.61887711679E+02 -0.12989617133E+04  0.13010998531E+04  0.00000000000E+00 0. -1.
         21    1    1    2  504  502  0.78262790260E+02 -0.15494824774E+00 -0.16354181785E+03  0.18130365284E+03  0.00000000000E+00 0. -1.
         21    1    1    2  505  504 -0.16228955553E+02 -0.76168949971E+02  0.18001081596E+04  0.18017920175E+04  0.00000000000E+00 0.  1.
         21    1    1    2  506  501 -0.10361756210E+03  0.14436186540E+02  0.46677564920E+02  0.11455914509E+03  0.00000000000E+00 0.  1.
<scales pt_clust_3="74.56068" pt_clust_4="14000.00000" pt_clust_5="77.59760" pt_clust_6="112.80327"></scales>
<clustering>
<clus scale="   74.561">  2  3  1 -1</clus>
<clus scale="   77.598">  1  5  2 -1</clus>
<clus scale="  112.803">  1  6  2 -1</clus>
<clus scale="   77.598">  1  3  2 -1</clus>
</clustering>
</event>
<event>
 6    0  0.1221518E+003  0.1087711E+03  0.7546771E-02  0.1262863E+00
         21   -1    0    0  505  501  0.00000000000E+00  0.00000000000E+00  0.11823996664E+03  0.11823996664E+03  0.00000000000E+00 0.  1.
         21   -1    0    0  506  502 -0.00000000000E+00 -0.00000000000E+00 -0.12887572725E+04  0.12887572725E+04  0.00000000000E+00 0. -1.
         21    1    1    2  503  502 -0.11158671261E+03 -0.68570051453E+02 -0.74999822319E+03  0.76134800268E+03  0.00000000000E+00 0. -1.
         21    1    1    2  504  503  0.11949832251E+03 -0.14867920075E+02 -0.29481734193E+03  0.31846219435E+03  0.00000000000E+00 0.  1.
         21    1    1    2  505  504 -0.27610555722E+02  0.32026531717E+02  0.92733992448E+02  0.10191974724E+03  0.00000000000E+00 0.  1.
         21    1    1    2  506  501  0.19698945822E+02  0.51411439812E+02 -0.21843573317E+03  0.22526729487E+03  0.00000000000E+00 0.  1.
<scales pt_clust_3="108.77112" pt_clust_4="14000.00000" pt_clust_5="42.28524" pt_clust_6="58.64363"></scales>
<clustering>
<clus scale="   42.285">  1  5  2 -1</clus>
<clus scale="   58.644">  2  6  1 -1</clus>
<clus scale="  108.771">  2  3  1 -1</clus>
<clus scale="   42.285">  1  3  2 -1</clus>
</clustering>
</event>
<event>
 6    0  0.1221518E+003  0.9373315E+02  0.7546771E-02  0.1294055E+00
         21   -1    0    0  505  501  0.00000000000E+00  0.00000000000E+00  0.96985587310E+02  0.96985587310E+02  0.00000000000E+00 0.  1.
         21   -1    0    0  503  502 -0.00000000000E+00 -0.00000000000E+00 -0.10946206345E+04  0.10946206345E+04  0.00000000000E+00 0. -1.
         21    1    1    2  503  504 -0.16734375276E+02 -0.29080996338E+02 -0.78014595383E+03  0.78086711606E+03  0.00000000000E+00 0. -1.
         21    1    1    2  504  501 -0.92596922867E+02 -0.43265891495E+02 -0.50308831494E+02  0.11391710152E+03  0.00000000000E+00 0. -1.
         21    1    1    2  505  506  0.45732397712E+02 -0.23769444240E+02  0.36250174430E+02  0.63012013348E+02  0.00000000000E+00 0.  1.
         21    1    1    2  506  502  0.63598900432E+02  0.96116332074E+02 -0.20343043629E+03  0.23380999088E+03  0.00000000000E+00 0. -1.
<scales pt_clust_3="33.55210" pt_clust_4="14000.00000" pt_clust_5="51.49924" pt_clust_6="93.73315"></scales>
<clustering>
<clus scale="   33.552">  2  3  1 -1</clus>
<clus scale="   51.499">  1  5  2 -1</clus>
<clus scale="   93.733">  2  6  1 -1</clus>
<clus scale="   51.499">  1  3  2 -1</clus>
</clustering>
</event>
<event>
 6    0  0.1221518E+003  0.1148562E+03  0.7546771E-02  0.1251832E+00
         21   -1    0    0  505  501  0.00000000000E+00  0.00000000000E+00  0.26611991004E+03  0.26611991004E+03  0.00000000000E+00 0. -1.
         21   -1    0    0  503  502 -0.00000000000E+00 -0.00000000000E+00 -0.23353102376E+03  0.23353102376E+03  0.00000000000E+00 0.  1.
         21    1    1    2  503  504 -0.38119516232E+02 -0.58562913577E+02 -0.20078231341E+02  0.72703835787E+02  0.00000000000E+00 0.  1.
         21    1    1    2  504  501  0.10067008138E+03 -0.29711689072E+02  0.20701723252E+03  0.23210640731E+03  0.00000000000E+00 0. -1.
         21    1    1    2  505  506 -0.45223102139E+02  0.58540173437E+02 -0.62799616606E+02  0.97035419919E+02  0.00000000000E+00 0.  1.
         21    1    1    2  506  502 -0.17327463004E+02  0.29734429212E+02 -0.91550498295E+02  0.97805270783E+02  0.00000000000E+00 0.  1.
<scales pt_clust_3="69.87641" pt_clust_4="103.72072" pt_clust_5="33.65045" pt_clust_6="33.65045"></scales>
<clustering>
<clus scale="   33.650">  5  6 -1 -1</clus>
<clus scale="   69.876">  2  3  1 -1</clus>
<clus scale="  103.721">  1  4  2 -1</clus>
<clus scale="  103.721">  1  3  2 -1</clus>
</clustering>
</event>
<event>
 6    0  0.1221518E+003  0.1188761E+03  0.7546771E-02  0.1244963E+00
         21   -1    0    0  506  501  0.00000000000E+00  0.00000000000E+00  0.69406884708E+02  0.69406884708E+02  0.00000000000E+00 0. -1.
         21   -1    0    0  504  502 -0.00000000000E+00 -0.00000000000E+00 -0.89266356080E+03  0.89266356080E+03  0.00000000000E+00 0. -1.
         21    1    1    2  503  502  0.58073139758E+02 -0.30537434722E+02 -0.44942260343E+03  0.45418685687E+03  0.00000000000E+00 0. -1.
         21    1    1    2  504  505 -0.11423461424E+03  0.12821305732E+03 -0.31086180678E+03  0.35513828022E+03  0.00000000000E+00 0. -1.
         21    1    1    2  505  501  0.17530594018E+02 -0.94511998470E+02 -0.26949705779E+02  0.99830487443E+02  0.00000000000E+00 0. -1.
         21    1    1    2  506  503  0.38630880461E+02 -0.31636241326E+01 -0.36022560100E+02  0.52914820977E+02  0.00000000000E+00 0. -1.
<scales pt_clust_3="67.00894" pt_clust_4="14000.00000" pt_clust_5="118.87613" pt_clust_6="38.76020"></scales>
<clustering>
<clus scale="   38.760">  1  6  2 -1</clus>
<clus scale="   67.009">  2  3  1 -1</clus>
<clus scale="  118.876">  1  5  2 -1</clus>
<clus scale="   38.760">  1  3  2 -1</clus>
</clustering>
</event>
<event>
 6    0  0.1221518E+003  0.7056140E+02  0.7546771E-02  0.1358194E+00
         21   -1    0    0  503  501  0.00000000000E+00  0.00000000000E+00  0.12933028002E+03  0.12933028002E+03  0.00000000000E+00 0. -1.
         21   -1    0    0  506  502 -0.00000000000E+00 -0.00000000000E+00 -0.75767763854E+03  0.75767763854E+03  0.00000000000E+00 0.  1.
         21    1    1    2  503  504  0.39211769247E+02  0.19563707001E+02 -0.32062168106E+02  0.54298104044E+02  0.00000000000E+00 0. -1.
         21    1    1    2  504  502  0.80957375795E+02  0.60280798400E+01 -0.36946085279E+03  0.37827470995E+03  0.00000000000E+00 0.  1.
         21    1    1    2  505  501 -0.66997153659E+02 -0.76030717369E+02  0.86141501781E+02  0.13300243197E+03  0.00000000000E+00 0. -1.
         21    1    1    2  506  505 -0.53171991383E+02  0.50438930528E+02 -0.31296583940E+03  0.32143267259E+03  0.00000000000E+00 0. -1.
<scales pt_clust_3="43.82124" pt_clust_4="14000.00000" pt_clust_5="65.51006" pt_clust_6="70.56140"></scales>
<clustering>
<clus scale="   43.821">  1  3  2 -1</clus>
<clus scale="   65.510">  1  5  2 -1</clus>
<clus scale="   70.561">  2  6  1 -1</clus>
<clus scale="   43.821">  1  3  2 -1</clus>
</clustering>
</event>
<event>
 6    0  0.1221518E+003  0.1203463E+03  0.7546771E-02  0.1242527E+00
         21   -1    0    0  505  501  0.00000000000E+00  0.00000000000E+00  0.11993285036E+03  0.11993285036E+03  0.00000000000E+00 0.  1.
         21   -1    0    0  506  502 -0.00000000000E+00 -0.00000000000E+00 -0.69942362738E+03  0.69942362738E+03  0.00000000000E+00 0.  1.
         21    1    1    2  503  501 -0.38637301487E+02  0.55563330008E+02  0.30695387606E+01  0.67746193812E+02  0.00000000000E+00 0.  1.
         21    1    1    2  504  502  0.68721022340E+02 -0.90567412840E+02 -0.24338147444E+03  0.26862534743E+03  0.00000000000E+00 0.  1.
         21    1    1    2  505  504  0.10375438710E+03 -0.59827148073E+01  0.12307355987E+02  0.10465293465E+03  0.00000000000E+00 0.  1.
         21    1    1    2  506  503 -0.13383810795E+03  0.40986797639E+02 -0.35148619732E+03  0.37833200185E+03  0.00000000000E+00 0.  1.
<scales pt_clust_3="67.67662" pt_clust_4="120.34632" pt_clust_5="83.58288" pt_clust_6="14000.00000"></scales>
<clustering>
<clus scale="   67.677">  1  3  2 -1</clus>
<clus scale="   83.583">  1  5  2 -1</clus>
<clus scale="  120.346">  2  4  1 -1</clus>
<clus scale="   67.677">  1  3  2 -1</clus>
</clustering>
</event>
<event>
 6    0  0.1221518E+003  0.8947721E+02  0.7546771E-02  0.1304123E+00
         21   -1    0    0  503  501  0.00000000000E+00  0.00000000000E+00  0.56824333812E+03  0.56824333812E+03  0.00000000000E+00 0.  1.
         21   -1    0    0  505  502 -0.00000000000E+00 -0.00000000000E+00 -0.28943980493E+04  0.28943980493E+04  0.00000000000E+00 0.  1.
         21    1    1    2  503  502 -0.25181863801E+02 -0.52342728980E+02 -0.35329264380E+03  0.35803572406E+03  0.00000000000E+00 0.  1.
         21    1    1    2  504  501 -0.34612156824E+02 -0.74535978760E+01  0.55647818270E+03  0.55760337638E+03  0.00000000000E+00 0.  1.
         21    1    1    2  505  506 -0.14483509405E+02 -0.49462066419E+02 -0.20246603622E+04  0.20253162346E+04  0.00000000000E+00 0.  1.
         21    1    1    2  506  504  0.74277530031E+02  0.10925839328E+03 -0.50467988789E+03  0.52168605235E+03  0.00000000000E+00 0.  1.
<scales pt_clust_3="89.47721" pt_clust_4="35.40561" pt_clust_5="52.04110" pt_clust_6="14000.00000"></scales>
<clustering>
<clus scale="   35.406">  1  4  2 -1</clus>
<clus scale="   52.041">  2  5  1 -1</clus>
<clus scale="   89.477">  2  3  1 -1</clus>
<clus scale="   35.406">  1  3  2 -1</clus>
</clustering>
</event>
<event>
 6    0  0.1938113E+003  0.1175849E+03  0.7546771E-02  0.1247135E+00
         21   -1    0    0  504  501  0.00000000000E+00  0.00000000000E+00  0.13526731236E+04  0.13526731236E+04  0.00000000000E+00 0. -1.
         21   -1    0    0  506  502 -0.00000000000E+00 -0.00000000000E+00 -0.41565877001E+03  0.41565877001E+03  0.00000000000E+00 0. -1.
         21    1    1    2  503  501 -0.24527499426E+02  0.46867659430E+02  0.11429719242E+04  0.11441953483E+04  0.00000000000E+00 0. -1.
         21    1    1    2  504  502 -0.50757694015E+02  0.55338885148E+02  0.15574391365E+03  0.17290142379E+03  0.00000000000E+00 0.  1.
         21    1    1    2  505  503  0.11817303629E+03 -0.79075717867E+02 -0.75646780213E+02  0.16105983677E+03  0.00000000000E+00 0. -1.
         21    1    1    2  506  505 -0.42887842851E+02 -0.23130826711E+02 -0.28605470398E+03  0.29017528474E+03  0.00000000000E+00 0. -1.
<scales pt_clust_3="52.89539" pt_clust_4="117.58492" pt_clust_5="14000.00000" pt_clust_6="48.72784"></scales>
<clustering>
<clus scale="   48.728">  2  6  1 -1</clus>
<clus scale="   52.895">  1  3  2 -1</clus>
<clus scale="  117.585">  1  4  2 -1</clus>
<clus scale="   52.895">  1  3  2 -1</clus>
</clustering>
</event>
<event>
 6    0  0.1221518E+003  0.9509090E+02  0.7546771E-02  0.1290971E+00
         21   -1    0    0  503  501  0.00000000000E+00  0.00000000000E+00  0.98734565308E+03  0.98734565308E+03  0.00000000000E+00 0. -1.
         21   -1    0    0  506  502 -0.00000000000E+00 -0.00000000000E+00 -0.57125880620E+03  0.57125880620E+03  0.00000000000E+00 0. -1.
         21    1    1    2  503  505 -0.58611278622E+02  0.70626120808E+02  0.90251030298E+03  0.90716491219E+03  0.00000000000E+00 0. -1.
         21    1    1    2  504  501 -0.35530460557E+02 -0.49472059204E+02  0.59331566704E+02  0.85030189209E+02  0.00000000000E+00 0.  1.
         21    1    1    2  505  502  0.37909012082E+02 -0.12556935929E+01 -0.33236899410E+02  0.50431750375E+02  0.00000000000E+00 0. -1.
         21    1    1    2  506  504  0.56232727097E+02 -0.19898368010E+02 -0.51251812339E+03  0.51597760751E+03  0.00000000000E+00 0. -1.
<scales pt_clust_3="95.09090" pt_clust_4="60.40183" pt_clust_5="37.92980" pt_clust_6="14000.00000"></scales>
<clustering>
<clus scale="   37.930">  2  5  1 -1</clus>
<clus scale="   60.402">  1  4  2 -1</clus>
<clus scale="   95.091">  1  3  2 -1</clus>
<clus scale="   60.402">  1  3  2 -1</clus>
</clustering>
</event>
<event>
 6    0  0.1221518E+003  0.7972406E+02  0.7546771E-02  0.1329836E+00
         21   -1    0    0  504  501  0.00000000000E+00  0.00000000000E+00  0.50998310554E+03  0.50998310554E+03  0.00000000000E+00 0.  1.
         21   -1    0    0  503  502 -0.00000000000E+00 -0.00000000000E+00 -0.65451644308E+02  0.65451644308E+02  0.00000000000E+00 0.  1.
         21    1    1    2  503  505 -0.30311411087E+02 -0.42848559412E+02  0.29626568363E+02  0.60270342946E+02  0.00000000000E+00 0. -1.
         21    1    1    2  504  502 -0.22386578347E+02  0.22601091001E+02  0.32862240765E+01  0.31980735970E+02  0.00000000000E+00 0. -1.
         21    1    1    2  505  506  0.10539201349E+03  0.71534275768E+02  0.97050964463E+02  0.16013593857E+03  0.00000000000E+00 0.  1.
         21    1    1    2  506  501 -0.52694024056E+02 -0.51286807356E+02  0.31456770433E+03  0.32304773236E+03  0.00000000000E+00 0.  1.
<scales pt_clust_3="51.69081" pt_clust_4="31.81145" pt_clust_5="79.72406" pt_clust_6="14000.00000"></scales>
<clustering>
<clus scale="   31.811">  2  4  1 -1</clus>
<clus scale="   51.691">  2  3  1 -1</clus>
<clus scale="   79.724">  2  5  1 -1</clus>
<clus scale="   79.724">  1  3  2 -1</clus>
</clustering>
</event>
<event>
 6    0  0.1221518E+003  0.7220783E+02  0.7546771E-02  0.1352742E+00
         21   -1    0    0  506  501  0.00000000000E+00  0.00000000000E+00  0.51204173945E+02  0.51204173945E+02  0.00000000000E+00 0. -1.
         21   -1    0    0  503  502 -0.00000000000E+00 -0.00000000000E+00 -0.66642667559E+03  0.66642667559E+03  0.00000000000E+00 0. -1.
         21    1    1    2  503  505 -0.37947850562E+02 -0.57322295948E+02 -0.33181723019E+03  0.33886362924E+03  0.00000000000E+00 0. -1.
         21    1    1    2  504  501  0.68036081270E+01 -0.33789397096E+02  0.16269307378E+02  0.38114338538E+02  0.00000000000E+00 0. -1.
         21    1    1    2  505  504  0.52345393160E+02 -0.13088710507E+02 -0.78646282202E+02  0.95376056911E+02  0.00000000000E+00 0. -1.
         21    1    1    2  506  502 -0.21201150724E+02  0.10420040355E+03 -0.22102829663E+03  0.24527682484E+03  0.00000000000E+00 0. -1.
<scales pt_clust_3="14000.00000" pt_clust_4="34.46756" pt_clust_5="60.09808" pt_clust_6="72.20783"></scales>
<clustering>
<clus scale="   34.468">  1  4  2 -1</clus>
<clus scale="   60.098">  1  5  2 -1</clus>
<clus scale="   72.208">  1  6  2 -1</clus>
<clus scale="   34.468">  1  3  2 -1</clus>
</clustering>
</event>
<event>
 6    0  0.1221518E+003  0.8095038E+02  0.7546771E-02  0.1326376E+00
         21   -1    0    0  503  501  0.00000000000E+00  0.00000000000E+00  0.19827671890E+04  0.19827671890E+04  0.00000000000E+00 0.  1.
         21   -1    0    0  504  502 -0.00000000000E+00 -0.00000000000E+00 -0.57374087520E+02  0.57374087520E+02  0.00000000000E+00 0. -1.
         21    1    1    2  503  505  0.11853377436E+02  0.41439514702E+02  0.13752526010E+04  0.13759278515E+04  0.00000000000E+00 0.  1.
         21    1    1    2  504  506 -0.19455875298E+02 -0.90750082692E+02  0.14303334218E+03  0.17050702498E+03  0.00000000000E+00 0. -1.
         21    1    1    2  505  502  0.77676657730E+02  0.79610500542E+01 -0.47227210970E+00  0.78084982647E+02  0.00000000000E+00 0. -1.
         21    1    1    2  506  501 -0.70074159867E+02  0.41349517936E+02  0.40757943042E+03  0.41562141742E+03  0.00000000000E+00 0. -1.
<scales pt_clust_3="43.10146" pt_clust_4="80.95038" pt_clust_5="79.14855" pt_clust_6="14000.00000"></scales>
<clustering>
<clus scale="   43.101">  1  3  2 -1</clus>
<clus scale="   79.149">  2  5  1 -1</clus>
<clus scale="   80.950">  2  4  1 -1</clus>
<clus scale="   43.101">  1  3  2 -1</clus>
</clustering>
</event>
<event>
 6    0  0.1221518E+003  0.9518230E+02  0.7546771E-02  0.1290766E+00
         21   -1    0    0  503  501  0.00000000000E+00  0.00000000000E+00  0.15701950594E+04  0.15701950594E+04  0.00000000000E+00 0. -1.
         21   -1    0    0  504  502 -0.00000000000E+00 -0.00000000000E+00 -0.21246015353E+03  0.21246015353E+03  0.00000000000E+00 0.  1.
         21    1    1    2  503  505  0.30195296100E+01 -0.37618372364E+02  0.79604069983E+03  0.79693478735E+03  0.00000000000E+00 0.  1.
         21    1    1    2  504  501 -0.47560716238E+02  0.57200885943E+01 -0.19329820456E+03  0.19914551722E+03  0.00000000000E+00 0.  1.
         21    1    1    2  505  506  0.66049271055E+02 -0.48993044998E+02  0.63482670601E+03  0.64013105793E+03  0.00000000000E+00 0. -1.
         21    1    1    2  506  502 -0.21508084427E+02  0.80891328767E+02  0.12016570455E+03  0.14644385038E+03  0.00000000000E+00 0. -1.
<scales pt_clust_3="37.73936" pt_clust_4="47.87536" pt_clust_5="95.18230" pt_clust_6="14000.00000"></scales>
<clustering>
<clus scale="   37.739">  1  3  2 -1</clus>
<clus scale="   47.875">  2  4  1 -1</clus>
<clus scale="   95.182">  1  5  2 -1</clus>
<clus scale="   37.739">  1  3  2 -1</clus>
</clustering>
</event>
<event>
 6    0  0.1245602E+003  0.1182284E+03  0.7546771E-02  0.1246049E+00
         21   -1    0    0  503  501  0.00000000000E+00  0.00000000000E+00  0.10816663046E+04  0.10816663046E+04  0.00000000000E+00 0. -1.
         21   -1    0    0  504  502 -0.00000000000E+00 -0.00000000000E+00 -0.29365027186E+03  0.29365027186E+03  0.00000000000E+00 0. -1.
         21    1    1    2  503  505 -0.10318786900E+03 -0.64460170337E+01 -0.51309751817E+02  0.11542087366E+03  0.00000000000E+00 0.  1.
         21    1    1    2  504  501 -0.48602836925E+02 -0.73288008367E+00  0.10083152283E+04  0.10094861924E+04  0.00000000000E+00 0. -1.
         21    1    1    2  505  506  0.12141666863E+03  0.17400463836E+02 -0.17885908160E+03  0.21687635794E+03  0.00000000000E+00 0. -1.
         21    1    1    2  506  502  0.30374037298E+02 -0.10221566718E+02  0.98696378546E+01  0.33533152541E+02  0.00000000000E+00 0. -1.
<scales pt_clust_3="118.22844" pt_clust_4="48.54559" pt_clust_5="14000.00000" pt_clust_6="32.04782"></scales>
<clustering>
<clus scale="   32.048">  2  6  1 -1</clus>
<clus scale="   48.546">  1  4  2 -1</clus>
<clus scale="  118.228">  1  3  2 -1</clus>
<clus scale="   48.546">  1  3  2 -1</clus>
</clustering>
</event>
<event>
 6    0  0.1221518E+003  0.8521438E+02  0.7546771E-02  0.1314873E+00
         21   -1    0    0  506  501  0.00000000000E+00  0.00000000000E+00  0.28195970282E+04  0.28195970282E+04  0.00000000000E+00 0. -1.
         21   -1    0    0  503  502 -0.00000000000E+00 -0.00000000000E+00 -0.23726616413E+03  0.23726616413E+03  0.00000000000E+00 0. -1.
         21    1    1    2  503  505 -0.81906036957E+02 -0.25373309434E+02 -0.19607956405E+03  0.21400840908E+03  0.00000000000E+00 0. -1.
         21    1    1    2  504  502  0.68630129991E+02  0.52081218051E+02  0.29853661643E+02  0.91179982067E+02  0.00000000000E+00 0. -1.
         21    1    1    2  505  501 -0.14026555624E+02  0.29189768367E+02  0.22174527941E+03  0.22409764787E+03  0.00000000000E+00 0. -1.
         21    1    1    2  506  504  0.27302462590E+02 -0.55897676984E+02  0.25268114871E+04  0.25275771533E+04  0.00000000000E+00 0. -1.
<scales pt_clust_3="85.21438" pt_clust_4="14000.00000" pt_clust_5="32.38498" pt_clust_6="30.69200"></scales>
<clustering>
<clus scale="   32.385">  1  5  2 -1</clus>
<clus scale="   30.692">  1  6  2 -1</clus>
<clus scale="   85.214">  2  3  1 -1</clus>
<clus scale="   32.385">  1  3  2 -1</clus>
</clustering>
</event>
<event>
 6    0  0.1221518E+003  0.9844437E+02  0.7546771E-02  0.1283602E+00
         21   -1    0    0  505  501  0.00000000000E+00  0.00000000000E+00  0.13607811095E+03  0.13607811095E+03  0.00000000000E+00 0. -1.
         21   -1    0    0  504  502 -0.00000000000E+00 -0.00000000000E+00 -0.10063551288E+04  0.10063551288E+04  0.00000000000E+00 0.  1.
         21    1    1    2  503  501 -0.42172001896E+02 -0.98258132219E+01  0.38108596922E+02  0.57682662116E+02  0.00000000000E+00 0. -1.
         21    1    1    2  504  506  0.43342183273E+02  0.46840993075E+02 -0.87259291924E+03  0.87492344019E+03  0.00000000000E+00 0.  1.
         21    1    1    2  505  502  0.31323722072E+02  0.79381420472E+02 -0.22477864608E+02  0.88248738676E+02  0.00000000000E+00 0.  1.
         21    1    1    2  506  503 -0.32493903449E+02 -0.11639660033E+03 -0.13314830938E+02  0.12157839879E+03  0.00000000000E+00 0. -1.
<scales pt_clust_3="43.30155" pt_clust_4="63.34414" pt_clust_5="98.44437" pt_clust_6="14000.00000"></scales>
<clustering>
<clus scale="   43.302">  1  3  2 -1</clus>
<clus scale="   63.344">  2  4  1 -1</clus>
<clus scale="   98.444">  1  5  2 -1</clus>
<clus scale="   43.302">  1  3  2 -1</clus>
</clustering>
</event>
<event>
 6    0  0.1221518E+003  0.1100127E+03  0.7546771E-02  0.1260546E+00
         21   -1    0    0  506  501  0.00000000000E+00  0.00000000000E+00  0.11644646893E+04  0.11644646893E+04  0.00000000000E+00 0. -1.
         21   -1    0    0  505  502 -0.00000000000E+00 -0.00000000000E+00 -0.11766606882E+03  0.11766606882E+03  0.00000000000E+00 0.  1.
         21    1    1    2  503  502  0.19468518303E+02  0.25785540632E+02 -0.20242245626E+02  0.38126969701E+02  0.00000000000E+00 0.  1.
         21    1    1    2  504  503 -0.81307538465E+02 -0.14365986821E+03  0.17187681805E+02  0.16596532756E+03  0.00000000000E+00 0.  1.
         21    1    1    2  505  501  0.27778083211E+02  0.15333893498E+02  0.11000941228E+02  0.33582300466E+02  0.00000000000E+00 0.  1.
         21    1    1    2  506  504  0.34060936950E+02  0.10254043408E+03  0.10388522430E+04  0.10444561604E+04  0.00000000000E+00 0. -1.
<scales pt_clust_3="40.41526" pt_clust_4="14000.00000" pt_clust_5="31.72933" pt_clust_6="110.01268"></scales>
<clustering>
<clus scale="   31.729">  2  5  1 -1</clus>
<clus scale="   40.415">  2  3  1 -1</clus>
<clus scale="  110.013">  1  6  2 -1</clus>
<clus scale="  110.013">  1  3  2 -1</clus>
</clustering>
</event>
<event>
 6    0  0.1221518E+003  0.4917493E+03  0.7546771E-02  0.1015955E+00
         21   -1    0    0  503  501  0.00000000000E+00  0.00000000000E+00  0.15086035471E+04  0.15086035471E+04  0.00000000000E+00 0. -1.
         21   -1    0    0  505  502 -0.00000000000E+00 -0.00000000000E+00 -0.45094490380E+03  0.45094490380E+03  0.00000000000E+00 0. -1.
         21    1    1    2  503  504  0.45926020132E+03  0.31025871235E+03  0.72765886065E+02  0.55899487948E+03  0.00000000000E+00 0. -1.
         21    1    1    2  504  502 -0.61693429782E+02 -0.58709161785E+02 -0.12896610526E+03  0.15454805486E+03  0.00000000000E+00 0.  1.
         21    1    1    2  505  506 -0.39074809414E+03 -0.29309821952E+03  0.86306172284E+03  0.99169863204E+03  0.00000000000E+00 0. -1.
         21    1    1    2  506  501 -0.68186774010E+01  0.41548668959E+02  0.25079713965E+03  0.25430688451E+03  0.00000000000E+00 0. -1.
<scales pt_clust_3="491.74932" pt_clust_4="84.92300" pt_clust_5="14000.00000" pt_clust_6="42.10447"></scales>
<clustering>
<clus scale="   42.104">  1  6  2 -1</clus>
<clus scale="   84.923">  2  4  1 -1</clus>
<clus scale="  491.749">  2  3  1 -1</clus>
<clus scale="   42.104">  1  3  2 -1</clus>
</clustering>
</event>
<event>
 6    0  0.1221518E+003  0.1261672E+03  0.7546771E-02  0.1233256E+00
         21   -1    0    0  505  501  0.00000000000E+00  0.00000000000E+00  0.18229995095E+04  0.18229995095E+04  0.00000000000E+00 0.  1.
         21   -1    0    0  506  502 -0.00000000000E+00 -0.00000000000E+00 -0.41345884041E+03  0.41345884041E+03  0.00000000000E+00 0.  1.
         21    1    1    2  503  501 -0.30197674910E+02 -0.30982000420E+02  0.14422396403E+03  0.15057335661E+03  0.00000000000E+00 0.  1.
         21    1    1    2  504  502  0.56069007527E+02 -0.11461523389E+03  0.88015199160E+02  0.15500664737E+03  0.00000000000E+00 0.  1.
         21    1    1    2  505  504 -0.88459002019E+02  0.86435380760E+02  0.15466675639E+04  0.15516045319E+04  0.00000000000E+00 0.  1.
         21    1    1    2  506  503  0.62587669402E+02  0.59161853554E+02 -0.36936605797E+03  0.37927381409E+03  0.00000000000E+00 0.  1.
<scales pt_clust_3="43.26412" pt_clust_4="14000.00000" pt_clust_5="126.16722" pt_clust_6="85.99619"></scales>
<clustering>
<clus scale="   43.264">  1  3  2 -1</clus>
<clus scale="   85.996">  2  6  1 -1</clus>
<clus scale="  126.167">  1  5  2 -1</clus>
<clus scale="   43.264">  1  3  2 -1</clus>
</clustering>
</event>
<event>
 6    0  0.1221518E+003  0.1587096E+03  0.7546771E-02  0.1190161E+00
         21   -1    0    0  506  501  0.00000000000E+00  0.00000000000E+00  0.88278418031E+02  0.88278418031E+02  0.00000000000E+00 0.  1.
         21   -1    0    0  503  502 -0.00000000000E+00 -0.00000000000E+00 -0.12501679604E+04  0.12501679604E+04  0.00000000000E+00 0.  1.
         21    1    1    2  503  504 -0.36224745308E+02  0.62768757403E+02 -0.70118283252E+03  0.70491809007E+03  0.00000000000E+00 0.  1.
         21    1    1    2  504  505  0.15661260685E+03 -0.96986188830E+02 -0.30085621801E+03  0.35277229677E+03  0.00000000000E+00 0.  1.
         21    1    1    2  505  501  0.45736329231E+02  0.87436926214E+01  0.30952618259E+01  0.46667382806E+02  0.00000000000E+00 0.  1.
         21    1    1    2  506  502 -0.16612419077E+03  0.25473738805E+02 -0.16294575363E+03  0.23408860877E+03  0.00000000000E+00 0.  1.
<scales pt_clust_3="72.03299" pt_clust_4="158.70962" pt_clust_5="46.56462" pt_clust_6="14000.00000"></scales>
<clustering>
<clus scale="   46.565">  1  5  2 -1</clus>
<clus scale="   72.033">  2  3  1 -1</clus>
<clus scale="  158.710">  2  4  1 -1</clus>
<clus scale="   46.565">  1  3  2 -1</clus>
</clustering>
</event>
<event>
 6    0  0.1221518E+003  0.1114702E+03  0.7546771E-02  0.1257871E+00
         21   -1    0    0  506  501  0.00000000000E+00  0.00000000000E+00  0.24995321010E+03  0.24995321010E+03  0.00000000000E+00 0.  1.
         21   -1    0    0  503  502 -0.00000000000E+00 -0.00000000000E+00 -0.15160606867E+04  0.15160606867E+04  0.00000000000E+00 0.  1.
         21    1    1    2  503  501 -0.18584785475E+02  0.30689654954E+02 -0.23604591835E+02  0.42946780183E+02  0.00000000000E+00 0.  1.
         21    1    1    2  504  502 -0.32347153127E+02  0.60854487915E+02 -0.13228342801E+04  0.13246283025E+04  0.00000000000E+00 0.  1.
         21    1    1    2  505  504 -0.83059571012E+02 -0.20850954308E+02 -0.11990710321E+03  0.14734777919E+03  0.00000000000E+00 0. -1.
         21    1    1    2  506  505  0.13399150961E+03 -0.70693188562E+02  0.20023849854E+03  0.25109103499E+03  0.00000000000E+00 0.  1.
<scales pt_clust_3="35.87825" pt_clust_4="69.05112" pt_clust_5="14000.00000" pt_clust_6="111.47025"></scales>
<clustering>
<clus scale="   35.878">  1  3  2 -1</clus>
<clus scale="   69.051">  2  4  1 -1</clus>
<clus scale="  111.470">  1  6  2 -1</clus>
<clus scale="   35.878">  1  3  2 -1</clus>
</clustering>
</event>
<event>
 6    0  0.1221518E+003  0.1370809E+03  0.7546771E-02  0.1217312E+00
         21   -1    0    0  506  501  0.00000000000E+00  0.00000000000E+00  0.26621577656E+04  0.26621577656E+04  0.00000000000E+00 0.  1.
         21   -1    0    0  503  502 -0.00000000000E+00 -0.00000000000E+00 -0.77013309743E+02  0.77013309743E+02  0.00000000000E+00 0.  1.
         21    1    1    2  503  501  0.11422656785E+03  0.15812518479E+03  0.12962577155E+03  0.23420957179E+03  0.00000000000E+00 0.  1.
         21    1    1    2  504  502 -0.69569531601E+02 -0.14227802273E+02  0.37521334739E+02  0.80313141174E+02  0.00000000000E+00 0.  1.
         21    1    1    2  505  504  0.21535974147E+01 -0.80278549170E+02  0.65846922259E+03  0.66334832519E+03  0.00000000000E+00 0.  1.
         21    1    1    2  506  505 -0.46810633661E+02 -0.63618833344E+02  0.17595281269E+04  0.17613000372E+04  0.00000000000E+00 0.  1.
<scales pt_clust_3="14000.00000" pt_clust_4="71.00951" pt_clust_5="137.08088" pt_clust_6="79.82769"></scales>
<clustering>
<clus scale="   71.010">  2  4  1 -1</clus>
<clus scale="   79.828">  1  6  2 -1</clus>
<clus scale="  137.081">  1  5  2 -1</clus>
<clus scale="   79.828">  1  3  2 -1</clus>
</clustering>
</event>
<event>
 6    0  0.2161946E+003  0.1175379E+03  0.7546771E-02  0.1247215E+00
         21   -1    0    0  505  501  0.00000000000E+00  0.00000000000E+00  0.12966417859E+04  0.12966417859E+04  0.00000000000E+00 0.  1.
         21   -1    0    0  506  502 -0.00000000000E+00 -0.00000000000E+00 -0.19577383373E+03  0.19577383373E+03  0.00000000000E+00 0.  1.
         21    1    1    2  503  501  0.80291887689E+01  0.45652962568E+02  0.10201596589E+04  0.10212122162E+04  0.00000000000E+00 0.  1.
         21    1    1    2  504  503  0.66595230693E+01  0.78127330634E+02  0.20572228166E+03  0.22015877500E+03  0.00000000000E+00 0.  1.
         21    1    1    2  505  502 -0.26759713671E+02 -0.15438503618E+03 -0.14421464812E+03  0.21295231016E+03  0.00000000000E+00 0.  1.
         21    1    1    2  506  504  0.12071001833E+02  0.30604742976E+02  0.19200659758E+02  0.38092318294E+02  0.00000000000E+00 0.  1.
<scales pt_clust_3="46.44469" pt_clust_4="117.53790" pt_clust_5="14000.00000" pt_clust_6="32.89923"></scales>
<clustering>
<clus scale="   32.899">  2  6  1 -1</clus>
<clus scale="   46.445">  1  3  2 -1</clus>
<clus scale="  117.538">  1  4  2 -1</clus>
<clus scale="   46.445">  1  3  2 -1</clus>
</clustering>
</event>
<event>
 6    0  0.1221518E+003  0.7630242E+02  0.7546771E-02  0.1339885E+00
         21   -1    0    0  504  501  0.00000000000E+00  0.00000000000E+00  0.38855861058E+02  0.38855861058E+02  0.00000000000E+00 0. -1.
         21   -1    0    0  506  502 -0.00000000000E+00 -0.00000000000E+00 -0.12008032466E+04  0.12008032466E+04  0.00000000000E+00 0.  1.
         21    1    1    2  503  502  0.56079224580E+02 -0.30655183843E+02 -0.76896170025E+03  0.77161306117E+03  0.00000000000E+00 0.  1.
         21    1    1    2  504  503  0.42947282019E+02  0.92564906039E+02 -0.11776270588E+03  0.15582293079E+03  0.00000000000E+00 0. -1.
         21    1    1    2  505  501 -0.11104080101E+02 -0.55564689830E+02 -0.13734190818E+03  0.14857164970E+03  0.00000000000E+00 0. -1.
         21    1    1    2  506  505 -0.87922426499E+02 -0.63450323666E+01 -0.13788107118E+03  0.16365146595E+03  0.00000000000E+00 0. -1.
<scales pt_clust_3="64.62136" pt_clust_4="76.30242" pt_clust_5="56.66335" pt_clust_6="14000.00000"></scales>
<clustering>
<clus scale="   56.663">  1  5  2 -1</clus>
<clus scale="   64.621">  2  3  1 -1</clus>
<clus scale="   76.302">  1  4  2 -1</clus>
<clus scale="   56.663">  1  3  2 -1</clus>
</clustering>
</event>
<event>
 6    0  0.1221518E+003  0.8569003E+02  0.7546771E-02  0.1313638E+00
         21   -1    0    0  506  501  0.00000000000E+00  0.00000000000E+00  0.67770163282E+02  0.67770163282E+02  0.00000000000E+00 0.  1.
         21   -1    0    0  504  502 -0.00000000000E+00 -0.00000000000E+00 -0.70961498951E+03  0.70961498951E+03  0.00000000000E+00 0. -1.
         21    1    1    2  503  502  0.53895509191E+02 -0.74593036386E+02 -0.10274252576E+03  0.13793068400E+03  0.00000000000E+00 0.  1.
         21    1    1    2  504  505 -0.31370007542E+02 -0.26410863211E+02 -0.46472234086E+03  0.46652809687E+03  0.00000000000E+00 0. -1.
         21    1    1    2  505  501 -0.49073770789E+02  0.10158871840E+02 -0.58378961043E+02  0.76938551773E+02  0.00000000000E+00 0.  1.
         21    1    1    2  506  503  0.26548269139E+02  0.90845027757E+02 -0.16000998556E+02  0.95987820151E+02  0.00000000000E+00 0.  1.
<scales pt_clust_3="85.69003" pt_clust_4="41.00745" pt_clust_5="57.84225" pt_clust_6="14000.00000"></scales>
<clustering>
<clus scale="   41.007">  2  4  1 -1</clus>
<clus scale="   57.842">  2  5  1 -1</clus>
<clus scale="   85.690">  2  3  1 -1</clus>
<clus scale="   85.690">  1  3  2 -1</clus>
</clustering>
</event>
<event>
 6    0  0.1221518E+003  0.1180819E+03  0.7546771E-02  0.1246295E+00
         21   -1    0    0  506  501  0.00000000000E+00  0.00000000000E+00  0.16881602679E+03  0.16881602679E+03  0.00000000000E+00 0.  1.
         21   -1    0    0  504  502 -0.00000000000E+00 -0.00000000000E+00 -0.23202890633E+03  0.23202890633E+03  0.00000000000E+00 0. -1.
         21    1    1    2  503  505 -0.31674478722E+01  0.98180806208E+02 -0.77271485871E+02  0.12498154249E+03  0.00000000000E+00 0. -1.
         21    1    1    2  504  503 -0.45298543256E+02  0.26516256274E+02 -0.64616543715E+02  0.83248829358E+02  0.00000000000E+00 0. -1.
         21    1    1    2  505  501  0.84704372817E+02 -0.10376038702E+03  0.61120433969E+02  0.14723028268E+03  0.00000000000E+00 0.  1.
         21    1    1    2  506  502 -0.36238381689E+02 -0.20936675463E+02  0.17554716080E+02  0.45384278595E+02  0.00000000000E+00 0.  1.
<scales pt_clust_3="118.08193" pt_clust_4="53.94911" pt_clust_5="14000.00000" pt_clust_6="41.85170"></scales>
<clustering>
<clus scale="   41.852">  1  6  2 -1</clus>
<clus scale="   53.949">  2  4  1 -1</clus>
<clus scale="  118.082">  2  3  1 -1</clus>
<clus scale="   41.852">  1  3  2 -1</clus>
</clustering>
</event>
<event>
 6    0  0.1221518E+003  0.1576775E+03  0.7546771E-02  0.1191344E+00
         21   -1    0    0  503  501  0.00000000000E+00  0.00000000000E+00  0.69524670581E+02  0.69524670581E+02  0.00000000000E+00 0.  1.
         21   -1    0    0  504  502 -0.00000000000E+00 -0.00000000000E+00 -0.16243742140E+04  0.16243742140E+04  0.00000000000E+00 0. -1.
         21    1    1    2  503  506  0.13514950610E+02 -0.33942682502E+02  0.19428233040E+02  0.41378929716E+02  0.00000000000E+00 0.  1.
         21    1    1    2  504  505 -0.11361577898E+03  0.94217493808E+02 -0.91123189576E+03  0.92310836267E+03  0.00000000000E+00 0. -1.
         21    1    1    2  505  501  0.13850835760E+03 -0.35646260677E+02 -0.12652726490E+03  0.19095646045E+03  0.00000000000E+00 0.  1.
         21    1    1    2  506  502 -0.38407529227E+02 -0.24628550629E+02 -0.53651861583E+03  0.53845513178E+03  0.00000000000E+00 0. -1.
<scales pt_clust_3="36.53436" pt_clust_4="157.67746" pt_clust_5="14000.00000" pt_clust_6="45.80619"></scales>
<clustering>
<clus scale="   36.534">  1  3  2 -1</clus>
<clus scale="   45.806">  2  6  1 -1</clus>
<clus scale="  157.677">  2  4  1 -1</clus>
<clus scale="   36.534">  1  3  2 -1</clus>
</clustering>
</event>
<event>
 6    0  0.1221518E+003  0.1011599E+03  0.7546771E-02  0.1277876E+00
         21   -1    0    0  506  501  0.00000000000E+00  0.00000000000E+00  0.63671066792E+03  0.63671066792E+03  0.00000000000E+00 0. -1.
         21   -1    0    0  505  502 -0.00000000000E+00 -0.00000000000E+00 -0.61155592075E+03  0.61155592075E+03  0.00000000000E+00 0.  1.
         21    1    1    2  503  502 -0.76768471645E+02 -0.20825843704E+02  0.16539825316E+02  0.81244567979E+02  0.00000000000E+00 0.  1.
         21    1    1    2  504  503  0.14405321261E+03  0.33868689804E+02  0.10794967678E+03  0.18317081899E+03  0.00000000000E+00 0. -1.
         21    1    1    2  505  501 -0.16525509460E+02  0.30494652118E+02 -0.53850392150E+03  0.53961976404E+03  0.00000000000E+00 0.  1.
         21    1    1    2  506  504 -0.50759231509E+02 -0.43537498217E+02  0.43916916657E+03  0.44423143765E+03  0.00000000000E+00 0. -1.
<scales pt_clust_3="101.15992" pt_clust_4="14000.00000" pt_clust_5="34.68452" pt_clust_6="66.62840"></scales>
<clustering>
<clus scale="   34.685">  2  5  1 -1</clus>
<clus scale="   66.628">  1  6  2 -1</clus>
<clus scale="  101.160">  2  3  1 -1</clus>
<clus scale="   66.628">  1  3  2 -1</clus>
</clustering>
</event>
<event>
 6    0  0.1221518E+003  0.1076806E+03  0.7546771E-02  0.1264926E+00
         21   -1    0    0  505  501  0.00000000000E+00  0.00000000000E+00  0.20804109070E+04  0.20804109070E+04  0.00000000000E+00 0.  1.
         21   -1    0    0  504  502 -0.00000000000E+00 -0.00000000000E+00 -0.42184449703E+02  0.42184449703E+02  0.00000000000E+00 0.  1.
         21    1    1    2  503  501  0.33745088628E+02 -0.70687122483E+00  0.58843745460E+03  0.58940467309E+03  0.00000000000E+00 0.  1.
         21    1    1    2  504  506 -0.28757176926E+02  0.34007260978E+02 -0.18833477783E+02  0.48354616216E+02  0.00000000000E+00 0.  1.
         21    1    1    2  505  502 -0.78270543181E+02  0.49930659598E+02  0.40788204275E+03  0.41831460588E+03  0.00000000000E+00 0.  1.
         21    1    1    2  506  503  0.73282631479E+02 -0.83231049351E+02  0.10607404377E+04  0.10665214615E+04  0.00000000000E+00 0.  1.
<scales pt_clust_3="33.75249" pt_clust_4="44.31588" pt_clust_5="14000.00000" pt_clust_6="107.68060"></scales>
<clustering>
<clus scale="   33.752">  1  3  2 -1</clus>
<clus scale="   44.316">  2  4  1 -1</clus>
<clus scale="  107.681">  1  6  2 -1</clus>
<clus scale="   33.752">  1  3  2 -1</clus>
</clustering>
</event>
<event>
 6    0  0.1221518E+003  0.2185975E+03  0.7546771E-02  0.1134933E+00
         21   -1    0    0  506  501  0.00000000000E+00  0.00000000000E+00  0.45757939468E+03  0.45757939468E+03  0.00000000000E+00 0.  1.
         21   -1    0    0  503  502 -0.00000000000E+00 -0.00000000000E+00 -0.38709554589E+04  0.38709554589E+04  0.00000000000E+00 0. -1.
         21    1    1    2  503  501 -0.17009849234E+03 -0.61549390136E+01 -0.61798867893E+03  0.64100030238E+03  0.00000000000E+00 0. -1.
         21    1    1    2  504  502 -0.59932383490E+02  0.14466105474E+01 -0.31148748702E+04  0.31154517233E+04  0.00000000000E+00 0. -1.
         21    1    1    2  505  504  0.22039716254E+03  0.42004350403E+02 -0.24724361344E+02  0.22572232666E+03  0.00000000000E+00 0.  1.
         21    1    1    2  506  505  0.96337132916E+01 -0.37296021937E+02  0.34421184627E+03  0.34636050120E+03  0.00000000000E+00 0.  1.
<scales pt_clust_3="218.59749" pt_clust_4="59.92287" pt_clust_5="14000.00000" pt_clust_6="38.52015"></scales>
<clustering>
<clus scale="   38.520">  1  6  2 -1</clus>
<clus scale="   59.923">  2  4  1 -1</clus>
<clus scale="  218.597">  2  3  1 -1</clus>
<clus scale="   38.520">  1  3  2 -1</clus>
</clustering>
</event>
<event>
 6    0  0.1221518E+003  0.9505862E+02  0.7546771E-02  0.1291044E+00
         21   -1    0    0  504  501  0.00000000000E+00  0.00000000000E+00  0.46370970613E+03  0.46370970613E+03  0.00000000000E+00 0.  1.
         21   -1    0    0  506  502 -0.00000000000E+00 -0.00000000000E+00 -0.76032722979E+03  0.76032722979E+03  0.00000000000E+00 0.  1.
         21    1    1    2  503  502  0.22640874223E+02  0.24294981814E+02 -0.58505440630E+03  0.58599617205E+03  0.00000000000E+00 0.  1.
         21    1    1    2  504  503 -0.27923674459E+02 -0.89768467894E+02  0.41316822345E+03  0.42372879333E+03  0.00000000000E+00 0.  1.
         21    1    1    2  505  501  0.14755001317E+02  0.11900159571E+03 -0.85320619442E+02  0.14716894356E+03  0.00000000000E+00 0.  1.
         21    1    1    2  506  505 -0.94722010803E+01 -0.53528109632E+02 -0.39410721371E+02  0.67143026988E+02  0.00000000000E+00 0.  1.
<scales pt_clust_3="33.20927" pt_clust_4="14000.00000" pt_clust_5="95.05862" pt_clust_6="46.19502"></scales>
<clustering>
<clus scale="   33.209">  2  3  1 -1</clus>
<clus scale="   46.195">  2  6  1 -1</clus>
<clus scale="   95.059">  2  5  1 -1</clus>
<clus scale="   95.059">  1  3  2 -1</clus>
</clustering>
</event>
<event>
 6    0  0.1221518E+003  0.9368262E+02  0.7546771E-02  0.1294171E+00
         21   -1    0    0  505  501  0.00000000000E+00  0.00000000000E+00  0.26918563493E+04  0.26918563493E+04  0.00000000000E+00 0.  1.
         21   -1    0    0  506  502 -0.00000000000E+00 -0.00000000000E+00 -0.12943907113E+02  0.12943907113E+02  0.00000000000E+00 0.  1.
         21    1    1    2  503  502  0.28052600619E+02 -0.80387681469E+02  0.20881817989E+03  0.22550866942E+03  0.00000000000E+00 0.  1.
         21    1    1    2  504  501  0.41944707466E+02  0.86275240671E+01  0.91932865024E+03  0.92032546407E+03  0.00000000000E+00 0.  1.
         21    1    1    2  505  503 -0.10053782773E+03  0.62788793389E+02  0.13922115328E+04  0.13972484530E+04  0.00000000000E+00 0.  1.
         21    1    1    2  506  504  0.30540519640E+02  0.89713640131E+01  0.15855407921E+03  0.16171766987E+03  0.00000000000E+00 0.  1.
<scales pt_clust_3="14000.00000" pt_clust_4="44.21445" pt_clust_5="93.68262" pt_clust_6="31.83094"></scales>
<clustering>
<clus scale="   31.831">  2  6  1 -1</clus>
<clus scale="   44.214">  1  4  2 -1</clus>
<clus scale="   93.683">  1  5  2 -1</clus>
<clus scale="   44.214">  1  3  2 -1</clus>
</clustering>
</event>
<event>
 6    0  0.1221518E+003  0.7368506E+02  0.7546771E-02  0.1347992E+00
         21   -1    0    0  504  501  0.00000000000E+00  0.00000000000E+00  0.12776467202E+03  0.12776467202E+03  0.00000000000E+00 0. -1.
         21   -1    0    0  503  502 -0.00000000000E+00 -0.00000000000E+00 -0.52161045425E+03  0.52161045425E+03  0.00000000000E+00 0. -1.
         21    1    1    2  503  501  0.45806128390E+02 -0.36527252306E+02  0.31308500086E+02  0.66427883730E+02  0.00000000000E+00 0. -1.
         21    1    1    2  504  505 -0.60036266495E+02 -0.44946044417E+01  0.51643758244E+02  0.79319811707E+02  0.00000000000E+00 0. -1.
         21    1    1    2  505  506  0.32732859997E+02  0.97252834778E+02 -0.28557570316E+03  0.30345186806E+03  0.00000000000E+00 0. -1.
         21    1    1    2  506  502 -0.18502721893E+02 -0.56230978029E+02 -0.19122233741E+03  0.20017556277E+03  0.00000000000E+00 0. -1.
<scales pt_clust_3="58.58704" pt_clust_4="41.19019" pt_clust_5="14000.00000" pt_clust_6="73.68506"></scales>
<clustering>
<clus scale="   58.587">  1  3  2 -1</clus>
<clus scale="   41.190">  1  4  2 -1</clus>
<clus scale="   73.685">  2  6  1 -1</clus>
<clus scale="   58.587">  1  3  2 -1</clus>
</clustering>
</event>
<event>
 6    0  0.1221518E+003  0.8404402E+02  0.7546771E-02  0.1317952E+00
         21   -1    0    0  505  501  0.00000000000E+00  0.00000000000E+00  0.31069130422E+03  0.31069130422E+03  0.00000000000E+00 0. -1.
         21   -1    0    0  504  502 -0.00000000000E+00 -0.00000000000E+00 -0.14455129656E+03  0.14455129656E+03  0.00000000000E+00 0. -1.
         21    1    1    2  503  506 -0.31219244196E+02 -0.56530960150E+02  0.18208550041E+03  0.19319813696E+03  0.00000000000E+00 0. -1.
         21    1    1    2  504  503  0.60156916946E+02 -0.58490917832E+02 -0.67326826191E+02  0.10757761686E+03  0.00000000000E+00 0. -1.
         21    1    1    2  505  502 -0.39109509133E+02  0.78430901848E+02 -0.35175792640E+01  0.87711649359E+02  0.00000000000E+00 0. -1.
         21    1    1    2  506  501  0.10171836384E+02  0.36590976134E+02  0.54898912703E+02  0.66755197594E+02  0.00000000000E+00 0. -1.
<scales pt_clust_3="37.41736" pt_clust_4="14000.00000" pt_clust_5="84.04402" pt_clust_6="37.97849"></scales>
<clustering>
<clus scale="   37.978">  1  6  2 -1</clus>
<clus scale="   37.417">  1  3  2 -1</clus>
<clus scale="   84.044">  1  5  2 -1</clus>
<clus scale="   37.978">  1  3  2 -1</clus>
</clustering>
</event>
<event>
 6    0  0.1221518E+003  0.9338610E+02  0.7546771E-02  0.1294853E+00
         21   -1    0    0  505  501  0.00000000000E+00  0.00000000000E+00  0.31969212707E+03  0.31969212707E+03  0.00000000000E+00 0.  1.
         21   -1    0    0  503  502 -0.00000000000E+00 -0.00000000000E+00 -0.15018294402E+03  0.15018294402E+03  0.00000000000E+00 0. -1.
         21    1    1    2  503  504  0.33747360547E+02  0.58144081538E+01 -0.86033055093E+02  0.92597938717E+02  0.00000000000E+00 0. -1.
         21    1    1    2  504  501  0.72361505941E+02  0.69438164226E+02  0.12228595540E+03  0.15815088075E+03  0.00000000000E+00 0.  1.
         21    1    1    2  505  506 -0.51357733175E+02  0.11976105828E+02  0.96140702344E+02  0.10965435931E+03  0.00000000000E+00 0. -1.
         21    1    1    2  506  502 -0.54751133312E+02 -0.87228678208E+02  0.37115580402E+02  0.10947189233E+03  0.00000000000E+00 0. -1.
<scales pt_clust_3="34.24459" pt_clust_4="14000.00000" pt_clust_5="49.25603" pt_clust_6="93.38610"></scales>
<clustering>
<clus scale="   34.245">  2  3  1 -1</clus>
<clus scale="   49.256">  1  5  2 -1</clus>
<clus scale="   93.386">  2  6  1 -1</clus>
<clus scale="   49.256">  1  3  2 -1</clus>
</clustering>
</event>
<event>
 6    0  0.1221518E+003  0.1055426E+03  0.7546771E-02  0.1269054E+00
         21   -1    0    0  506  501  0.00000000000E+00  0.00000000000E+00  0.10590534833E+04  0.10590534833E+04  0.00000000000E+00 0. -1.
         21   -1    0    0  503  502 -0.00000000000E+00 -0.00000000000E+00 -0.24827142424E+03  0.24827142424E+03  0.00000000000E+00 0. -1.
         21    1    1    2  503  504  0.11816268342E+02  0.15556912959E+03  0.23296647705E+03  0.28038323365E+03  0.00000000000E+00 0. -1.
         21    1    1    2  504  501 -0.19445109673E+02 -0.47172078760E+02  0.66148753376E+03  0.66345239063E+03  0.00000000000E+00 0. -1.
         21    1    1    2  505  502  0.45090479107E+02 -0.93789652806E+02 -0.20813030572E+03  0.23269695837E+03  0.00000000000E+00 0. -1.
         21    1    1    2  506  505 -0.37461637777E+02 -0.14607398027E+02  0.12445835392E+03  0.13079232486E+03  0.00000000000E+00 0. -1.
<scales pt_clust_3="105.54260" pt_clust_4="73.73975" pt_clust_5="14000.00000" pt_clust_6="40.20883"></scales>
<clustering>
<clus scale="   40.209">  1  6  2 -1</clus>
<clus scale="   73.740">  1  4  2 -1</clus>
<clus scale="  105.543">  1  3  2 -1</clus>
<clus scale="   40.209">  1  3  2 -1</clus>
</clustering>
</event>
<event>
 6    0  0.1221518E+003  0.9375808E+02  0.7546771E-02  0.1293998E+00
         21   -1    0    0  503  501  0.00000000000E+00  0.00000000000E+00  0.15790034275E+04  0.15790034275E+04  0.00000000000E+00 0. -1.
         21   -1    0    0  506  502 -0.00000000000E+00 -0.00000000000E+00 -0.38817763717E+03  0.38817763717E+03  0.00000000000E+00 0.  1.
         21    1    1    2  503  505  0.31573541532E+02  0.65929173268E+02  0.14450279360E+04  0.14468756962E+04  0.00000000000E+00 0. -1.
         21    1    1    2  504  501 -0.35805189278E+02  0.11201410026E+02  0.29012571943E+02  0.47425863161E+02  0.00000000000E+00 0.  1.
         21    1    1    2  505  502 -0.64063148595E+02 -0.13637811188E+03  0.24055577704E+02  0.15258357456E+03  0.00000000000E+00 0. -1.
         21    1    1    2  506  504  0.68294796340E+02  0.59247528585E+02 -0.30727029534E+03  0.32029593074E+03  0.00000000000E+00 0.  1.
<scales pt_clust_3="76.46805" pt_clust_4="37.51644" pt_clust_5="93.75808" pt_clust_6="14000.00000"></scales>
<clustering>
<clus scale="   37.516">  1  4  2 -1</clus>
<clus scale="   76.468">  1  3  2 -1</clus>
<clus scale="   93.758">  1  5  2 -1</clus>
<clus scale="   37.516">  1  3  2 -1</clus>
</clustering>
</event>
<event>
 6    0  0.1221518E+003  0.1560583E+03  0.7546771E-02  0.1193220E+00
         21   -1    0    0  503  501  0.00000000000E+00  0.00000000000E+00  0.18608783405E+03  0.18608783405E+03  0.00000000000E+00 0.  1.
         21   -1    0    0  506  502 -0.00000000000E+00 -0.00000000000E+00 -0.53284452073E+03  0.53284452073E+03  0.00000000000E+00 0.  1.
         21    1    1    2  503  502  0.18886452840E+03  0.52627295431E+02 -0.36358427499E+03  0.41307743503E+03  0.00000000000E+00 0.  1.
         21    1    1    2  504  501 -0.46775227431E+02  0.32656019501E+02  0.88760073373E+02  0.10551155451E+03  0.00000000000E+00 0.  1.
         21    1    1    2  505  504 -0.11753831717E+03 -0.39973897549E+02 -0.17484645385E+02  0.12537496286E+03  0.00000000000E+00 0.  1.
         21    1    1    2  506  505 -0.24550983797E+02 -0.45309417383E+02 -0.54447839678E+02  0.74968402375E+02  0.00000000000E+00 0.  1.
<scales pt_clust_3="156.05828" pt_clust_4="56.95028" pt_clust_5="14000.00000" pt_clust_6="51.53343"></scales>
<clustering>
<clus scale="   51.533">  2  6  1 -1</clus>
<clus scale="   56.950">  1  4  2 -1</clus>
<clus scale="  156.058">  2  3  1 -1</clus>
<clus scale="   56.950">  1  3  2 -1</clus>
</clustering>
</event>
<event>
 6    0  0.1221518E+003  0.8285894E+02  0.7546771E-02  0.1321129E+00
         21   -1    0    0  505  501  0.00000000000E+00  0.00000000000E+00  0.90954924163E+02  0.90954924163E+02  0.00000000000E+00 0. -1.
         21   -1    0    0  503  502 -0.00000000000E+00 -0.00000000000E+00 -0.47459374728E+03  0.47459374728E+03  0.00000000000E+00 0. -1.
         21    1    1    2  503  504  0.53642739416E+02  0.32213514602E+02 -0.17666527023E+03  0.18741897375E+03  0.00000000000E+00 0. -1.
         21    1    1    2  504  501  0.56672612911E+02 -0.97368904895E+02 -0.12647246888E+03  0.16937465595E+03  0.00000000000E+00 0. -1.
         21    1    1    2  505  506 -0.67736901615E+02  0.41494421131E+02  0.32403479100E+02  0.85790793697E+02  0.00000000000E+00 0. -1.
         21    1    1    2  506  502 -0.42578450713E+02  0.23660969162E+02 -0.11290456311E+03  0.12296424805E+03  0.00000000000E+00 0. -1.
<scales pt_clust_3="54.58844" pt_clust_4="14000.00000" pt_clust_5="82.85894" pt_clust_6="48.71105"></scales>
<clustering>
<clus scale="   48.711">  2  6  1 -1</clus>
<clus scale="   54.588">  2  3  1 -1</clus>
<clus scale="   82.859">  1  5  2 -1</clus>
<clus scale="   82.859">  1  3  2 -1</clus>
</clustering>
</event>
<event>
 6    0  0.1221518E+003  0.1144065E+03  0.7546771E-02  0.1252621E+00
         21   -1    0    0  505  501  0.00000000000E+00  0.00000000000E+00  0.38574232422E+02  0.38574232422E+02  0.00000000000E+00 0. -1.
         21   -1    0    0  503  502 -0.00000000000E+00 -0.00000000000E+00 -0.75795397160E+03  0.75795397160E+03  0.00000000000E+00 0.  1.
         21    1    1    2  503  501 -0.82432027158E+01 -0.10534490483E+03 -0.16062751192E+03  0.19226725397E+03  0.00000000000E+00 0. -1.
         21    1    1    2  504  506  0.38341391336E+02 -0.96019444955E+01 -0.97253960167E+02  0.10497900931E+03  0.00000000000E+00 0. -1.
         21    1    1    2  505  504  0.41243861497E+02  0.74114152645E+01 -0.38035991207E+02  0.56592595050E+02  0.00000000000E+00 0. -1.
         21    1    1    2  506  502 -0.71342050116E+02  0.10753543406E+03 -0.42346227588E+03  0.44268934569E+03  0.00000000000E+00 0.  1.
<scales pt_clust_3="114.40648" pt_clust_4="37.15265" pt_clust_5="88.32900" pt_clust_6="14000.00000"></scales>
<clustering>
<clus scale="   37.153">  4  5 -1 -1</clus>
<clus scale="   88.329">  1  4  2 -1</clus>
<clus scale="  114.406">  1  3  2 -1</clus>
<clus scale="   88.329">  1  3  2 -1</clus>
</clustering>
</event>
<event>
 6    0  0.1221518E+003  0.1508658E+03  0.7546771E-02  0.1199413E+00
         21   -1    0    0  505  501  0.00000000000E+00  0.00000000000E+00  0.13837548084E+04  0.13837548084E+04  0.00000000000E+00 0.  1.
         21   -1    0    0  504  502 -0.00000000000E+00 -0.00000000000E+00 -0.66726714148E+03  0.66726714148E+03  0.00000000000E+00 0.  1.
         21    1    1    2  503  501 -0.25940599161E+02  0.15803760680E+02  0.84741249422E+03  0.84795672584E+03  0.00000000000E+00 0.  1.
         21    1    1    2  504  506  0.23901835424E+02  0.12149635619E+03 -0.21878784243E+03  0.25139765770E+03  0.00000000000E+00 0.  1.
         21    1    1    2  505  502  0.12421423114E+01 -0.18576894361E+03 -0.41069566438E+03  0.45075777538E+03  0.00000000000E+00 0.  1.
         21    1    1    2  506  503  0.79662142560E+00  0.48468826738E+02  0.49855867948E+03  0.50090979094E+03  0.00000000000E+00 0.  1.
<scales pt_clust_3="30.37554" pt_clust_4="14000.00000" pt_clust_5="150.86585" pt_clust_6="67.38919"></scales>
<clustering>
<clus scale="   30.376">  1  3  2 -1</clus>
<clus scale="   67.389">  1  6  2 -1</clus>
<clus scale="  150.866">  1  5  2 -1</clus>
<clus scale="   30.376">  1  3  2 -1</clus>
</clustering>
</event>
<event>
 6    0  0.1221518E+003  0.7609740E+02  0.7546771E-02  0.1340506E+00
         21   -1    0    0  506  501  0.00000000000E+00  0.00000000000E+00  0.46097941463E+03  0.46097941463E+03  0.00000000000E+00 0.  1.
         21   -1    0    0  505  502 -0.00000000000E+00 -0.00000000000E+00 -0.36589566766E+03  0.36589566766E+03  0.00000000000E+00 0.  1.
         21    1    1    2  503  504  0.12608270305E+02 -0.54431044062E+02 -0.22213884743E+02  0.60126231490E+02  0.00000000000E+00 0.  1.
         21    1    1    2  504  502 -0.45297003898E+02  0.71276911845E+02 -0.91912500900E+02  0.12482036911E+03  0.00000000000E+00 0.  1.
         21    1    1    2  505  501  0.49086136291E+02 -0.54369370397E+02 -0.20913094422E+03  0.22158797134E+03  0.00000000000E+00 0.  1.
         21    1    1    2  506  503 -0.16397402699E+02  0.37523502614E+02  0.41834107683E+03  0.42034051034E+03  0.00000000000E+00 0.  1.
<scales pt_clust_3="37.70078" pt_clust_4="76.09740" pt_clust_5="14000.00000" pt_clust_6="40.94982"></scales>
<clustering>
<clus scale="   40.950">  1  6  2 -1</clus>
<clus scale="   37.701">  1  3  2 -1</clus>
<clus scale="   76.097">  1  4  2 -1</clus>
<clus scale="   40.950">  1  3  2 -1</clus>
</clustering>
</event>
<event>
 6    0  0.1221518E+003  0.9901866E+02  0.7546771E-02  0.1282373E+00
         21   -1    0    0  503  501  0.00000000000E+00  0.00000000000E+00  0.38623438420E+03  0.38623438420E+03  0.00000000000E+00 0.  1.
         21   -1    0    0  504  502 -0.00000000000E+00 -0.00000000000E+00 -0.29580962250E+03  0.29580962250E+03  0.00000000000E+00 0. -1.
         21    1    1    2  503  506  0.34825593134E+02 -0.59733141544E+02 -0.54746451628E+02  0.88193220270E+02  0.00000000000E+00 0.  1.
         21    1    1    2  504  505  0.21476253091E+02  0.13845028602E+03  0.97355238180E+02  0.17060994562E+03  0.00000000000E+00 0.  1.
         21    1    1    2  505  501 -0.23307157001E+02 -0.31931300365E+02  0.22943312754E+03  0.23281407071E+03  0.00000000000E+00 0.  1.
         21    1    1    2  506  502 -0.32994689224E+02 -0.46785844107E+02 -0.18161715239E+03  0.19042677010E+03  0.00000000000E+00 0. -1.
<scales pt_clust_3="99.01866" pt_clust_4="14000.00000" pt_clust_5="39.53266" pt_clust_6="58.37251"></scales>
<clustering>
<clus scale="   39.533">  1  5  2 -1</clus>
<clus scale="   58.373">  2  6  1 -1</clus>
<clus scale="   99.019">  2  3  1 -1</clus>
<clus scale="   39.533">  1  3  2 -1</clus>
</clustering>
</event>
<event>
 6    0  0.1221518E+003  0.9079146E+02  0.7546771E-02  0.1300946E+00
         21   -1    0    0  503  501  0.00000000000E+00  0.00000000000E+00  0.90063507003E+03  0.90063507003E+03  0.00000000000E+00 0.  1.
         21   -1    0    0  505  502 -0.00000000000E+00 -0.00000000000E+00 -0.30674406094E+02  0.30674406094E+02  0.00000000000E+00 0.  1.
         21    1    1    2  503  504 -0.89861613862E+01 -0.41099464790E+02  0.23892859531E+03  0.24260418537E+03  0.00000000000E+00 0. -1.
         21    1    1    2  504  502  0.10682837262E+03 -0.48243993883E+01  0.43517959791E+03  0.44812594040E+03  0.00000000000E+00 0.  1.
         21    1    1    2  505  506 -0.35538959648E+02 -0.47848948122E+01  0.86777425821E+01  0.36894662047E+02  0.00000000000E+00 0.  1.
         21    1    1    2  506  501 -0.62303251588E+02  0.50708758990E+02  0.18717472814E+03  0.20368468831E+03  0.00000000000E+00 0.  1.
<scales pt_clust_3="43.59168" pt_clust_4="90.79146" pt_clust_5="35.85963" pt_clust_6="14000.00000"></scales>
<clustering>
<clus scale="   35.860">  2  5  1 -1</clus>
<clus scale="   43.592">  1  3  2 -1</clus>
<clus scale="   90.791">  1  4  2 -1</clus>
<clus scale="   43.592">  1  3  2 -1</clus>
</clustering>
</event>
<event>
 6    0  0.1221518E+003  0.2106432E+03  0.7546771E-02  0.1141058E+00
         21   -1    0    0  506  501  0.00000000000E+00  0.00000000000E+00  0.33226405680E+03  0.33226405680E+03  0.00000000000E+00 0. -1.
         21   -1    0    0  503  502 -0.00000000000E+00 -0.00000000000E+00 -0.38819133479E+03  0.38819133479E+03  0.00000000000E+00 0. -1.
         21    1    1    2  503  505 -0.20055164993E+03 -0.64520216098E+01 -0.23212911821E+03  0.30683304971E+03  0.00000000000E+00 0. -1.
         21    1    1    2  504  502  0.39120958242E+02  0.12394049471E+02 -0.46677882615E+01  0.41301938010E+02  0.00000000000E+00 0. -1.
         21    1    1    2  505  501  0.41561122662E+01  0.76224335236E+02  0.17929420067E+03  0.19486875826E+03  0.00000000000E+00 0. -1.
         21    1    1    2  506  504  0.15727457942E+03 -0.82166363097E+02  0.15754278079E+01  0.17745164561E+03  0.00000000000E+00 0. -1.
<scales pt_clust_3="199.91591" pt_clust_4="31.91470" pt_clust_5="76.33756" pt_clust_6="31.91470"></scales>
<clustering>
<clus scale="   31.915">  4  6 -1 -1</clus>
<clus scale="   76.338">  1  5  2 -1</clus>
<clus scale="  199.916">  2  3  1 -1</clus>
<clus scale="   76.338">  1  3  2 -1</clus>
</clustering>
</event>
<event>
 6    0  0.1221518E+003  0.1018651E+03  0.7546771E-02  0.1276422E+00
         21   -1    0    0  506  501  0.00000000000E+00  0.00000000000E+00  0.27933692949E+03  0.27933692949E+03  0.00000000000E+00 0.  1.
         21   -1    0    0  503  502 -0.00000000000E+00 -0.00000000000E+00 -0.81418383991E+02  0.81418383991E+02  0.00000000000E+00 0.  1.
         21    1    1    2  503  501 -0.25720133097E+02  0.81600526687E+02 -0.35296327092E+01  0.85630774312E+02  0.00000000000E+00 0.  1.
         21    1    1    2  504  505  0.10085464458E+02 -0.70503781294E+02  0.93398360111E+02  0.11745532530E+03  0.00000000000E+00 0.  1.
         21    1    1    2  505  502  0.12825672404E+02 -0.59053684965E+02  0.33819205010E+02  0.69250084535E+02  0.00000000000E+00 0. -1.
         21    1    1    2  506  504  0.28089962355E+01  0.47956939571E+02  0.74230613089E+02  0.88419129336E+02  0.00000000000E+00 0.  1.
<scales pt_clust_3="94.93137" pt_clust_4="34.02640" pt_clust_5="34.02640" pt_clust_6="48.03914"></scales>
<clustering>
<clus scale="   34.026">  4  5 -1 -1</clus>
<clus scale="   48.039">  1  6  2 -1</clus>
<clus scale="   94.931">  2  3  1 -1</clus>
<clus scale="   48.039">  1  3  2 -1</clus>
</clustering>
</event>
<event>
 6    0  0.1221518E+003  0.8141142E+02  0.7546771E-02  0.1325093E+00
         21   -1    0    0  504  501  0.00000000000E+00  0.00000000000E+00  0.34373356437E+02  0.34373356437E+02  0.00000000000E+00 0. -1.
         21   -1    0    0  503  502 -0.00000000000E+00 -0.00000000000E+00 -0.11806730262E+04  0.11806730262E+04  0.00000000000E+00 0. -1.
         21    1    1    2  503  501 -0.11332960416E+02  0.90811858443E+02 -0.84715073231E+02  0.12470714999E+03  0.00000000000E+00 0. -1.
         21    1    1    2  504  505 -0.44171008380E+02 -0.38447524291E+02 -0.84085371230E+02  0.10246774985E+03  0.00000000000E+00 0. -1.
         21    1    1    2  505  506  0.89028870078E+02 -0.54824978080E+02 -0.61575375016E+03  0.62456752939E+03  0.00000000000E+00 0. -1.
         21    1    1    2  506  502 -0.33524901282E+02  0.24606439283E+01 -0.36174547517E+03  0.36330395344E+03  0.00000000000E+00 0.  1.
<scales pt_clust_3="81.41142" pt_clust_4="61.31935" pt_clust_5="14000.00000" pt_clust_6="33.61508"></scales>
<clustering>
<clus scale="   33.615">  2  6  1 -1</clus>
<clus scale="   61.319">  1  4  2 -1</clus>
<clus scale="   81.411">  1  3  2 -1</clus>
<clus scale="   61.319">  1  3  2 -1</clus>
</clustering>
</event>
<event>
 6    0  0.1221518E+003  0.8843689E+02  0.7546771E-02  0.1306682E+00
         21   -1    0    0  505  501  0.00000000000E+00  0.00000000000E+00  0.21904759541E+04  0.21904759541E+04  0.00000000000E+00 0.  1.
         21   -1    0    0  506  502 -0.00000000000E+00 -0.00000000000E+00 -0.11561080775E+03  0.11561080775E+03  0.00000000000E+00 0.  1.
         21    1    1    2  503  504 -0.65902380726E+02  0.74692728435E+02  0.16856697821E+03  0.19579824721E+03  0.00000000000E+00 0.  1.
         21    1    1    2  504  501 -0.14550332733E+02 -0.10664695532E+03  0.11278762652E+04  0.11330005096E+04  0.00000000000E+00 0.  1.
         21    1    1    2  505  502  0.49104816802E+02  0.27944450468E+02  0.87440884033E+03  0.87623227252E+03  0.00000000000E+00 0.  1.
         21    1    1    2  506  503  0.31347896657E+02  0.40097764219E+01 -0.95986937359E+02  0.10105573252E+03  0.00000000000E+00 0.  1.
<scales pt_clust_3="88.43689" pt_clust_4="14000.00000" pt_clust_5="58.06220" pt_clust_6="31.60331"></scales>
<clustering>
<clus scale="   31.603">  2  6  1 -1</clus>
<clus scale="   58.062">  1  5  2 -1</clus>
<clus scale="   88.437">  2  3  1 -1</clus>
<clus scale="   58.062">  1  3  2 -1</clus>
</clustering>
</event>
<event>
 6    0  0.1309926E+003  0.1118127E+03  0.7546771E-02  0.1257249E+00
         21   -1    0    0  505  501  0.00000000000E+00  0.00000000000E+00  0.22837215009E+03  0.22837215009E+03  0.00000000000E+00 0. -1.
         21   -1    0    0  504  502 -0.00000000000E+00 -0.00000000000E+00 -0.98252685009E+03  0.98252685009E+03  0.00000000000E+00 0. -1.
         21    1    1    2  503  502  0.38168536388E+02  0.85977472529E+01 -0.80126215332E+03  0.80221680161E+03  0.00000000000E+00 0. -1.
         21    1    1    2  504  506  0.72529534945E+02 -0.44938153705E+02 -0.13430859357E+03  0.15911872739E+03  0.00000000000E+00 0. -1.
         21    1    1    2  505  503 -0.10767796783E+03  0.75176698716E+02  0.15117097762E+03  0.20024671099E+03  0.00000000000E+00 0. -1.
         21    1    1    2  506  501 -0.30201035015E+01 -0.38836292264E+02  0.30245069272E+02  0.49316760206E+02  0.00000000000E+00 0. -1.
<scales pt_clust_3="39.09596" pt_clust_4="14000.00000" pt_clust_5="111.81266" pt_clust_6="38.95354"></scales>
<clustering>
<clus scale="   38.954">  1  6  2 -1</clus>
<clus scale="   39.096">  2  3  1 -1</clus>
<clus scale="  111.813">  1  5  2 -1</clus>
<clus scale="   38.954">  1  3  2 -1</clus>
</clustering>
</event>
<event>
 6    0  0.1221518E+003  0.1172022E+03  0.7546771E-02  0.1247785E+00
         21   -1    0    0  506  501  0.00000000000E+00  0.00000000000E+00  0.65638490778E+02  0.65638490778E+02  0.00000000000E+00 0. -1.
         21   -1    0    0  503  502 -0.00000000000E+00 -0.00000000000E+00 -0.12073041279E+04  0.12073041279E+04  0.00000000000E+00 0. -1.
         21    1    1    2  503  505 -0.87698445764E+02  0.58797694323E+02 -0.58205014551E+03  0.59154928631E+03  0.00000000000E+00 0. -1.
         21    1    1    2  504  502  0.25368166477E+02  0.10257182919E+03 -0.18573877058E+03  0.21368999722E+03  0.00000000000E+00 0. -1.
         21    1    1    2  505  501  0.11029491379E+02 -0.14727003070E+03 -0.38586972314E+03  0.41316528758E+03  0.00000000000E+00 0. -1.
         21    1    1    2  506  504  0.51300787907E+02 -0.14099492812E+02  0.11993002079E+02  0.54538047603E+02  0.00000000000E+00 0. -1.
<scales pt_clust_3="98.21265" pt_clust_4="117.20218" pt_clust_5="14000.00000" pt_clust_6="53.20307"></scales>
<clustering>
<clus scale="   53.203">  1  6  2 -1</clus>
<clus scale="   98.213">  2  3  1 -1</clus>
<clus scale="  117.202">  1  4  2 -1</clus>
<clus scale="   53.203">  1  3  2 -1</clus>
</clustering>
</event>
<event>
 6    0  0.1221518E+003  0.1049207E+03  0.7546771E-02  0.1270276E+00
         21   -1    0    0  505  501  0.00000000000E+00  0.00000000000E+00  0.47368382133E+03  0.47368382133E+03  0.00000000000E+00 0. -1.
         21   -1    0    0  506  502 -0.00000000000E+00 -0.00000000000E+00 -0.13065857213E+04  0.13065857213E+04  0.00000000000E+00 0. -1.
         21    1    1    2  503  501  0.16101594470E+02  0.57764708135E+02  0.77325928499E+02  0.97853574634E+02  0.00000000000E+00 0. -1.
         21    1    1    2  504  502 -0.59795350908E+02 -0.63215975526E+02 -0.56394213203E+03  0.57061587064E+03  0.00000000000E+00 0. -1.
         21    1    1    2  505  504 -0.23832473132E+02 -0.13079561880E+03  0.36290442881E+03  0.38649075684E+03  0.00000000000E+00 0. -1.
         21    1    1    2  506  503  0.67526229570E+02  0.13624688619E+03 -0.70919012528E+03  0.72530934054E+03  0.00000000000E+00 0. -1.
<scales pt_clust_3="59.96685" pt_clust_4="104.92070" pt_clust_5="75.18515" pt_clust_6="14000.00000"></scales>
<clustering>
<clus scale="   59.967">  1  3  2 -1</clus>
<clus scale="   75.185">  1  5  2 -1</clus>
<clus scale="  104.921">  2  4  1 -1</clus>
<clus scale="   59.967">  1  3  2 -1</clus>
</clustering>
</event>
<event>
 6    0  0.1221518E+003  0.8431395E+02  0.7546771E-02  0.1317236E+00
         21   -1    0    0  504  501  0.00000000000E+00  0.00000000000E+00  0.86493222308E+02  0.86493222308E+02  0.00000000000E+00 0.  1.
         21   -1    0    0  506  502 -0.00000000000E+00 -0.00000000000E+00 -0.58471704940E+03  0.58471704940E+03  0.00000000000E+00 0. -1.
         21    1    1    2  503  501 -0.68206463682E+02  0.36224688983E+02  0.13873030396E+02  0.78465347462E+02  0.00000000000E+00 0.  1.
         21    1    1    2  504  505  0.27126978418E+02  0.35659584349E+02  0.85373359498E+01  0.45611018616E+02  0.00000000000E+00 0.  1.
         21    1    1    2  505  502  0.84749593502E+02 -0.87067004914E+02 -0.39484319484E+03  0.41311536579E+03  0.00000000000E+00 0. -1.
         21    1    1    2  506  503 -0.43670108238E+02  0.15182731582E+02 -0.12579099861E+03  0.13401853985E+03  0.00000000000E+00 0. -1.
<scales pt_clust_3="84.31395" pt_clust_4="44.80490" pt_clust_5="14000.00000" pt_clust_6="45.36684"></scales>
<clustering>
<clus scale="   44.805">  1  4  2 -1</clus>
<clus scale="   45.367">  2  6  1 -1</clus>
<clus scale="   84.314">  1  3  2 -1</clus>
<clus scale="   44.805">  1  3  2 -1</clus>
</clustering>
</event>
<event>
 6    0  0.1221518E+003  0.8486713E+02  0.7546771E-02  0.1315780E+00
         21   -1    0    0  505  501  0.00000000000E+00  0.00000000000E+00  0.21468822325E+03  0.21468822325E+03  0.00000000000E+00 0.  1.
         21   -1    0    0  501  502 -0.00000000000E+00 -0.00000000000E+00 -0.87049834384E+03  0.87049834384E+03  0.00000000000E+00 0. -1.
         21    1    1    2  503  504  0.36737517103E+02  0.59298176285E+02  0.19915700397E+02  0.72543462807E+02  0.00000000000E+00 0.  1.
         21    1    1    2  504  502 -0.17128603500E+02 -0.84091889428E+02 -0.80422810669E+03  0.80879396790E+03  0.00000000000E+00 0. -1.
         21    1    1    2  505  506  0.35422384187E+02  0.73104082366E+00  0.13850065432E+03  0.14296052241E+03  0.00000000000E+00 0.  1.
         21    1    1    2  506  503 -0.55031297790E+02  0.24062672319E+02 -0.99983686214E+01  0.60888613966E+02  0.00000000000E+00 0.  1.
<scales pt_clust_3="84.86713" pt_clust_4="14000.00000" pt_clust_5="35.42993" pt_clust_6="49.26264"></scales>
<clustering>
<clus scale="   35.430">  1  5  2 -1</clus>
<clus scale="   49.263">  1  6  2 -1</clus>
<clus scale="   84.867">  1  3  2 -1</clus>
<clus scale="   35.430">  1  3  2 -1</clus>
</clustering>
</event>
<event>
 6    0  0.1221518E+003  0.6342746E+02  0.7546771E-02  0.1383986E+00
         21   -1    0    0  505  501  0.00000000000E+00  0.00000000000E+00  0.18140804065E+03  0.18140804065E+03  0.00000000000E+00 0.  1.
         21   -1    0    0  504  502 -0.00000000000E+00 -0.00000000000E+00 -0.75775557578E+03  0.75775557578E+03  0.00000000000E+00 0.  1.
         21    1    1    2  503  506 -0.45826934835E+02 -0.58308971327E+02 -0.94027990144E+02  0.11975519623E+03  0.00000000000E+00 0.  1.
         21    1    1    2  504  501 -0.30928783311E+02  0.28018859380E+02  0.68292863234E+02  0.80034750495E+02  0.00000000000E+00 0.  1.
         21    1    1    2  505  503  0.81495217159E+02 -0.33786166276E+02  0.71743078318E+02  0.11371035458E+03  0.00000000000E+00 0.  1.
         21    1    1    2  506  502 -0.47394990132E+01  0.64076278223E+02 -0.62235548654E+03  0.62566331513E+03  0.00000000000E+00 0.  1.
<scales pt_clust_3="63.42746" pt_clust_4="41.73303" pt_clust_5="55.58159" pt_clust_6="14000.00000"></scales>
<clustering>
<clus scale="   41.733">  1  4  2 -1</clus>
<clus scale="   55.582">  1  5  2 -1</clus>
<clus scale="   63.427">  1  3  2 -1</clus>
<clus scale="   41.733">  1  3  2 -1</clus>
</clustering>
</event>
<event>
 6    0  0.1221518E+003  0.1803434E+03  0.7546771E-02  0.1167471E+00
         21   -1    0    0  506  501  0.00000000000E+00  0.00000000000E+00  0.69012037427E+03  0.69012037427E+03  0.00000000000E+00 0.  1.
         21   -1    0    0  504  502 -0.00000000000E+00 -0.00000000000E+00 -0.28765546123E+03  0.28765546123E+03  0.00000000000E+00 0.  1.
         21    1    1    2  503  502  0.18030312118E+02 -0.50765237050E+02 -0.69116274065E+02  0.87631391569E+02  0.00000000000E+00 0.  1.
         21    1    1    2  504  501  0.40359656724E+02 -0.10567944794E+02  0.39981746214E+03  0.40198829135E+03  0.00000000000E+00 0.  1.
         21    1    1    2  505  503  0.10076751335E+03 -0.69822480713E+02 -0.14438031710E+03  0.18940682809E+03  0.00000000000E+00 0.  1.
         21    1    1    2  506  505 -0.15915748220E+03  0.13115566256E+03  0.21614404207E+03  0.29874932449E+03  0.00000000000E+00 0.  1.
<scales pt_clust_3="33.24463" pt_clust_4="41.72030" pt_clust_5="33.24463" pt_clust_6="173.23018"></scales>
<clustering>
<clus scale="   33.245">  3  5 -1 -1</clus>
<clus scale="   41.720">  1  4  2 -1</clus>
<clus scale="  173.230">  1  6  2 -1</clus>
<clus scale="   41.720">  1  3  2 -1</clus>
</clustering>
</event>
<event>
 6    0  0.1221518E+003  0.6346585E+02  0.7546771E-02  0.1383837E+00
         21   -1    0    0  503  501  0.00000000000E+00  0.00000000000E+00  0.40804296448E+03  0.40804296448E+03  0.00000000000E+00 0.  1.
         21   -1    0    0  506  502 -0.00000000000E+00 -0.00000000000E+00 -0.31384707354E+03  0.31384707354E+03  0.00000000000E+00 0.  1.
         21    1    1    2  503  504 -0.87568490308E+02  0.19249587681E+02  0.33382080576E+03  0.34565172859E+03  0.00000000000E+00 0.  1.
         21    1    1    2  504  502 -0.58575048621E+02  0.67236421729E+01 -0.44715769619E+01  0.59129000376E+02  0.00000000000E+00 0. -1.
         21    1    1    2  505  501  0.30051983787E+02 -0.19213013468E+02  0.16940176997E+02  0.39487101853E+02  0.00000000000E+00 0. -1.
         21    1    1    2  506  505  0.11609155514E+03 -0.67602163865E+01 -0.25209351486E+03  0.27762220721E+03  0.00000000000E+00 0.  1.
<scales pt_clust_3="14000.00000" pt_clust_4="56.66511" pt_clust_5="35.66878" pt_clust_6="63.46585"></scales>
<clustering>
<clus scale="   35.669">  1  5  2 -1</clus>
<clus scale="   56.665">  2  4  1 -1</clus>
<clus scale="   63.466">  2  6  1 -1</clus>
<clus scale="   35.669">  1  3  2 -1</clus>
</clustering>
</event>
<event>
 6    0  0.1221518E+003  0.1092772E+03  0.7546771E-02  0.1261914E+00
         21   -1    0    0  504  501  0.00000000000E+00  0.00000000000E+00  0.13981639615E+04  0.13981639615E+04  0.00000000000E+00 0. -1.
         21   -1    0    0  503  502 -0.00000000000E+00 -0.00000000000E+00 -0.37456383070E+02  0.37456383070E+02  0.00000000000E+00 0.  1.
         21    1    1    2  503  505  0.52998944728E+02  0.59843026003E+02  0.66600886687E+02  0.10404688372E+03  0.00000000000E+00 0.  1.
         21    1    1    2  504  506  0.12000103238E+02 -0.12885668175E+03  0.10749959456E+04  0.10827577430E+04  0.00000000000E+00 0. -1.
         21    1    1    2  505  501 -0.40912664097E+02  0.10852835443E+02  0.14757674951E+03  0.15352695892E+03  0.00000000000E+00 0.  1.
         21    1    1    2  506  502 -0.24086383870E+02  0.58160820304E+02  0.71533996564E+02  0.95288758890E+02  0.00000000000E+00 0.  1.
<scales pt_clust_3="109.27722" pt_clust_4="14000.00000" pt_clust_5="42.32765" pt_clust_6="64.70712"></scales>
<clustering>
<clus scale="   42.328">  1  5  2 -1</clus>
<clus scale="   64.707">  2  6  1 -1</clus>
<clus scale="  109.277">  2  3  1 -1</clus>
<clus scale="   42.328">  1  3  2 -1</clus>
</clustering>
</event>
<event>
 6    0  0.1221518E+003  0.1547457E+03  0.7546771E-02  0.1194760E+00
         21   -1    0    0  502  501  0.00000000000E+00  0.00000000000E+00  0.26923263315E+03  0.26923263315E+03  0.00000000000E+00 0.  1.
         21   -1    0    0  506  502 -0.00000000000E+00 -0.00000000000E+00 -0.17444787099E+03  0.17444787099E+03  0.00000000000E+00 0.  1.
         21    1    1    2  503  501  0.13410237997E+03  0.21057850773E+02  0.10916102135E+03  0.17419245097E+03  0.00000000000E+00 0.  1.
         21    1    1    2  504  505 -0.17279059203E+02 -0.33978669894E+02  0.19051245433E+02  0.42615324089E+02  0.00000000000E+00 0.  1.
         21    1    1    2  505  503 -0.12691729823E+03 -0.28735434287E+02  0.44839147423E+02  0.13763820297E+03  0.00000000000E+00 0.  1.
         21    1    1    2  506  504  0.10093977466E+02  0.41656253408E+02 -0.78266652043E+02  0.89234526116E+02  0.00000000000E+00 0.  1.
<scales pt_clust_3="142.34654" pt_clust_4="32.84954" pt_clust_5="32.84954" pt_clust_6="42.86178"></scales>
<clustering>
<clus scale="   32.850">  4  5 -1 -1</clus>
<clus scale="   42.862">  2  6  1 -1</clus>
<clus scale="  142.347">  1  3  2 -1</clus>
<clus scale="  142.347">  1  3  2 -1</clus>
</clustering>
</event>
<event>
 6    0  0.1221518E+003  0.1261559E+03  0.7546771E-02  0.1233274E+00
         21   -1    0    0  503  501  0.00000000000E+00  0.00000000000E+00  0.20286095313E+03  0.20286095313E+03  0.00000000000E+00 0. -1.
         21   -1    0    0  501  502 -0.00000000000E+00 -0.00000000000E+00 -0.16968970740E+03  0.16968970740E+03  0.00000000000E+00 0.  1.
         21    1    1    2  503  506  0.11997497263E+03 -0.16790422894E+02  0.14018109468E+03  0.18527453053E+03  0.00000000000E+00 0. -1.
         21    1    1    2  504  505 -0.65061397213E+02  0.35034813012E+02 -0.58899609669E+02  0.94496494905E+02  0.00000000000E+00 0.  1.
         21    1    1    2  505  502 -0.21381718569E+02 -0.21671875270E+02 -0.50523210963E+02  0.58986802869E+02  0.00000000000E+00 0.  1.
         21    1    1    2  506  504 -0.33531856845E+02  0.34274851518E+01  0.24129716780E+01  0.33792832232E+02  0.00000000000E+00 0.  1.
<scales pt_clust_3="117.67705" pt_clust_4="30.32506" pt_clust_5="30.44418" pt_clust_6="30.32506"></scales>
<clustering>
<clus scale="   30.444">  2  5  1 -1</clus>
<clus scale="   30.325">  4  6 -1 -1</clus>
<clus scale="  117.677">  1  3  2 -1</clus>
<clus scale="  117.677">  1  3  2 -1</clus>
</clustering>
</event>
<event>
 6    0  0.1221518E+003  0.1357758E+03  0.7546771E-02  0.1219129E+00
         21   -1    0    0  504  501  0.00000000000E+00  0.00000000000E+00  0.10430476276E+03  0.10430476276E+03  0.00000000000E+00 0. -1.
         21   -1    0    0  505  502 -0.00000000000E+00 -0.00000000000E+00 -0.12122146639E+04  0.12122146639E+04  0.00000000000E+00 0.  1.
         21    1    1    2  503  502 -0.12928137988E+03 -0.18876062150E+02 -0.89737696811E+03  0.90683813539E+03  0.00000000000E+00 0.  1.
         21    1    1    2  504  506  0.42173491407E+02  0.25936866676E+01  0.44862048000E+02  0.61627379782E+02  0.00000000000E+00 0. -1.
         21    1    1    2  505  501  0.94872061263E+01  0.45621091926E+02 -0.26076922927E+03  0.26489975848E+03  0.00000000000E+00 0.  1.
         21    1    1    2  506  503  0.77620682347E+02 -0.29338716443E+02  0.53742482821E+01  0.83154152964E+02  0.00000000000E+00 0. -1.
<scales pt_clust_3="122.73140" pt_clust_4="41.43718" pt_clust_5="46.59711" pt_clust_6="41.43718"></scales>
<clustering>
<clus scale="   41.437">  4  6 -1 -1</clus>
<clus scale="   46.597">  2  5  1 -1</clus>
<clus scale="  122.731">  2  3  1 -1</clus>
<clus scale="  135.776">  1  3  2 -1</clus>
</clustering>
</event>
<event>
 6    0  0.1221518E+003  0.5859793E+02  0.7546771E-02  0.1403812E+00
         21   -1    0    0  506  501  0.00000000000E+00  0.00000000000E+00  0.11092018502E+03  0.11092018502E+03  0.00000000000E+00 0.  1.
         21   -1    0    0  505  502 -0.00000000000E+00 -0.00000000000E+00 -0.10446371658E+04  0.10446371658E+04  0.00000000000E+00 0.  1.
         21    1    1    2  503  504 -0.73843569822E+02 -0.24176971575E+01 -0.46952205140E+02  0.87539863097E+02  0.00000000000E+00 0.  1.
         21    1    1    2  504  501  0.51184450655E+02 -0.26236377962E+02  0.74493758535E+02  0.94114374981E+02  0.00000000000E+00 0.  1.
         21    1    1    2  505  503  0.54356159908E+02  0.68250289774E+02 -0.80274249061E+03  0.80747024738E+03  0.00000000000E+00 0.  1.
         21    1    1    2  506  502 -0.31697040742E+02 -0.39596214654E+02 -0.15851604359E+03  0.16643286539E+03  0.00000000000E+00 0.  1.
<scales pt_clust_3="14000.00000" pt_clust_4="58.59793" pt_clust_5="40.96102" pt_clust_6="50.72044"></scales>
<clustering>
<clus scale="   50.720">  2  6  1 -1</clus>
<clus scale="   40.961">  2  5  1 -1</clus>
<clus scale="   58.598">  1  4  2 -1</clus>
<clus scale="   58.598">  1  3  2 -1</clus>
</clustering>
</event>
<event>
 6    0  0.1221518E+003  0.1704144E+03  0.7546771E-02  0.1177416E+00
         21   -1    0    0  503  501  0.00000000000E+00  0.00000000000E+00  0.18371518597E+03  0.18371518597E+03  0.00000000000E+00 0. -1.
         21   -1    0    0  501  502 -0.00000000000E+00 -0.00000000000E+00 -0.62440817216E+03  0.62440817216E+03  0.00000000000E+00 0.  1.
         21    1    1    2  503  506 -0.12516160606E+02  0.36782409139E+02  0.85238968533E+02  0.93676473327E+02  0.00000000000E+00 0. -1.
         21    1    1    2  504  502 -0.95473355219E+02 -0.13457363433E+03 -0.53438388171E+03  0.55927753186E+03  0.00000000000E+00 0.  1.
         21    1    1    2  505  504  0.86536421264E+02  0.53576388420E+02 -0.10880551215E+02  0.10235901522E+03  0.00000000000E+00 0. -1.
         21    1    1    2  506  505  0.21453094561E+02  0.44214836772E+02  0.19332478204E+02  0.52810337724E+02  0.00000000000E+00 0. -1.
<scales pt_clust_3="38.85357" pt_clust_4="162.04890" pt_clust_5="36.64605" pt_clust_6="36.64605"></scales>
<clustering>
<clus scale="   36.646">  5  6 -1 -1</clus>
<clus scale="   38.854">  1  3  2 -1</clus>
<clus scale="  162.049">  2  4  1 -1</clus>
<clus scale="   38.854">  1  3  2 -1</clus>
</clustering>
</event>
<event>
 6    0  0.1221518E+003  0.7278776E+02  0.7546771E-02  0.1350862E+00
         21   -1    0    0  503  501  0.00000000000E+00  0.00000000000E+00  0.14134848060E+03  0.14134848060E+03  0.00000000000E+00 0. -1.
         21   -1    0    0  504  502 -0.00000000000E+00 -0.00000000000E+00 -0.16810456624E+04  0.16810456624E+04  0.00000000000E+00 0. -1.
         21    1    1    2  503  505 -0.36584959028E+02 -0.12551782064E+02  0.93585750666E+02  0.10126351361E+03  0.00000000000E+00 0. -1.
         21    1    1    2  504  501 -0.51013511753E+01  0.11336162695E+03 -0.11691533175E+04  0.11746473352E+04  0.00000000000E+00 0. -1.
         21    1    1    2  505  506  0.56945984999E+02 -0.55980813205E+02  0.90315970491E-01  0.79854272344E+02  0.00000000000E+00 0. -1.
         21    1    1    2  506  502 -0.15259674796E+02 -0.44829031682E+02 -0.46421993098E+03  0.46662902190E+03  0.00000000000E+00 0. -1.
<scales pt_clust_3="38.67824" pt_clust_4="72.78776" pt_clust_5="14000.00000" pt_clust_6="48.01152"></scales>
<clustering>
<clus scale="   38.678">  1  3  2 -1</clus>
<clus scale="   48.012">  2  6  1 -1</clus>
<clus scale="   72.788">  2  4  1 -1</clus>
<clus scale="   38.678">  1  3  2 -1</clus>
</clustering>
</event>
<event>
 6    0  0.1221518E+003  0.6309188E+02  0.7546771E-02  0.1385296E+00
         21   -1    0    0  506  501  0.00000000000E+00  0.00000000000E+00  0.12645104705E+03  0.12645104705E+03  0.00000000000E+00 0.  1.
         21   -1    0    0  503  502 -0.00000000000E+00 -0.00000000000E+00 -0.33750871953E+03  0.33750871953E+03  0.00000000000E+00 0.  1.
         21    1    1    2  503  504 -0.82718348323E+02 -0.63603499095E+02 -0.18578655805E+03  0.21308302466E+03  0.00000000000E+00 0.  1.
         21    1    1    2  504  501  0.58030536571E+02 -0.10813309915E+02  0.64382950220E+02  0.87347782599E+02  0.00000000000E+00 0.  1.
         21    1    1    2  505  502  0.35498598920E+02  0.26551781904E+02 -0.10345657323E+03  0.11255403232E+03  0.00000000000E+00 0.  1.
         21    1    1    2  506  505 -0.10810787168E+02  0.47865027106E+02  0.13802508582E+02  0.50974926996E+02  0.00000000000E+00 0.  1.
<scales pt_clust_3="63.09188" pt_clust_4="14000.00000" pt_clust_5="44.32999" pt_clust_6="50.64100"></scales>
<clustering>
<clus scale="   44.330">  2  5  1 -1</clus>
<clus scale="   50.641">  1  6  2 -1</clus>
<clus scale="   63.092">  2  3  1 -1</clus>
<clus scale="   50.641">  1  3  2 -1</clus>
</clustering>
</event>
<event>
 6    0  0.1221518E+003  0.9494230E+02  0.7546771E-02  0.1291306E+00
         21   -1    0    0  503  501  0.00000000000E+00  0.00000000000E+00  0.52789348744E+03  0.52789348744E+03  0.00000000000E+00 0. -1.
         21   -1    0    0  505  502 -0.00000000000E+00 -0.00000000000E+00 -0.36710414288E+03  0.36710414288E+03  0.00000000000E+00 0. -1.
         21    1    1    2  503  506  0.33401109421E+01 -0.98836432904E+02  0.45346978126E+03  0.46412782650E+03  0.00000000000E+00 0. -1.
         21    1    1    2  504  501  0.31175231837E+02  0.94128725576E+01  0.42801436352E+02  0.53781597259E+02  0.00000000000E+00 0. -1.
         21    1    1    2  505  504  0.24419275184E+02  0.36506600429E+02 -0.14157967483E+02  0.46146299079E+02  0.00000000000E+00 0.  1.
         21    1    1    2  506  502 -0.58934617963E+02  0.52916959917E+02 -0.32132390556E+03  0.33094190748E+03  0.00000000000E+00 0. -1.
<scales pt_clust_3="94.94230" pt_clust_4="32.56528" pt_clust_5="44.76502" pt_clust_6="14000.00000"></scales>
<clustering>
<clus scale="   32.565">  1  4  2 -1</clus>
<clus scale="   44.765">  2  5  1 -1</clus>
<clus scale="   94.942">  1  3  2 -1</clus>
<clus scale="   32.565">  1  3  2 -1</clus>
</clustering>
</event>
<event>
 6    0  0.1221518E+003  0.9072373E+02  0.7546771E-02  0.1301108E+00
         21   -1    0    0  505  501  0.00000000000E+00  0.00000000000E+00  0.18882184835E+03  0.18882184835E+03  0.00000000000E+00 0. -1.
         21   -1    0    0  501  502 -0.00000000000E+00 -0.00000000000E+00 -0.42442570803E+03  0.42442570803E+03  0.00000000000E+00 0. -1.
         21    1    1    2  503  504 -0.65221269078E+01 -0.70438199420E+02 -0.32114489690E+02  0.77687956113E+02  0.00000000000E+00 0. -1.
         21    1    1    2  504  502 -0.19166890331E+02  0.95856180309E+02 -0.32680854510E+03  0.34111523293E+03  0.00000000000E+00 0. -1.
         21    1    1    2  505  506 -0.15044563323E+02  0.42588225922E+02 -0.30487932828E+01  0.45270200058E+02  0.00000000000E+00 0. -1.
         21    1    1    2  506  503  0.40733580562E+02 -0.68006206811E+02  0.12636796839E+03  0.14917416728E+03  0.00000000000E+00 0. -1.
<scales pt_clust_3="14000.00000" pt_clust_4="90.72373" pt_clust_5="45.16742" pt_clust_6="43.53745"></scales>
<clustering>
<clus scale="   45.167">  1  5  2 -1</clus>
<clus scale="   43.537">  1  6  2 -1</clus>
<clus scale="   90.724">  2  4  1 -1</clus>
<clus scale="   45.167">  1  3  2 -1</clus>
</clustering>
</event>
<event>
 6    0  0.1221518E+003  0.8501900E+02  0.7546771E-02  0.1315383E+00
         21   -1    0    0  506  501  0.00000000000E+00  0.00000000000E+00  0.11951406378E+04  0.11951406378E+04  0.00000000000E+00 0.  1.
         21   -1    0    0  504  502 -0.00000000000E+00 -0.00000000000E+00 -0.13765681158E+03  0.13765681158E+03  0.00000000000E+00 0.  1.
         21    1    1    2  503  502 -0.10592958836E+03  0.26621527223E+02  0.44351967004E+03  0.45677070956E+03  0.00000000000E+00 0.  1.
         21    1    1    2  504  505  0.83206048995E+02  0.14801662972E+02 -0.10219454205E+03  0.13261244376E+03  0.00000000000E+00 0.  1.
         21    1    1    2  505  501  0.32298123291E+02 -0.86361441308E+02  0.15480528488E+03  0.18018363838E+03  0.00000000000E+00 0.  1.
         21    1    1    2  506  503 -0.95745839247E+01  0.44938251114E+02  0.56135341333E+03  0.56323065766E+03  0.00000000000E+00 0.  1.
<scales pt_clust_3="14000.00000" pt_clust_4="85.01900" pt_clust_5="80.19566" pt_clust_6="45.94692"></scales>
<clustering>
<clus scale="   45.947">  1  6  2 -1</clus>
<clus scale="   80.196">  1  5  2 -1</clus>
<clus scale="   85.019">  2  4  1 -1</clus>
<clus scale="   45.947">  1  3  2 -1</clus>
</clustering>
</event>
<event>
 6    0  0.1221518E+003  0.8779769E+02  0.7546771E-02  0.1308274E+00
         21   -1    0    0  503  501  0.00000000000E+00  0.00000000000E+00  0.98607149135E+03  0.98607149135E+03  0.00000000000E+00 0.  1.
         21   -1    0    0  506  502 -0.00000000000E+00 -0.00000000000E+00 -0.10853240160E+03  0.10853240160E+03  0.00000000000E+00 0.  1.
         21    1    1    2  503  504  0.15794464275E+02  0.40908941265E+02  0.35147352441E+03  0.35419859533E+03  0.00000000000E+00 0.  1.
         21    1    1    2  504  505 -0.44133729690E+02  0.46341137398E+02  0.95400604541E+02  0.11487629198E+03  0.00000000000E+00 0. -1.
         21    1    1    2  505  502 -0.43865191107E+02  0.14652011600E-01 -0.86028880825E+02  0.96566679251E+02  0.00000000000E+00 0.  1.
         21    1    1    2  506  501  0.72204456521E+02 -0.87264730674E+02  0.51669384163E+03  0.52896232639E+03  0.00000000000E+00 0.  1.
<scales pt_clust_3="43.85210" pt_clust_4="14000.00000" pt_clust_5="43.73521" pt_clust_6="87.79769"></scales>
<clustering>
<clus scale="   43.852">  1  3  2 -1</clus>
<clus scale="   43.735">  2  5  1 -1</clus>
<clus scale="   87.798">  1  6  2 -1</clus>
<clus scale="   43.852">  1  3  2 -1</clus>
</clustering>
</event>
<event>
 6    0  0.1221518E+003  0.9830098E+02  0.7546771E-02  0.1283910E+00
         21   -1    0    0  506  501  0.00000000000E+00  0.00000000000E+00  0.16079419277E+04  0.16079419277E+04  0.00000000000E+00 0. -1.
         21   -1    0    0  505  502 -0.00000000000E+00 -0.00000000000E+00 -0.88753388022E+03  0.88753388022E+03  0.00000000000E+00 0. -1.
         21    1    1    2  503  502  0.36694563197E+01  0.34915384448E+02 -0.74684768903E+03  0.74767240125E+03  0.00000000000E+00 0. -1.
         21    1    1    2  504  501  0.52396977922E+02 -0.49179573137E+02  0.15311137705E+04  0.15327992210E+04  0.00000000000E+00 0. -1.
         21    1    1    2  505  504 -0.12637414054E+03 -0.17811830414E+02 -0.46245021573E+02  0.13574345922E+03  0.00000000000E+00 0. -1.
         21    1    1    2  506  503  0.70307706301E+02  0.32076019103E+02 -0.17613012335E+02  0.79260726531E+02  0.00000000000E+00 0. -1.
<scales pt_clust_3="35.10768" pt_clust_4="71.73421" pt_clust_5="14000.00000" pt_clust_6="98.30098"></scales>
<clustering>
<clus scale="   35.108">  2  3  1 -1</clus>
<clus scale="   71.734">  1  4  2 -1</clus>
<clus scale="   98.301">  2  6  1 -1</clus>
<clus scale="   71.734">  1  3  2 -1</clus>
</clustering>
</event>
<event>
 6    0  0.1221518E+003  0.8870010E+02  0.7546771E-02  0.1306030E+00
         21   -1    0    0  505  501  0.00000000000E+00  0.00000000000E+00  0.87470586229E+03  0.87470586229E+03  0.00000000000E+00 0. -1.
         21   -1    0    0  506  502 -0.00000000000E+00 -0.00000000000E+00 -0.87997840656E+02  0.87997840656E+02  0.00000000000E+00 0.  1.
         21    1    1    2  503  502  0.32644742695E+02 -0.45120585513E+02 -0.55744145406E+02  0.78796930204E+02  0.00000000000E+00 0.  1.
         21    1    1    2  504  501 -0.49694124084E+02  0.10877018768E+03  0.43487778012E+03  0.45102011412E+03  0.00000000000E+00 0. -1.
         21    1    1    2  505  503  0.35323736277E+02 -0.20947951711E+02  0.37231187931E+03  0.37457004486E+03  0.00000000000E+00 0. -1.
         21    1    1    2  506  504 -0.18274354888E+02 -0.42701650459E+02  0.35262507606E+02  0.58316613766E+02  0.00000000000E+00 0.  1.
<scales pt_clust_3="88.70010" pt_clust_4="14000.00000" pt_clust_5="41.06803" pt_clust_6="47.10161"></scales>
<clustering>
<clus scale="   41.068">  1  5  2 -1</clus>
<clus scale="   47.102">  2  6  1 -1</clus>
<clus scale="   88.700">  2  3  1 -1</clus>
<clus scale="   41.068">  1  3  2 -1</clus>
</clustering>
</event>
<event>
 6    0  0.1221518E+003  0.9159936E+02  0.7546771E-02  0.1299024E+00
         21   -1    0    0  505  501  0.00000000000E+00  0.00000000000E+00  0.28913868900E+03  0.28913868900E+03  0.00000000000E+00 0.  1.
         21   -1    0    0  506  502 -0.00000000000E+00 -0.00000000000E+00 -0.52102243275E+03  0.52102243275E+03  0.00000000000E+00 0. -1.
         21    1    1    2  503  504 -0.10716718450E+02 -0.12621209893E+03  0.21119726240E+03  0.24626941673E+03  0.00000000000E+00 0.  1.
         21    1    1    2  504  502 -0.36665921752E+02  0.10735720470E+01 -0.97103632027E+02  0.10380104878E+03  0.00000000000E+00 0.  1.
         21    1    1    2  505  503  0.11915428400E+02  0.35935379498E+02  0.44246344315E+02  0.58232876615E+02  0.00000000000E+00 0. -1.
         21    1    1    2  506  501  0.35467211801E+02  0.89203147388E+02 -0.39022371843E+03  0.40185777962E+03  0.00000000000E+00 0. -1.
<scales pt_clust_3="91.59936" pt_clust_4="36.68164" pt_clust_5="37.68892" pt_clust_6="14000.00000"></scales>
<clustering>
<clus scale="   36.682">  2  4  1 -1</clus>
<clus scale="   37.689">  1  5  2 -1</clus>
<clus scale="   91.599">  1  3  2 -1</clus>
<clus scale="   37.689">  1  3  2 -1</clus>
</clustering>
</event>
<event>
 6    0  0.1221518E+003  0.9921695E+02  0.7546771E-02  0.1281951E+00
         21   -1    0    0  504  501  0.00000000000E+00  0.00000000000E+00  0.29469780813E+03  0.29469780813E+03  0.00000000000E+00 0.  1.
         21   -1    0    0  505  502 -0.00000000000E+00 -0.00000000000E+00 -0.22589769154E+03  0.22589769154E+03  0.00000000000E+00 0.  1.
         21    1    1    2  503  502  0.46972715588E+02  0.38268592012E+02 -0.12279057305E+03  0.13692496476E+03  0.00000000000E+00 0.  1.
         21    1    1    2  504  503  0.46643446711E+02 -0.12379163999E+03  0.29904604059E+02  0.13562546441E+03  0.00000000000E+00 0.  1.
         21    1    1    2  505  506 -0.59001884336E+02  0.51762626931E+00 -0.34624292601E+01  0.59105657162E+02  0.00000000000E+00 0.  1.
         21    1    1    2  506  501 -0.34614277963E+02  0.85005421707E+02  0.16514851484E+03  0.18893941334E+03  0.00000000000E+00 0.  1.
<scales pt_clust_3="39.35540" pt_clust_4="14000.00000" pt_clust_5="59.00415" pt_clust_6="99.21695"></scales>
<clustering>
<clus scale="   59.004">  2  5  1 -1</clus>
<clus scale="   39.355">  2  3  1 -1</clus>
<clus scale="   99.217">  1  6  2 -1</clus>
<clus scale="   99.217">  1  3  2 -1</clus>
</clustering>
</event>
<event>
 6    0  0.1221518E+003  0.8002232E+02  0.7546771E-02  0.1328988E+00
         21   -1    0    0  503  501  0.00000000000E+00  0.00000000000E+00  0.57949878908E+03  0.57949878908E+03  0.00000000000E+00 0. -1.
         21   -1    0    0  505  502 -0.00000000000E+00 -0.00000000000E+00 -0.55554136720E+02  0.55554136720E+02  0.00000000000E+00 0. -1.
         21    1    1    2  503  504 -0.47628958766E+02  0.52762152397E+02  0.23466767729E+03  0.24519641352E+03  0.00000000000E+00 0. -1.
         21    1    1    2  504  502  0.61141565081E+02  0.49840996661E+02  0.32308715138E+02  0.85242413168E+02  0.00000000000E+00 0. -1.
         21    1    1    2  505  506 -0.35276089947E+02  0.39849884770E+01  0.13560943260E+02  0.38002392519E+02  0.00000000000E+00 0.  1.
         21    1    1    2  506  501  0.21763483632E+02 -0.10658813754E+03  0.24340731668E+03  0.26661170660E+03  0.00000000000E+00 0. -1.
<scales pt_clust_3="80.02232" pt_clust_4="65.57822" pt_clust_5="35.50046" pt_clust_6="14000.00000"></scales>
<clustering>
<clus scale="   35.500">  2  5  1 -1</clus>
<clus scale="   65.578">  2  4  1 -1</clus>
<clus scale="   80.022">  1  3  2 -1</clus>
<clus scale="   80.022">  1  3  2 -1</clus>
</clustering>
</event>
<event>
 6    0  0.1221518E+003  0.1196740E+03  0.7546771E-02  0.1243636E+00
         21   -1    0    0  503  501  0.00000000000E+00  0.00000000000E+00  0.30861317520E+03  0.30861317520E+03  0.00000000000E+00 0.  1.
         21   -1    0    0  505  502 -0.00000000000E+00 -0.00000000000E+00 -0.47176021945E+03  0.47176021945E+03  0.00000000000E+00 0. -1.
         21    1    1    2  503  504  0.13486522549E+02 -0.44029437202E+02  0.23922796115E+03  0.24361957028E+03  0.00000000000E+00 0.  1.
         21    1    1    2  504  506 -0.47163001463E+02  0.10142902758E+03 -0.14196733496E+03  0.18073992514E+03  0.00000000000E+00 0. -1.
         21    1    1    2  505  501  0.99207840601E+02 -0.67881221440E+02 -0.41345716670E+02  0.12712011701E+03  0.00000000000E+00 0.  1.
         21    1    1    2  506  502 -0.65531361687E+02  0.10481631061E+02 -0.21906195377E+03  0.22889378223E+03  0.00000000000E+00 0. -1.
<scales pt_clust_3="46.04864" pt_clust_4="119.67404" pt_clust_5="14000.00000" pt_clust_6="64.95166"></scales>
<clustering>
<clus scale="   46.049">  1  3  2 -1</clus>
<clus scale="   64.952">  2  6  1 -1</clus>
<clus scale="  119.674">  2  4  1 -1</clus>
<clus scale="   46.049">  1  3  2 -1</clus>
</clustering>
</event>
<event>
 6    0  0.1221518E+003  0.1107945E+03  0.7546771E-02  0.1259106E+00
         21   -1    0    0  506  501  0.00000000000E+00  0.00000000000E+00  0.23754074348E+04  0.23754074348E+04  0.00000000000E+00 0.  1.
         21   -1    0    0  503  502 -0.00000000000E+00 -0.00000000000E+00 -0.13489143401E+03  0.13489143401E+03  0.00000000000E+00 0. -1.
         21    1    1    2  503  505  0.31282407007E+02  0.51282523468E+02  0.24614562516E+02  0.64918124506E+02  0.00000000000E+00 0.  1.
         21    1    1    2  504  502 -0.45392007685E+02  0.63903042142E+02 -0.97856884763E+02  0.12537943632E+03  0.00000000000E+00 0. -1.
         21    1    1    2  505  501  0.11180735226E+01 -0.32820306437E+02  0.17306258692E+04  0.17309374113E+04  0.00000000000E+00 0.  1.
         21    1    1    2  506  504  0.12991527155E+02 -0.82365259174E+02  0.58313245378E+03  0.58906389666E+03  0.00000000000E+00 0.  1.
<scales pt_clust_3="58.17883" pt_clust_4="110.79454" pt_clust_5="32.83935" pt_clust_6="14000.00000"></scales>
<clustering>
<clus scale="   32.839">  1  5  2 -1</clus>
<clus scale="   58.179">  2  3  1 -1</clus>
<clus scale="  110.795">  2  4  1 -1</clus>
<clus scale="   32.839">  1  3  2 -1</clus>
</clustering>
</event>
<event>
 6    0  0.1221518E+003  0.1175393E+03  0.7546771E-02  0.1247213E+00
         21   -1    0    0  505  501  0.00000000000E+00  0.00000000000E+00  0.63259647572E+03  0.63259647572E+03  0.00000000000E+00 0.  1.
         21   -1    0    0  504  502 -0.00000000000E+00 -0.00000000000E+00 -0.79303857418E+02  0.79303857418E+02  0.00000000000E+00 0.  1.
         21    1    1    2  503  501 -0.38654735232E+01  0.39477346162E+02  0.66184166256E+02  0.77160524937E+02  0.00000000000E+00 0. -1.
         21    1    1    2  504  503 -0.39471579332E+02  0.10375461534E+03  0.34612803417E+02  0.11628014422E+03  0.00000000000E+00 0.  1.
         21    1    1    2  505  506 -0.28441034997E+02 -0.33459088573E+02  0.34801407957E+03  0.35077372002E+03  0.00000000000E+00 0.  1.
         21    1    1    2  506  502  0.71778087852E+02 -0.10977287293E+03  0.10448156906E+03  0.16768594396E+03  0.00000000000E+00 0.  1.
<scales pt_clust_3="39.66614" pt_clust_4="14000.00000" pt_clust_5="32.09842" pt_clust_6="117.53925"></scales>
<clustering>
<clus scale="   39.666">  1  3  2 -1</clus>
<clus scale="   32.098">  1  5  2 -1</clus>
<clus scale="  117.539">  1  6  2 -1</clus>
<clus scale="   39.666">  1  3  2 -1</clus>
</clustering>
</event>
<event>
 6    0  0.1221518E+003  0.9101532E+02  0.7546771E-02  0.1300411E+00
         21   -1    0    0  505  501  0.00000000000E+00  0.00000000000E+00  0.14284746760E+03  0.14284746760E+03  0.00000000000E+00 0. -1.
         21   -1    0    0  506  502 -0.00000000000E+00 -0.00000000000E+00 -0.25802598673E+03  0.25802598673E+03  0.00000000000E+00 0. -1.
         21    1    1    2  503  501  0.45527162536E+02 -0.21832384517E+02  0.58101966278E+02  0.76975411838E+02  0.00000000000E+00 0. -1.
         21    1    1    2  504  503 -0.80697608770E+02 -0.38267021188E+02 -0.30541304429E+02  0.94388771832E+02  0.00000000000E+00 0. -1.
         21    1    1    2  505  502  0.87390658402E+02  0.49949432002E+02 -0.30298631530E+02  0.10511936076E+03  0.00000000000E+00 0. -1.
         21    1    1    2  506  504 -0.52220212168E+02  0.10149973704E+02 -0.11244054945E+03  0.12438990991E+03  0.00000000000E+00 0. -1.
<scales pt_clust_3="50.49134" pt_clust_4="91.01532" pt_clust_5="14000.00000" pt_clust_6="49.33179"></scales>
<clustering>
<clus scale="   50.491">  1  3  2 -1</clus>
<clus scale="   49.332">  2  6  1 -1</clus>
<clus scale="   91.015">  1  4  2 -1</clus>
<clus scale="   50.491">  1  3  2 -1</clus>
</clustering>
</event>
<event>
 6    0  0.1221518E+003  0.1132697E+03  0.7546771E-02  0.1254632E+00
         21   -1    0    0  505  501  0.00000000000E+00  0.00000000000E+00  0.13278202801E+04  0.13278202801E+04  0.00000000000E+00 0. -1.
         21   -1    0    0  504  502 -0.00000000000E+00 -0.00000000000E+00 -0.14588022277E+03  0.14588022277E+03  0.00000000000E+00 0.  1.
         21    1    1    2  503  502  0.60007062294E+02  0.10642872331E+03  0.14833670734E+02  0.12307704277E+03  0.00000000000E+00 0.  1.
         21    1    1    2  504  506 -0.35338896383E+02 -0.86844011893E-01 -0.74826281252E+02  0.82751540804E+02  0.00000000000E+00 0.  1.
         21    1    1    2  505  503  0.70368858718E+02 -0.34132719390E+01  0.82560365900E+03  0.82860414460E+03  0.00000000000E+00 0. -1.
         21    1    1    2  506  501 -0.95037024630E+02 -0.10292860736E+03  0.41632900881E+03  0.43926777464E+03  0.00000000000E+00 0. -1.
<scales pt_clust_3="113.26967" pt_clust_4="35.33900" pt_clust_5="69.66240" pt_clust_6="14000.00000"></scales>
<clustering>
<clus scale="   35.339">  2  4  1 -1</clus>
<clus scale="   69.662">  1  5  2 -1</clus>
<clus scale="  113.270">  2  3  1 -1</clus>
<clus scale="   69.662">  1  3  2 -1</clus>
</clustering>
</event>
<event>
 6    0  0.1221518E+003  0.8878542E+02  0.7546771E-02  0.1305820E+00
         21   -1    0    0  503  501  0.00000000000E+00  0.00000000000E+00  0.42891493990E+03  0.42891493990E+03  0.00000000000E+00 0. -1.
         21   -1    0    0  504  502 -0.00000000000E+00 -0.00000000000E+00 -0.13850584680E+03  0.13850584680E+03  0.00000000000E+00 0. -1.
         21    1    1    2  503  506 -0.13413750326E+02  0.54593954567E+02  0.24204347641E+03  0.24848636391E+03  0.00000000000E+00 0. -1.
         21    1    1    2  504  505 -0.57483572105E+02  0.50351207199E+02 -0.42011616797E+00  0.76418463907E+02  0.00000000000E+00 0. -1.
         21    1    1    2  505  501  0.41741099314E+02 -0.12825487799E+03  0.10781626903E+03  0.17267304644E+03  0.00000000000E+00 0. -1.
         21    1    1    2  506  502  0.29156223118E+02  0.23309716226E+02 -0.59030536177E+02  0.69842912442E+02  0.00000000000E+00 0.  1.
<scales pt_clust_3="56.91871" pt_clust_4="88.78542" pt_clust_5="14000.00000" pt_clust_6="37.32865"></scales>
<clustering>
<clus scale="   37.329">  2  6  1 -1</clus>
<clus scale="   56.919">  1  3  2 -1</clus>
<clus scale="   88.785">  2  4  1 -1</clus>
<clus scale="   56.919">  1  3  2 -1</clus>
</clustering>
</event>
<event>
 6    0  0.1221518E+003  0.1092486E+03  0.7546771E-02  0.1261968E+00
         21   -1    0    0  504  501  0.00000000000E+00  0.00000000000E+00  0.16038013299E+03  0.16038013299E+03  0.00000000000E+00 0.  1.
         21   -1    0    0  505  502 -0.00000000000E+00 -0.00000000000E+00 -0.15894445231E+03  0.15894445231E+03  0.00000000000E+00 0. -1.
         21    1    1    2  503  502  0.25972258952E+02  0.38978423142E+02 -0.14912755815E+01  0.46862560841E+02  0.00000000000E+00 0.  1.
         21    1    1    2  504  503 -0.11781914106E+03 -0.38329628749E+01 -0.75370854889E+02  0.13991714466E+03  0.00000000000E+00 0. -1.
         21    1    1    2  505  506  0.32571342055E+02 -0.21850102554E+02  0.54845865133E+02  0.67426910259E+02  0.00000000000E+00 0.  1.
         21    1    1    2  506  501  0.59275540049E+02 -0.13295357713E+02  0.23451946011E+02  0.65117969536E+02  0.00000000000E+00 0.  1.
<scales pt_clust_3="46.83883" pt_clust_4="100.83999" pt_clust_5="33.77201" pt_clust_6="33.77201"></scales>
<clustering>
<clus scale="   33.772">  5  6 -1 -1</clus>
<clus scale="   46.839">  2  3  1 -1</clus>
<clus scale="  100.840">  2  4  1 -1</clus>
<clus scale="  109.249">  1  3  2 -1</clus>
</clustering>
</event>
<event>
 6    0  0.1221518E+003  0.1204162E+03  0.7546771E-02  0.1242412E+00
         21   -1    0    0  506  501  0.00000000000E+00  0.00000000000E+00  0.76428180459E+02  0.76428180459E+02  0.00000000000E+00 0. -1.
         21   -1    0    0  503  502 -0.00000000000E+00 -0.00000000000E+00 -0.29711703091E+03  0.29711703091E+03  0.00000000000E+00 0. -1.
         21    1    1    2  503  501 -0.18431815695E+02  0.11319619318E+03 -0.38651204550E+02  0.12102489659E+03  0.00000000000E+00 0. -1.
         21    1    1    2  504  502 -0.43446550823E+02 -0.11405856708E+02 -0.77511104384E+02  0.89586090709E+02  0.00000000000E+00 0. -1.
         21    1    1    2  505  504  0.23874548539E+02 -0.61251506648E+02 -0.75950247621E+02  0.10044989422E+03  0.00000000000E+00 0. -1.
         21    1    1    2  506  505  0.38003817979E+02 -0.40538829826E+02 -0.28576293894E+02  0.62484329854E+02  0.00000000000E+00 0. -1.
<scales pt_clust_3="114.31755" pt_clust_4="44.91877" pt_clust_5="34.78550" pt_clust_6="34.78550"></scales>
<clustering>
<clus scale="   34.785">  5  6 -1 -1</clus>
<clus scale="   44.919">  2  4  1 -1</clus>
<clus scale="  114.318">  1  3  2 -1</clus>
<clus scale="  114.318">  1  3  2 -1</clus>
</clustering>
</event>
<event>
 6    0  0.1221518E+003  0.9749309E+02  0.7546771E-02  0.1285658E+00
         21   -1    0    0  504  501  0.00000000000E+00  0.00000000000E+00  0.44367600768E+03  0.44367600768E+03  0.00000000000E+00 0. -1.
         21   -1    0    0  505  502 -0.00000000000E+00 -0.00000000000E+00 -0.14702464747E+03  0.14702464747E+03  0.00000000000E+00 0. -1.
         21    1    1    2  503  506 -0.12291198878E+03  0.61615007982E+02  0.77609602570E+02  0.15788292057E+03  0.00000000000E+00 0. -1.
         21    1    1    2  504  502  0.44077293884E+02  0.27513916769E+02  0.24078575861E+03  0.24632824645E+03  0.00000000000E+00 0. -1.
         21    1    1    2  505  503  0.47038206078E+02 -0.80653773018E+02 -0.77769893725E+02  0.12151452713E+03  0.00000000000E+00 0. -1.
         21    1    1    2  506  501  0.31796488823E+02 -0.84751517328E+01  0.56025892751E+02  0.64974961000E+02  0.00000000000E+00 0. -1.
<scales pt_clust_3="97.49309" pt_clust_4="67.98933" pt_clust_5="14000.00000" pt_clust_6="32.90661"></scales>
<clustering>
<clus scale="   32.907">  1  6  2 -1</clus>
<clus scale="   67.989">  1  4  2 -1</clus>
<clus scale="   97.493">  1  3  2 -1</clus>
<clus scale="   32.907">  1  3  2 -1</clus>
</clustering>
</event>
<event>
 6    0  0.1221518E+003  0.1216360E+03  0.7546771E-02  0.1240422E+00
         21   -1    0    0  506  501  0.00000000000E+00  0.00000000000E+00  0.55450956760E+02  0.55450956760E+02  0.00000000000E+00 0.  1.
         21   -1    0    0  504  502 -0.00000000000E+00 -0.00000000000E+00 -0.13255155732E+04  0.13255155732E+04  0.00000000000E+00 0.  1.
         21    1    1    2  503  501 -0.84660425920E+02 -0.58558655573E+01 -0.13152904454E+03  0.15652976853E+03  0.00000000000E+00 0.  1.
         21    1    1    2  504  503  0.97254480610E+02 -0.74316380196E+02 -0.11305310523E+04  0.11371375548E+04  0.00000000000E+00 0.  1.
         21    1    1    2  505  502  0.81163575488E+01  0.42773563543E+02 -0.93430089899E+01  0.44528022806E+02  0.00000000000E+00 0.  1.
         21    1    1    2  506  505 -0.20710412238E+02  0.37398682210E+02  0.13384894366E+01  0.42771183758E+02  0.00000000000E+00 0.  1.
<scales pt_clust_3="84.86271" pt_clust_4="117.57734" pt_clust_5="30.87619" pt_clust_6="30.87619"></scales>
<clustering>
<clus scale="   30.876">  5  6 -1 -1</clus>
<clus scale="   84.863">  1  3  2 -1</clus>
<clus scale="  117.577">  2  4  1 -1</clus>
<clus scale="   84.863">  1  3  2 -1</clus>
</clustering>
</event>
<event>
 6    0  0.1221518E+003  0.8631870E+02  0.7546771E-02  0.1312020E+00
         21   -1    0    0  505  501  0.00000000000E+00  0.00000000000E+00  0.10180459932E+03  0.10180459932E+03  0.00000000000E+00 0. -1.
         21   -1    0    0  503  502 -0.00000000000E+00 -0.00000000000E+00 -0.79789637765E+03  0.79789637765E+03  0.00000000000E+00 0. -1.
         21    1    1    2  503  504  0.95880864990E+02  0.23498670689E+02 -0.53158385119E+03  0.54067246892E+03  0.00000000000E+00 0. -1.
         21    1    1    2  504  501 -0.36395367951E+02  0.39717475957E+01  0.60021660242E+02  0.70306452659E+02  0.00000000000E+00 0. -1.
         21    1    1    2  505  506  0.13211194047E+02 -0.51268615952E+02 -0.15273184979E+01  0.52965454133E+02  0.00000000000E+00 0. -1.
         21    1    1    2  506  502 -0.72696691086E+02  0.23798197668E+02 -0.22300226888E+03  0.23575660125E+03  0.00000000000E+00 0. -1.
<scales pt_clust_3="86.31870" pt_clust_4="36.61144" pt_clust_5="50.02552" pt_clust_6="14000.00000"></scales>
<clustering>
<clus scale="   36.611">  1  4  2 -1</clus>
<clus scale="   50.026">  1  5  2 -1</clus>
<clus scale="   86.319">  2  3  1 -1</clus>
<clus scale="   36.611">  1  3  2 -1</clus>
</clustering>
</event>
<event>
 6    0  0.1221518E+003  0.1150166E+03  0.7546771E-02  0.1251552E+00
         21   -1    0    0  505  501  0.00000000000E+00  0.00000000000E+00  0.21703088060E+04  0.21703088060E+04  0.00000000000E+00 0. -1.
         21   -1    0    0  506  502 -0.00000000000E+00 -0.00000000000E+00 -0.26032928536E+02  0.26032928536E+02  0.00000000000E+00 0.  1.
         21    1    1    2  503  502  0.48395733697E+02  0.15759007253E+02  0.20037980849E+03  0.20674274110E+03  0.00000000000E+00 0. -1.
         21    1    1    2  504  503 -0.53416893566E+02  0.85814392829E+01  0.10077279725E+04  0.10091792072E+04  0.00000000000E+00 0. -1.
         21    1    1    2  505  504 -0.34685236510E+02  0.51364595467E+02  0.87029196775E+03  0.87249612975E+03  0.00000000000E+00 0. -1.
         21    1    1    2  506  501  0.39706396380E+02 -0.75705042003E+02  0.65876128710E+02  0.10792365650E+03  0.00000000000E+00 0.  1.
<scales pt_clust_3="50.89689" pt_clust_4="45.65313" pt_clust_5="45.65313" pt_clust_6="104.12086"></scales>
<clustering>
<clus scale="   45.653">  4  5 -1 -1</clus>
<clus scale="   50.897">  2  3  1 -1</clus>
<clus scale="  104.121">  2  6  1 -1</clus>
<clus scale="  115.017">  1  3  2 -1</clus>
</clustering>
</event>
<event>
 6    0  0.1221518E+003  0.6558347E+02  0.7546771E-02  0.1375790E+00
         21   -1    0    0  504  501  0.00000000000E+00  0.00000000000E+00  0.58771473529E+03  0.58771473529E+03  0.00000000000E+00 0.  1.
         21   -1    0    0  505  502 -0.00000000000E+00 -0.00000000000E+00 -0.38668386559E+03  0.38668386559E+03  0.00000000000E+00 0. -1.
         21    1    1    2  503  501  0.50512654275E+02 -0.28286897425E+02  0.46381799993E+03  0.46741717327E+03  0.00000000000E+00 0.  1.
         21    1    1    2  504  506  0.12398124264E+02  0.48078595799E+02  0.88758423722E+02  0.10170212702E+03  0.00000000000E+00 0.  1.
         21    1    1    2  505  503 -0.91394668674E+02 -0.55453467937E+02 -0.34244073974E+03  0.35873908737E+03  0.00000000000E+00 0. -1.
         21    1    1    2  506  502  0.28483890134E+02  0.35661769563E+02 -0.91048142102E+01  0.46540213228E+02  0.00000000000E+00 0.  1.
<scales pt_clust_3="14000.00000" pt_clust_4="50.40359" pt_clust_5="65.58347" pt_clust_6="45.64092"></scales>
<clustering>
<clus scale="   45.641">  2  6  1 -1</clus>
<clus scale="   50.404">  1  4  2 -1</clus>
<clus scale="   65.583">  2  5  1 -1</clus>
<clus scale="   50.404">  1  3  2 -1</clus>
</clustering>
</event>
<event>
 6    0  0.1221518E+003  0.8360872E+02  0.7546771E-02  0.1319111E+00
         21   -1    0    0  503  501  0.00000000000E+00  0.00000000000E+00  0.38258014479E+03  0.38258014479E+03  0.00000000000E+00 0. -1.
         21   -1    0    0  506  502 -0.00000000000E+00 -0.00000000000E+00 -0.81922440506E+03  0.81922440506E+03  0.00000000000E+00 0. -1.
         21    1    1    2  503  504 -0.27025575502E+02  0.23725450757E+02  0.66614535032E+02  0.75701882555E+02  0.00000000000E+00 0. -1.
         21    1    1    2  504  502 -0.42707201316E+02 -0.22191642045E+02 -0.62859891305E+02  0.79169059334E+02  0.00000000000E+00 0.  1.
         21    1    1    2  505  501 -0.84865125601E+01 -0.98312785015E+02  0.28983523373E+03  0.30617296958E+03  0.00000000000E+00 0. -1.
         21    1    1    2  506  505  0.78219289378E+02  0.96778976303E+02 -0.73023413772E+03  0.74076063839E+03  0.00000000000E+00 0. -1.
<scales pt_clust_3="35.96218" pt_clust_4="48.47816" pt_clust_5="83.60872" pt_clust_6="14000.00000"></scales>
<clustering>
<clus scale="   35.962">  1  3  2 -1</clus>
<clus scale="   48.478">  2  4  1 -1</clus>
<clus scale="   83.609">  1  5  2 -1</clus>
<clus scale="   35.962">  1  3  2 -1</clus>
</clustering>
</event>
<event>
 6    0  0.1221518E+003  0.1059002E+03  0.7546771E-02  0.1268356E+00
         21   -1    0    0  506  501  0.00000000000E+00  0.00000000000E+00  0.55073945460E+02  0.55073945460E+02  0.00000000000E+00 0. -1.
         21   -1    0    0  505  502 -0.00000000000E+00 -0.00000000000E+00 -0.22241840234E+04  0.22241840234E+04  0.00000000000E+00 0. -1.
         21    1    1    2  503  504 -0.51250116192E+02  0.57252171618E+02 -0.16741785836E+03  0.18420945921E+03  0.00000000000E+00 0. -1.
         21    1    1    2  504  502 -0.57590224815E+02  0.33764369613E+02 -0.18425370354E+04  0.18437460219E+04  0.00000000000E+00 0. -1.
         21    1    1    2  505  501 -0.10708647474E+02 -0.45517596803E+02 -0.99957252520E+02  0.11035388113E+03  0.00000000000E+00 0. -1.
         21    1    1    2  506  503  0.11954898848E+03 -0.45498944428E+02 -0.59197931729E+02  0.14094860663E+03  0.00000000000E+00 0. -1.
<scales pt_clust_3="105.90016" pt_clust_4="66.59342" pt_clust_5="46.76031" pt_clust_6="14000.00000"></scales>
<clustering>
<clus scale="   46.760">  1  5  2 -1</clus>
<clus scale="   66.593">  2  4  1 -1</clus>
<clus scale="  105.900">  2  3  1 -1</clus>
<clus scale="   46.760">  1  3  2 -1</clus>
</clustering>
</event>
<event>
 6    0  0.1221518E+003  0.1264549E+03  0.7546771E-02  0.1232813E+00
         21   -1    0    0  505  501  0.00000000000E+00  0.00000000000E+00  0.28439296078E+03  0.28439296078E+03  0.00000000000E+00 0.  1.
         21   -1    0    0  506  502 -0.00000000000E+00 -0.00000000000E+00 -0.18712051299E+04  0.18712051299E+04  0.00000000000E+00 0.  1.
         21    1    1    2  503  502 -0.34121977674E+02  0.13056830611E+03 -0.14812659568E+04  0.14874008292E+04  0.00000000000E+00 0.  1.
         21    1    1    2  504  501 -0.46469547559E+01 -0.52863638083E+02  0.20763951624E+02  0.56985086706E+02  0.00000000000E+00 0. -1.
         21    1    1    2  505  503 -0.11131192610E+02 -0.73685915349E+02  0.23495746855E+03  0.24649245343E+03  0.00000000000E+00 0.  1.
         21    1    1    2  506  504  0.49900125040E+02 -0.40187526744E+01 -0.36126763253E+03  0.36471972138E+03  0.00000000000E+00 0.  1.
<scales pt_clust_3="14000.00000" pt_clust_4="53.06650" pt_clust_5="126.45492" pt_clust_6="50.06169"></scales>
<clustering>
<clus scale="   50.062">  2  6  1 -1</clus>
<clus scale="   53.066">  1  4  2 -1</clus>
<clus scale="  126.455">  1  5  2 -1</clus>
<clus scale="   53.066">  1  3  2 -1</clus>
</clustering>
</event>
<event>
 6    0  0.1221518E+003  0.2225171E+03  0.7546771E-02  0.1132020E+00
         21   -1    0    0  503  501  0.00000000000E+00  0.00000000000E+00  0.21771651731E+03  0.21771651731E+03  0.00000000000E+00 0.  1.
         21   -1    0    0  505  502 -0.00000000000E+00 -0.00000000000E+00 -0.86687831060E+03  0.86687831060E+03  0.00000000000E+00 0.  1.
         21    1    1    2  503  504  0.58739999894E+02  0.22479234504E+02 -0.14582287599E+02  0.64562734477E+02  0.00000000000E+00 0.  1.
         21    1    1    2  504  506  0.17034027435E+03 -0.12111459387E+03  0.35869598532E+01  0.20903927907E+03  0.00000000000E+00 0.  1.
         21    1    1    2  505  501 -0.10329450923E+02  0.39240608881E+02  0.62531693988E+02  0.74543515444E+02  0.00000000000E+00 0.  1.
         21    1    1    2  506  502 -0.21875082332E+03  0.59394750490E+02 -0.70069815953E+03  0.73644929891E+03  0.00000000000E+00 0.  1.
<scales pt_clust_3="63.98563" pt_clust_4="14000.00000" pt_clust_5="40.57737" pt_clust_6="222.51712"></scales>
<clustering>
<clus scale="   40.577">  1  5  2 -1</clus>
<clus scale="   63.986">  1  3  2 -1</clus>
<clus scale="  222.517">  2  6  1 -1</clus>
<clus scale="   40.577">  1  3  2 -1</clus>
</clustering>
</event>
<event>
 6    0  0.1221518E+003  0.9215701E+02  0.7546771E-02  0.1297711E+00
         21   -1    0    0  504  501  0.00000000000E+00  0.00000000000E+00  0.95412300138E+02  0.95412300138E+02  0.00000000000E+00 0.  1.
         21   -1    0    0  506  502 -0.00000000000E+00 -0.00000000000E+00 -0.32216519053E+03  0.32216519053E+03  0.00000000000E+00 0.  1.
         21    1    1    2  503  505  0.47732086214E+02  0.80199557513E+02 -0.14201679679E+03  0.16993849373E+03  0.00000000000E+00 0.  1.
         21    1    1    2  504  502  0.30424498924E+02 -0.11538246376E+03 -0.75163520282E+01  0.11956278111E+03  0.00000000000E+00 0.  1.
         21    1    1    2  505  501 -0.36575635793E+02  0.28792524688E+02 -0.82287811874E+01  0.47270492396E+02  0.00000000000E+00 0.  1.
         21    1    1    2  506  503 -0.41580949345E+02  0.63903815624E+01 -0.68990960384E+02  0.80805723433E+02  0.00000000000E+00 0.  1.
<scales pt_clust_3="14000.00000" pt_clust_4="92.15701" pt_clust_5="50.71223" pt_clust_6="42.06914"></scales>
<clustering>
<clus scale="   42.069">  2  6  1 -1</clus>
<clus scale="   50.712">  1  5  2 -1</clus>
<clus scale="   92.157">  1  4  2 -1</clus>
<clus scale="   50.712">  1  3  2 -1</clus>
</clustering>
</event>
<event>
 6    0  0.1221518E+003  0.1268708E+03  0.7546771E-02  0.1232174E+00
         21   -1    0    0  506  501  0.00000000000E+00  0.00000000000E+00  0.84317482647E+02  0.84317482647E+02  0.00000000000E+00 0.  1.
         21   -1    0    0  503  502 -0.00000000000E+00 -0.00000000000E+00 -0.51686609329E+03  0.51686609329E+03  0.00000000000E+00 0.  1.
         21    1    1    2  503  504 -0.31051384905E+02 -0.17466922946E+02 -0.94216296230E+02  0.10072731694E+03  0.00000000000E+00 0.  1.
         21    1    1    2  504  505 -0.46275622199E+02  0.12409185566E+03 -0.13570622398E+03  0.18962173155E+03  0.00000000000E+00 0.  1.
         21    1    1    2  505  501 -0.56338817344E+02 -0.50975048884E+02 -0.21519413985E+02  0.78965835186E+02  0.00000000000E+00 0.  1.
         21    1    1    2  506  502  0.13366582445E+03 -0.55649883832E+02 -0.18110667645E+03  0.23186869226E+03  0.00000000000E+00 0.  1.
<scales pt_clust_3="35.62698" pt_clust_4="14000.00000" pt_clust_5="80.14496" pt_clust_6="126.87084"></scales>
<clustering>
<clus scale="   35.627">  2  3  1 -1</clus>
<clus scale="   80.145">  1  5  2 -1</clus>
<clus scale="  126.871">  2  6  1 -1</clus>
<clus scale="   80.145">  1  3  2 -1</clus>
</clustering>
</event>
<event>
 6    0  0.1221518E+003  0.9876984E+02  0.7546771E-02  0.1282904E+00
         21   -1    0    0  505  501  0.00000000000E+00  0.00000000000E+00  0.11972010043E+03  0.11972010043E+03  0.00000000000E+00 0. -1.
         21   -1    0    0  504  502 -0.00000000000E+00 -0.00000000000E+00 -0.15740665257E+04  0.15740665257E+04  0.00000000000E+00 0. -1.
         21    1    1    2  503  501 -0.85276906357E+02 -0.36540667014E+02  0.90226450943E+02  0.12941477332E+03  0.00000000000E+00 0. -1.
         21    1    1    2  504  506  0.48750930568E+02  0.58934933509E+02 -0.38614095813E+03  0.39364300980E+03  0.00000000000E+00 0. -1.
         21    1    1    2  505  502  0.19647583903E+02 -0.89018091905E+02 -0.84191833081E+03  0.84683925511E+03  0.00000000000E+00 0. -1.
         21    1    1    2  506  503  0.16878391885E+02  0.66623825409E+02 -0.31651358727E+03  0.32388958791E+03  0.00000000000E+00 0. -1.
<scales pt_clust_3="93.26346" pt_clust_4="30.82488" pt_clust_5="91.16056" pt_clust_6="30.82488"></scales>
<clustering>
<clus scale="   30.825">  4  6 -1 -1</clus>
<clus scale="   91.161">  2  5  1 -1</clus>
<clus scale="   93.263">  1  3  2 -1</clus>
<clus scale="   93.263">  1  3  2 -1</clus>
</clustering>
</event>
<event>
 6    0  0.1221518E+003  0.9603115E+02  0.7546771E-02  0.1288870E+00
         21   -1    0    0  506  501  0.00000000000E+00  0.00000000000E+00  0.11211233548E+04  0.11211233548E+04  0.00000000000E+00 0. -1.
         21   -1    0    0  504  502 -0.00000000000E+00 -0.00000000000E+00 -0.51887071902E+03  0.51887071902E+03  0.00000000000E+00 0. -1.
         21    1    1    2  503  502 -0.91196275369E+02 -0.26611891734E+02 -0.46903867364E+03  0.47856267175E+03  0.00000000000E+00 0. -1.
         21    1    1    2  504  505  0.12306114712E+03  0.36804686457E+01  0.72627793977E+02  0.14294190511E+03  0.00000000000E+00 0. -1.
         21    1    1    2  505  501 -0.17411056506E+01  0.31485011835E+02  0.98294611007E+03  0.98345177447E+03  0.00000000000E+00 0. -1.
         21    1    1    2  506  503 -0.30123766096E+02 -0.85535887467E+01  0.15717405365E+02  0.35037722467E+02  0.00000000000E+00 0. -1.
<scales pt_clust_3="14000.00000" pt_clust_4="96.03115" pt_clust_5="37.34532" pt_clust_6="31.31462"></scales>
<clustering>
<clus scale="   31.315">  1  6  2 -1</clus>
<clus scale="   37.345">  1  5  2 -1</clus>
<clus scale="   96.031">  1  4  2 -1</clus>
<clus scale="   31.315">  1  3  2 -1</clus>
</clustering>
</event>
<event>
 6    0  0.1221518E+003  0.1578240E+03  0.7546771E-02  0.1191176E+00
         21   -1    0    0  503  501  0.00000000000E+00  0.00000000000E+00  0.58899287894E+03  0.58899287894E+03  0.00000000000E+00 0.  1.
         21   -1    0    0  506  502 -0.00000000000E+00 -0.00000000000E+00 -0.17878720549E+03  0.17878720549E+03  0.00000000000E+00 0.  1.
         21    1    1    2  503  504 -0.21447411684E+02 -0.32142517515E+02  0.22575423780E+03  0.22903735238E+03  0.00000000000E+00 0.  1.
         21    1    1    2  504  502 -0.26527541776E+02 -0.10061168482E+03  0.23517538255E+03  0.25716508735E+03  0.00000000000E+00 0.  1.
         21    1    1    2  505  501  0.30904209536E+02  0.15863869730E+03  0.55528128287E+02  0.17089376664E+03  0.00000000000E+00 0.  1.
         21    1    1    2  506  505  0.17070743924E+02 -0.25884494956E+02 -0.10625207519E+03  0.11068387805E+03  0.00000000000E+00 0.  1.
<scales pt_clust_3="38.14108" pt_clust_4="38.14108" pt_clust_5="144.55789" pt_clust_6="31.00673"></scales>
<clustering>
<clus scale="   31.007">  2  6  1 -1</clus>
<clus scale="   38.141">  3  4 -1 -1</clus>
<clus scale="  144.558">  2  5  1 -1</clus>
<clus scale="  157.824">  1  3  2 -1</clus>
</clustering>
</event>
<event>
 6    0  0.1221518E+003  0.7071922E+02  0.7546771E-02  0.1357664E+00
         21   -1    0    0  506  501  0.00000000000E+00  0.00000000000E+00  0.11141643483E+03  0.11141643483E+03  0.00000000000E+00 0. -1.
         21   -1    0    0  505  502 -0.00000000000E+00 -0.00000000000E+00 -0.14373659733E+04  0.14373659733E+04  0.00000000000E+00 0. -1.
         21    1    1    2  503  502 -0.76772680988E+01 -0.53813853516E+02 -0.11574042879E+04  0.11586800926E+04  0.00000000000E+00 0. -1.
         21    1    1    2  504  503 -0.57632643547E+02  0.72112271802E+02 -0.23270477381E+03  0.25034618651E+03  0.00000000000E+00 0. -1.
         21    1    1    2  505  501  0.91163936835E+02 -0.26354809107E+01  0.60177905241E+02  0.10926659791E+03  0.00000000000E+00 0. -1.
         21    1    1    2  506  504 -0.25854025189E+02 -0.15662937376E+02  0.39816180258E+01  0.30489531118E+02  0.00000000000E+00 0. -1.
<scales pt_clust_3="54.48871" pt_clust_4="70.71922" pt_clust_5="14000.00000" pt_clust_6="30.22843"></scales>
<clustering>
<clus scale="   30.228">  1  6  2 -1</clus>
<clus scale="   54.489">  2  3  1 -1</clus>
<clus scale="   70.719">  2  4  1 -1</clus>
<clus scale="   30.228">  1  3  2 -1</clus>
</clustering>
</event>
<event>
 6    0  0.1221518E+003  0.7235252E+02  0.7546771E-02  0.1352271E+00
         21   -1    0    0  505  501  0.00000000000E+00  0.00000000000E+00  0.34653245137E+03  0.34653245137E+03  0.00000000000E+00 0. -1.
         21   -1    0    0  504  502 -0.00000000000E+00 -0.00000000000E+00 -0.29817854254E+03  0.29817854254E+03  0.00000000000E+00 0.  1.
         21    1    1    2  503  502  0.49323219797E+02  0.21835520785E+02 -0.25373933298E+03  0.25940936583E+03  0.00000000000E+00 0.  1.
         21    1    1    2  504  501 -0.67279859109E+02  0.76980215240E+01  0.27927527157E+02  0.73251523877E+02  0.00000000000E+00 0.  1.
         21    1    1    2  505  506  0.53962573587E+02  0.42351465298E+02  0.12314901225E+03  0.14096554607E+03  0.00000000000E+00 0. -1.
         21    1    1    2  506  503 -0.36005934275E+02 -0.71885007607E+02  0.15101670241E+03  0.17108455812E+03  0.00000000000E+00 0. -1.
<scales pt_clust_3="53.94043" pt_clust_4="44.91187" pt_clust_5="72.35252" pt_clust_6="14000.00000"></scales>
<clustering>
<clus scale="   53.940">  2  3  1 -1</clus>
<clus scale="   44.912">  2  4  1 -1</clus>
<clus scale="   72.353">  1  5  2 -1</clus>
<clus scale="   72.353">  1  3  2 -1</clus>
</clustering>
</event>
<event>
 6    0  0.1221518E+003  0.1012373E+03  0.7546771E-02  0.1277715E+00
         21   -1    0    0  504  501  0.00000000000E+00  0.00000000000E+00  0.87895408636E+02  0.87895408636E+02  0.00000000000E+00 0.  1.
         21   -1    0    0  505  502 -0.00000000000E+00 -0.00000000000E+00 -0.33959528732E+03  0.33959528732E+03  0.00000000000E+00 0. -1.
         21    1    1    2  503  506 -0.34095700233E+02 -0.83105518283E+02 -0.15834010631E+02  0.91212717513E+02  0.00000000000E+00 0.  1.
         21    1    1    2  504  502 -0.43734006377E+02  0.15493233570E+02 -0.45931262242E+02  0.65286939363E+02  0.00000000000E+00 0.  1.
         21    1    1    2  505  503  0.48294579699E+02  0.93453430240E+02 -0.20381801746E+03  0.22936367257E+03  0.00000000000E+00 0. -1.
         21    1    1    2  506  501  0.29535126911E+02 -0.25841145526E+02  0.13883411649E+02  0.41627366513E+02  0.00000000000E+00 0.  1.
<scales pt_clust_3="14000.00000" pt_clust_4="40.59568" pt_clust_5="101.23732" pt_clust_6="39.24396"></scales>
<clustering>
<clus scale="   39.244">  1  6  2 -1</clus>
<clus scale="   40.596">  1  4  2 -1</clus>
<clus scale="  101.237">  2  5  1 -1</clus>
<clus scale="   39.244">  1  3  2 -1</clus>
</clustering>
</event>
<event>
 6    0  0.1221518E+003  0.1219072E+03  0.7546771E-02  0.1239984E+00
         21   -1    0    0  504  501  0.00000000000E+00  0.00000000000E+00  0.58680764297E+03  0.58680764297E+03  0.00000000000E+00 0. -1.
         21   -1    0    0  506  502 -0.00000000000E+00 -0.00000000000E+00 -0.37829203099E+03  0.37829203099E+03  0.00000000000E+00 0.  1.
         21    1    1    2  503  502 -0.15404881676E+03  0.46952201806E+02 -0.23961998528E+03  0.28870968904E+03  0.00000000000E+00 0.  1.
         21    1    1    2  504  503  0.41200895230E+02  0.25413602560E+01  0.21937953395E+03  0.22322937126E+03  0.00000000000E+00 0.  1.
         21    1    1    2  505  501  0.20218739793E+02 -0.46376320080E+02  0.31948290097E+03  0.32346388441E+03  0.00000000000E+00 0. -1.
         21    1    1    2  506  505  0.92629181734E+02 -0.31172419819E+01 -0.90726837664E+02  0.12969672925E+03  0.00000000000E+00 0. -1.
<scales pt_clust_3="121.90719" pt_clust_4="41.27920" pt_clust_5="71.66425" pt_clust_6="14000.00000"></scales>
<clustering>
<clus scale="   41.279">  1  4  2 -1</clus>
<clus scale="   71.664">  1  5  2 -1</clus>
<clus scale="  121.907">  1  3  2 -1</clus>
<clus scale="   41.279">  1  3  2 -1</clus>
</clustering>
</event>
<event>
 6    0  0.1221518E+003  0.1045691E+03  0.7546771E-02  0.1270971E+00
         21   -1    0    0  502  501  0.00000000000E+00  0.00000000000E+00  0.24172772187E+03  0.24172772187E+03  0.00000000000E+00 0.  1.
         21   -1    0    0  506  502 -0.00000000000E+00 -0.00000000000E+00 -0.12581756651E+04  0.12581756651E+04  0.00000000000E+00 0.  1.
         21    1    1    2  503  504  0.92676289363E+02 -0.33851826661E+02 -0.82543843251E+01  0.99009977472E+02  0.00000000000E+00 0.  1.
         21    1    1    2  504  505 -0.10777300968E+03 -0.15980651172E+02 -0.85112272755E+02  0.13825520533E+03  0.00000000000E+00 0.  1.
         21    1    1    2  505  501  0.66087165090E+02  0.96161445105E+01  0.16220271568E+03  0.17541295448E+03  0.00000000000E+00 0.  1.
         21    1    1    2  506  503 -0.50990444773E+02  0.40216333323E+02 -0.10852840019E+04  0.10872252497E+04  0.00000000000E+00 0.  1.
<scales pt_clust_3="104.56907" pt_clust_4="14000.00000" pt_clust_5="65.09218" pt_clust_6="64.94135"></scales>
<clustering>
<clus scale="   64.941">  2  6  1 -1</clus>
<clus scale="   65.092">  1  5  2 -1</clus>
<clus scale="  104.569">  2  3  1 -1</clus>
<clus scale="   65.092">  1  3  2 -1</clus>
</clustering>
</event>
<event>
 6    0  0.1221518E+003  0.6751624E+02  0.7546771E-02  0.1368749E+00
         21   -1    0    0  503  501  0.00000000000E+00  0.00000000000E+00  0.11741485848E+04  0.11741485848E+04  0.00000000000E+00 0. -1.
         21   -1    0    0  505  502 -0.00000000000E+00 -0.00000000000E+00 -0.51840495838E+02  0.51840495838E+02  0.00000000000E+00 0.  1.
         21    1    1    2  503  506  0.63550246381E+02 -0.21123893857E+02  0.96509991140E+03  0.96742063844E+03  0.00000000000E+00 0. -1.
         21    1    1    2  504  501  0.28067930898E+02 -0.59367959804E+02  0.72533284362E+02  0.97843961166E+02  0.00000000000E+00 0.  1.
         21    1    1    2  505  504 -0.20608686128E+02  0.31856538267E+02  0.60348226275E+02  0.71284397934E+02  0.00000000000E+00 0.  1.
         21    1    1    2  506  502 -0.71009491152E+02  0.48635315394E+02  0.24326666903E+02  0.89440083071E+02  0.00000000000E+00 0.  1.
<scales pt_clust_3="67.51624" pt_clust_4="55.42187" pt_clust_5="37.94149" pt_clust_6="14000.00000"></scales>
<clustering>
<clus scale="   37.941">  2  5  1 -1</clus>
<clus scale="   55.422">  2  4  1 -1</clus>
<clus scale="   67.516">  1  3  2 -1</clus>
<clus scale="   67.516">  1  3  2 -1</clus>
</clustering>
</event>
<event>
 6    0  0.1221518E+003  0.1049402E+03  0.7546771E-02  0.1270237E+00
         21   -1    0    0  505  501  0.00000000000E+00  0.00000000000E+00  0.34371868944E+03  0.34371868944E+03  0.00000000000E+00 0. -1.
         21   -1    0    0  503  502 -0.00000000000E+00 -0.00000000000E+00 -0.40777174375E+03  0.40777174375E+03  0.00000000000E+00 0.  1.
         21    1    1    2  503  506  0.64398556335E+02  0.47787213433E+02 -0.35365450775E+03  0.36263246225E+03  0.00000000000E+00 0.  1.
         21    1    1    2  504  502 -0.22831725702E+02  0.50587793476E+02 -0.10876922499E+02  0.56557227569E+02  0.00000000000E+00 0.  1.
         21    1    1    2  505  504 -0.30625827638E+02  0.98224118687E+01  0.53212979567E+02  0.62177506285E+02  0.00000000000E+00 0.  1.
         21    1    1    2  506  501 -0.10941002995E+02 -0.10819741878E+03  0.24726539637E+03  0.27012323709E+03  0.00000000000E+00 0. -1.
<scales pt_clust_3="104.94020" pt_clust_4="57.25418" pt_clust_5="32.16242" pt_clust_6="14000.00000"></scales>
<clustering>
<clus scale="   32.162">  1  5  2 -1</clus>
<clus scale="   57.254">  2  4  1 -1</clus>
<clus scale="  104.940">  2  3  1 -1</clus>
<clus scale="   32.162">  1  3  2 -1</clus>
</clustering>
</event>
<event>
 6    0  0.1221518E+003  0.6263728E+02  0.7546771E-02  0.1387086E+00
         21   -1    0    0  506  501  0.00000000000E+00  0.00000000000E+00  0.13634552054E+04  0.13634552054E+04  0.00000000000E+00 0. -1.
         21   -1    0    0  503  502 -0.00000000000E+00 -0.00000000000E+00 -0.14230898501E+03  0.14230898501E+03  0.00000000000E+00 0. -1.
         21    1    1    2  503  504  0.37075632413E+02  0.99814638656E+02 -0.39023206660E+02  0.11340359459E+03  0.00000000000E+00 0. -1.
         21    1    1    2  504  501 -0.26908511510E+02  0.16674433022E+02  0.11639682540E+04  0.11643986435E+04  0.00000000000E+00 0. -1.
         21    1    1    2  505  502 -0.22817501747E+02 -0.45648004043E+02 -0.45925853251E+02  0.68655390582E+02  0.00000000000E+00 0. -1.
         21    1    1    2  506  505  0.12650380843E+02 -0.70841067636E+02  0.14212702635E+03  0.15930656176E+03  0.00000000000E+00 0. -1.
<scales pt_clust_3="62.63728" pt_clust_4="31.65604" pt_clust_5="50.90041" pt_clust_6="14000.00000"></scales>
<clustering>
<clus scale="   31.656">  1  4  2 -1</clus>
<clus scale="   50.900">  2  5  1 -1</clus>
<clus scale="   62.637">  2  3  1 -1</clus>
<clus scale="   31.656">  1  3  2 -1</clus>
</clustering>
</event>
<event>
 6    0  0.1221518E+003  0.1054794E+03  0.7546771E-02  0.1269178E+00
         21   -1    0    0  506  501  0.00000000000E+00  0.00000000000E+00  0.32109965447E+03  0.32109965447E+03  0.00000000000E+00 0. -1.
         21   -1    0    0  504  502 -0.00000000000E+00 -0.00000000000E+00 -0.95244521358E+02  0.95244521358E+02  0.00000000000E+00 0.  1.
         21    1    1    2  503  505 -0.47321227487E+02  0.94210476536E+01  0.66845916537E+02  0.82440471053E+02  0.00000000000E+00 0. -1.
         21    1    1    2  504  503  0.66527189533E+02  0.71635803965E+01 -0.39807583206E+02  0.77857738934E+02  0.00000000000E+00 0.  1.
         21    1    1    2  505  501 -0.36591565596E+02  0.66784121444E+02  0.91445402007E+02  0.11900135755E+03  0.00000000000E+00 0. -1.
         21    1    1    2  506  502  0.17385603550E+02 -0.83368749494E+02  0.10737139777E+03  0.13704460830E+03  0.00000000000E+00 0.  1.
<scales pt_clust_3="41.16199" pt_clust_4="66.91176" pt_clust_5="41.16199" pt_clust_6="91.93378"></scales>
<clustering>
<clus scale="   41.162">  3  5 -1 -1</clus>
<clus scale="   66.912">  2  4  1 -1</clus>
<clus scale="   91.934">  1  6  2 -1</clus>
<clus scale="   91.934">  1  3  2 -1</clus>
</clustering>
</event>
<event>
 6    0  0.1221518E+003  0.6526474E+02  0.7546771E-02  0.1376978E+00
         21   -1    0    0  505  501  0.00000000000E+00  0.00000000000E+00  0.35178130788E+03  0.35178130788E+03  0.00000000000E+00 0.  1.
         21   -1    0    0  506  502 -0.00000000000E+00 -0.00000000000E+00 -0.10740134089E+04  0.10740134089E+04  0.00000000000E+00 0.  1.
         21    1    1    2  503  501  0.20712200174E+02  0.22337426990E+02  0.17062673050E+03  0.17332465791E+03  0.00000000000E+00 0.  1.
         21    1    1    2  504  502  0.58412730783E+02 -0.13482282742E+02 -0.12990303953E+03  0.14306858056E+03  0.00000000000E+00 0. -1.
         21    1    1    2  505  504 -0.23754669385E+02 -0.86266231708E+02  0.15905276988E+03  0.18249364553E+03  0.00000000000E+00 0. -1.
         21    1    1    2  506  503 -0.55370261572E+02  0.77411087460E+02 -0.92200856186E+03  0.92690783278E+03  0.00000000000E+00 0.  1.
<scales pt_clust_3="30.46237" pt_clust_4="60.51114" pt_clust_5="65.26474" pt_clust_6="14000.00000"></scales>
<clustering>
<clus scale="   30.462">  1  3  2 -1</clus>
<clus scale="   60.511">  2  4  1 -1</clus>
<clus scale="   65.265">  1  5  2 -1</clus>
<clus scale="   30.462">  1  3  2 -1</clus>
</clustering>
</event>
<event>
 6    0  0.1221518E+003  0.8793004E+02  0.7546771E-02  0.1307943E+00
         21   -1    0    0  505  501  0.00000000000E+00  0.00000000000E+00  0.31156991401E+03  0.31156991401E+03  0.00000000000E+00 0.  1.
         21   -1    0    0  506  502 -0.00000000000E+00 -0.00000000000E+00 -0.13858918122E+04  0.13858918122E+04  0.00000000000E+00 0.  1.
         21    1    1    2  503  501  0.62679578506E+02 -0.36681467948E+02  0.20763717455E+03  0.21997148886E+03  0.00000000000E+00 0.  1.
         21    1    1    2  504  502  0.45220098602E+02  0.13369062908E+02 -0.97987649427E+03  0.98101046538E+03  0.00000000000E+00 0.  1.
         21    1    1    2  505  504 -0.15095265740E+03  0.32967314899E+02  0.33423892536E+02  0.15808448760E+03  0.00000000000E+00 0.  1.
         21    1    1    2  506  503  0.43052980294E+02 -0.96549098595E+01 -0.33550647100E+03  0.33839528436E+03  0.00000000000E+00 0. -1.
<scales pt_clust_3="72.87128" pt_clust_4="87.93004" pt_clust_5="14000.00000" pt_clust_6="44.12229"></scales>
<clustering>
<clus scale="   44.122">  2  6  1 -1</clus>
<clus scale="   72.871">  1  3  2 -1</clus>
<clus scale="   87.930">  2  4  1 -1</clus>
<clus scale="   72.871">  1  3  2 -1</clus>
</clustering>
</event>
<event>
 6    0  0.1221518E+003  0.1020018E+03  0.7546771E-02  0.1276142E+00
         21   -1    0    0  503  501  0.00000000000E+00  0.00000000000E+00  0.52972120644E+03  0.52972120644E+03  0.00000000000E+00 0. -1.
         21   -1    0    0  505  502 -0.00000000000E+00 -0.00000000000E+00 -0.12136041500E+03  0.12136041500E+03  0.00000000000E+00 0.  1.
         21    1    1    2  503  506  0.23809214301E+02 -0.35616653567E+02  0.21043758917E+03  0.21475428664E+03  0.00000000000E+00 0. -1.
         21    1    1    2  504  502 -0.12651844083E+03 -0.39329451204E+02 -0.35185899971E+02  0.13708307393E+03  0.00000000000E+00 0.  1.
         21    1    1    2  505  501  0.26593193979E+02  0.23642877445E+02 -0.11967257274E+02  0.37541961411E+02  0.00000000000E+00 0. -1.
         21    1    1    2  506  504  0.76116032552E+02  0.51303227327E+02  0.24507635952E+03  0.26170229946E+03  0.00000000000E+00 0. -1.
<scales pt_clust_3="42.74016" pt_clust_4="102.00183" pt_clust_5="35.58347" pt_clust_6="14000.00000"></scales>
<clustering>
<clus scale="   35.583">  2  5  1 -1</clus>
<clus scale="   42.740">  1  3  2 -1</clus>
<clus scale="  102.002">  2  4  1 -1</clus>
<clus scale="   42.740">  1  3  2 -1</clus>
</clustering>
</event>
<event>
 6    0  0.1221518E+003  0.1302701E+03  0.7546771E-02  0.1227056E+00
         21   -1    0    0  506  501  0.00000000000E+00  0.00000000000E+00  0.56843957722E+02  0.56843957722E+02  0.00000000000E+00 0.  1.
         21   -1    0    0  504  502 -0.00000000000E+00 -0.00000000000E+00 -0.13149431718E+04  0.13149431718E+04  0.00000000000E+00 0.  1.
         21    1    1    2  503  501  0.28664602672E+02 -0.83141337853E+02 -0.11377307235E+03  0.14380004693E+03  0.00000000000E+00 0.  1.
         21    1    1    2  504  503  0.89880349650E+02 -0.79018871269E+02 -0.75132886341E+03  0.76080057851E+03  0.00000000000E+00 0.  1.
         21    1    1    2  505  502 -0.84342901644E+02  0.17189921832E+03 -0.38608705740E+03  0.43095972225E+03  0.00000000000E+00 0.  1.
         21    1    1    2  506  505 -0.34202050677E+02 -0.97390091963E+01 -0.69102209666E+01  0.36226781868E+02  0.00000000000E+00 0.  1.
<scales pt_clust_3="88.16368" pt_clust_4="130.27010" pt_clust_5="14000.00000" pt_clust_6="35.56162"></scales>
<clustering>
<clus scale="   35.562">  1  6  2 -1</clus>
<clus scale="   88.164">  1  3  2 -1</clus>
<clus scale="  130.270">  2  4  1 -1</clus>
<clus scale="   35.562">  1  3  2 -1</clus>
</clustering>
</event>
<event>
 6    0  0.1221518E+003  0.6952055E+02  0.7546771E-02  0.1361731E+00
         21   -1    0    0  505  501  0.00000000000E+00  0.00000000000E+00  0.11294266098E+04  0.11294266098E+04  0.00000000000E+00 0.  1.
         21   -1    0    0  504  502 -0.00000000000E+00 -0.00000000000E+00 -0.96252014367E+02  0.96252014367E+02  0.00000000000E+00 0.  1.
         21    1    1    2  503  502  0.28297244899E+02 -0.61961094237E+02 -0.45040339738E+02  0.81661150321E+02  0.00000000000E+00 0.  1.
         21    1    1    2  504  501 -0.21427806100E+02 -0.29593395443E+02  0.88068086524E+03  0.88143843025E+03  0.00000000000E+00 0.  1.
         21    1    1    2  505  506  0.67683663305E+02  0.44027341652E+02  0.12196705202E+03  0.14627182527E+03  0.00000000000E+00 0.  1.
         21    1    1    2  506  503 -0.74553102103E+02  0.47527148029E+02  0.75567017873E+02  0.11630721828E+03  0.00000000000E+00 0.  1.
<scales pt_clust_3="69.52055" pt_clust_4="36.53656" pt_clust_5="62.73147" pt_clust_6="14000.00000"></scales>
<clustering>
<clus scale="   36.537">  1  4  2 -1</clus>
<clus scale="   62.731">  1  5  2 -1</clus>
<clus scale="   69.521">  2  3  1 -1</clus>
<clus scale="   36.537">  1  3  2 -1</clus>
</clustering>
</event>
<event>
 6    0  0.1221518E+003  0.1180235E+03  0.7546771E-02  0.1246394E+00
         21   -1    0    0  505  501  0.00000000000E+00  0.00000000000E+00  0.26335467490E+03  0.26335467490E+03  0.00000000000E+00 0. -1.
         21   -1    0    0  506  502 -0.00000000000E+00 -0.00000000000E+00 -0.82494324227E+03  0.82494324227E+03  0.00000000000E+00 0. -1.
         21    1    1    2  503  501  0.19034205721E+02 -0.15811306247E+03 -0.10929292263E+03  0.19315016037E+03  0.00000000000E+00 0. -1.
         21    1    1    2  504  502 -0.24778481457E+02 -0.26662237817E+02 -0.21371493767E+03  0.21679234915E+03  0.00000000000E+00 0. -1.
         21    1    1    2  505  504 -0.75826649287E+02  0.70263345893E+02  0.19600383513E+03  0.22159449882E+03  0.00000000000E+00 0. -1.
         21    1    1    2  506  503  0.81570925024E+02  0.11451195440E+03 -0.43458454221E+03  0.45676090883E+03  0.00000000000E+00 0. -1.
<scales pt_clust_3="118.02351" pt_clust_4="36.39846" pt_clust_5="103.38004" pt_clust_6="14000.00000"></scales>
<clustering>
<clus scale="   36.398">  2  4  1 -1</clus>
<clus scale="  103.380">  1  5  2 -1</clus>
<clus scale="  118.024">  1  3  2 -1</clus>
<clus scale="  103.380">  1  3  2 -1</clus>
</clustering>
</event>
<event>
 6    0  0.1221518E+003  0.1042969E+03  0.7546771E-02  0.1271511E+00
         21   -1    0    0  506  501  0.00000000000E+00  0.00000000000E+00  0.34463153583E+03  0.34463153583E+03  0.00000000000E+00 0. -1.
         21   -1    0    0  505  502 -0.00000000000E+00 -0.00000000000E+00 -0.84882116105E+03  0.84882116105E+03  0.00000000000E+00 0.  1.
         21    1    1    2  503  504 -0.13881323166E+03  0.50765434745E+02  0.82408433353E+02  0.16922586249E+03  0.00000000000E+00 0. -1.
         21    1    1    2  504  502  0.44152757301E+01 -0.56175002776E+02 -0.30092534881E+03  0.30615550159E+03  0.00000000000E+00 0.  1.
         21    1    1    2  505  501  0.38674265496E+02 -0.44073048207E+01 -0.49035542708E+03  0.49189792439E+03  0.00000000000E+00 0.  1.
         21    1    1    2  506  503  0.95723690432E+02  0.98168728521E+01  0.20468271732E+03  0.22617340841E+03  0.00000000000E+00 0. -1.
<scales pt_clust_3="104.29688" pt_clust_4="70.54226" pt_clust_5="38.92458" pt_clust_6="14000.00000"></scales>
<clustering>
<clus scale="   38.925">  2  5  1 -1</clus>
<clus scale="   70.542">  2  4  1 -1</clus>
<clus scale="  104.297">  2  3  1 -1</clus>
<clus scale="  104.297">  1  3  2 -1</clus>
</clustering>
</event>
<event>
 6    0  0.1221518E+003  0.1351372E+03  0.7546771E-02  0.1220026E+00
         21   -1    0    0  506  501  0.00000000000E+00  0.00000000000E+00  0.49513910814E+03  0.49513910814E+03  0.00000000000E+00 0. -1.
         21   -1    0    0  504  502 -0.00000000000E+00 -0.00000000000E+00 -0.82204739917E+03  0.82204739917E+03  0.00000000000E+00 0.  1.
         21    1    1    2  503  505 -0.13650227430E+02  0.10849703316E+03  0.40865830982E+03  0.42303610850E+03  0.00000000000E+00 0. -1.
         21    1    1    2  504  503  0.48690375469E+02 -0.30471526188E+02 -0.70326928096E+03  0.70561104591E+03  0.00000000000E+00 0.  1.
         21    1    1    2  505  501 -0.50826545971E+02  0.26636562378E+02  0.30989264448E+02  0.65216399331E+02  0.00000000000E+00 0. -1.
         21    1    1    2  506  502  0.15786397932E+02 -0.10466206935E+03 -0.63286584344E+02  0.12332295357E+03  0.00000000000E+00 0. -1.
<scales pt_clust_3="135.13717" pt_clust_4="57.28938" pt_clust_5="57.38331" pt_clust_6="14000.00000"></scales>
<clustering>
<clus scale="   57.383">  1  5  2 -1</clus>
<clus scale="   57.289">  2  4  1 -1</clus>
<clus scale="  135.137">  1  3  2 -1</clus>
<clus scale="   57.383">  1  3  2 -1</clus>
</clustering>
</event>
<event>
 6    0  0.1221518E+003  0.8682832E+02  0.7546771E-02  0.1310719E+00
         21   -1    0    0  506  501  0.00000000000E+00  0.00000000000E+00  0.51464580135E+03  0.51464580135E+03  0.00000000000E+00 0.  1.
         21   -1    0    0  505  502 -0.00000000000E+00 -0.00000000000E+00 -0.66002816536E+02  0.66002816536E+02  0.00000000000E+00 0. -1.
         21    1    1    2  503  504  0.10987654682E+03  0.35157606939E+02  0.27358959615E+03  0.29691780005E+03  0.00000000000E+00 0.  1.
         21    1    1    2  504  501 -0.31267977790E+02 -0.20457692666E+02  0.15510243519E+03  0.15953986658E+03  0.00000000000E+00 0.  1.
         21    1    1    2  505  503 -0.78912594828E+01  0.35162169889E+02  0.50509253915E+01  0.36389037015E+02  0.00000000000E+00 0. -1.
         21    1    1    2  506  502 -0.70717309551E+02 -0.49862084162E+02  0.14900028076E+02  0.87801914237E+02  0.00000000000E+00 0. -1.
<scales pt_clust_3="86.82832" pt_clust_4="36.83834" pt_clust_5="36.03679" pt_clust_6="14000.00000"></scales>
<clustering>
<clus scale="   36.037">  2  5  1 -1</clus>
<clus scale="   36.838">  1  4  2 -1</clus>
<clus scale="   86.828">  1  3  2 -1</clus>
<clus scale="   36.838">  1  3  2 -1</clus>
</clustering>
</event>
<event>
 6    0  0.1221518E+003  0.1554017E+03  0.7546771E-02  0.1193988E+00
         21   -1    0    0  505  501  0.00000000000E+00  0.00000000000E+00  0.95002141664E+03  0.95002141664E+03  0.00000000000E+00 0.  1.
         21   -1    0    0  504  502 -0.00000000000E+00 -0.00000000000E+00 -0.14755307038E+03  0.14755307038E+03  0.00000000000E+00 0.  1.
         21    1    1    2  503  506  0.61499465733E+02  0.69775771021E+00  0.44111059305E+02  0.75686568850E+02  0.00000000000E+00 0. -1.
         21    1    1    2  504  501 -0.11197269724E+03  0.15359463088E+03  0.16251272133E+03  0.25007914778E+03  0.00000000000E+00 0.  1.
         21    1    1    2  505  503  0.11919007816E+02 -0.15262733458E+03  0.67050748305E+03  0.68776264135E+03  0.00000000000E+00 0.  1.
         21    1    1    2  506  502  0.38554223686E+02 -0.16650540021E+01 -0.74662917422E+02  0.84046129041E+02  0.00000000000E+00 0.  1.
<scales pt_clust_3="70.42534" pt_clust_4="155.40170" pt_clust_5="14000.00000" pt_clust_6="38.59016"></scales>
<clustering>
<clus scale="   38.590">  2  6  1 -1</clus>
<clus scale="   70.425">  2  3  1 -1</clus>
<clus scale="  155.402">  2  4  1 -1</clus>
<clus scale="  155.402">  1  3  2 -1</clus>
</clustering>
</event>
<event>
 6    0  0.1221518E+003  0.8549707E+02  0.7546771E-02  0.1314138E+00
         21   -1    0    0  503  501  0.00000000000E+00  0.00000000000E+00  0.15116553838E+03  0.15116553838E+03  0.00000000000E+00 0.  1.
         21   -1    0    0  504  502 -0.00000000000E+00 -0.00000000000E+00 -0.12033111931E+04  0.12033111931E+04  0.00000000000E+00 0.  1.
         21    1    1    2  503  505 -0.96079308556E+00  0.34675190597E+02  0.10194847573E+03  0.10768836367E+03  0.00000000000E+00 0.  1.
         21    1    1    2  504  506 -0.63657985631E+02  0.11119972189E+03 -0.88041752943E+03  0.88969249936E+03  0.00000000000E+00 0.  1.
         21    1    1    2  505  502  0.20060656965E+02 -0.46203654414E+02 -0.23643513339E+03  0.24174114243E+03  0.00000000000E+00 0. -1.
         21    1    1    2  506  501  0.44558121751E+02 -0.99671258075E+02 -0.37241467588E+02  0.11535472599E+03  0.00000000000E+00 0. -1.
<scales pt_clust_3="34.68850" pt_clust_4="14000.00000" pt_clust_5="48.53377" pt_clust_6="85.49707"></scales>
<clustering>
<clus scale="   34.688">  1  3  2 -1</clus>
<clus scale="   48.534">  2  5  1 -1</clus>
<clus scale="   85.497">  1  6  2 -1</clus>
<clus scale="   34.688">  1  3  2 -1</clus>
</clustering>
</event>
<event>
 6    0  0.1221518E+003  0.1326274E+03  0.7546771E-02  0.1223608E+00
         21   -1    0    0  503  501  0.00000000000E+00  0.00000000000E+00  0.60856151106E+02  0.60856151106E+02  0.00000000000E+00 0.  1.
         21   -1    0    0  506  502 -0.00000000000E+00 -0.00000000000E+00 -0.17503269345E+04  0.17503269345E+04  0.00000000000E+00 0.  1.
         21    1    1    2  503  504 -0.37633547861E+02  0.24859509654E+02 -0.62977331548E+02  0.77462400129E+02  0.00000000000E+00 0.  1.
         21    1    1    2  504  502 -0.13016881394E+03 -0.43371924396E+01 -0.13122584742E+04  0.13187058181E+04  0.00000000000E+00 0.  1.
         21    1    1    2  505  501  0.24985084934E+02 -0.57424762499E+02  0.55284486569E+01  0.62868287409E+02  0.00000000000E+00 0.  1.
         21    1    1    2  506  505  0.14281727687E+03  0.36902445284E+02 -0.31976342630E+03  0.35214658005E+03  0.00000000000E+00 0.  1.
<scales pt_clust_3="45.10298" pt_clust_4="132.62739" pt_clust_5="41.57924" pt_clust_6="14000.00000"></scales>
<clustering>
<clus scale="   45.103">  1  3  2 -1</clus>
<clus scale="   41.579">  1  5  2 -1</clus>
<clus scale="  132.627">  2  4  1 -1</clus>
<clus scale="   45.103">  1  3  2 -1</clus>
</clustering>
</event>
<event>
 6    0  0.1221518E+003  0.1254037E+03  0.7546771E-02  0.1234440E+00
         21   -1    0    0  503  501  0.00000000000E+00  0.00000000000E+00  0.40474592326E+03  0.40474592326E+03  0.00000000000E+00 0. -1.
         21   -1    0    0  505  502 -0.00000000000E+00 -0.00000000000E+00 -0.29100861343E+03  0.29100861343E+03  0.00000000000E+00 0. -1.
         21    1    1    2  503  504 -0.10195618787E+03 -0.29510647663E+02 -0.10002897200E+03  0.14584833838E+03  0.00000000000E+00 0. -1.
         21    1    1    2  504  502 -0.84591315392E+00 -0.45948815008E+02 -0.42585596552E+02  0.62654147535E+02  0.00000000000E+00 0. -1.
         21    1    1    2  505  506  0.90241455177E+02  0.14075566727E+03 -0.49406972295E+02  0.17434657156E+03  0.00000000000E+00 0. -1.
         21    1    1    2  506  501  0.12560645845E+02 -0.65296204602E+02  0.30575885067E+03  0.31290547922E+03  0.00000000000E+00 0. -1.
<scales pt_clust_3="14000.00000" pt_clust_4="45.95660" pt_clust_5="125.40366" pt_clust_6="67.16744"></scales>
<clustering>
<clus scale="   45.957">  2  4  1 -1</clus>
<clus scale="   67.167">  1  6  2 -1</clus>
<clus scale="  125.404">  1  5  2 -1</clus>
<clus scale="   67.167">  1  3  2 -1</clus>
</clustering>
</event>
<event>
 6    0  0.1221518E+003  0.1424795E+03  0.7546771E-02  0.1210031E+00
         21   -1    0    0  505  501  0.00000000000E+00  0.00000000000E+00  0.28648051766E+03  0.28648051766E+03  0.00000000000E+00 0.  1.
         21   -1    0    0  506  502 -0.00000000000E+00 -0.00000000000E+00 -0.96682561992E+02  0.96682561992E+02  0.00000000000E+00 0.  1.
         21    1    1    2  503  502 -0.18312526904E+01 -0.73596692507E+02  0.76635982293E+02  0.10626805925E+03  0.00000000000E+00 0.  1.
         21    1    1    2  504  501  0.86992914455E+02  0.75621338106E+02  0.57867077201E+02  0.12897655820E+03  0.00000000000E+00 0.  1.
         21    1    1    2  505  503 -0.64390582114E+02 -0.45347748745E+02  0.60888519105E+02  0.99548868100E+02  0.00000000000E+00 0.  1.
         21    1    1    2  506  504 -0.20771079651E+02  0.43323103146E+02 -0.55936229285E+01  0.48369594102E+02  0.00000000000E+00 0.  1.
<scales pt_clust_3="63.97917" pt_clust_4="124.03991" pt_clust_5="63.97917" pt_clust_6="48.04507"></scales>
<clustering>
<clus scale="   48.045">  2  6  1 -1</clus>
<clus scale="   63.979">  3  5 -1 -1</clus>
<clus scale="  124.040">  2  4  1 -1</clus>
<clus scale="  142.479">  1  3  2 -1</clus>
</clustering>
</event>
<event>
 6    0  0.1221518E+003  0.8284902E+02  0.7546771E-02  0.1321155E+00
         21   -1    0    0  505  501  0.00000000000E+00  0.00000000000E+00  0.11953760901E+03  0.11953760901E+03  0.00000000000E+00 0. -1.
         21   -1    0    0  503  502 -0.00000000000E+00 -0.00000000000E+00 -0.20090784919E+03  0.20090784919E+03  0.00000000000E+00 0.  1.
         21    1    1    2  503  501  0.39874863539E+02  0.40440530406E+02  0.31699562975E+02  0.65040783625E+02  0.00000000000E+00 0. -1.
         21    1    1    2  504  502 -0.64453656240E+02 -0.67291881809E+02 -0.94029795125E+02  0.13237852368E+03  0.00000000000E+00 0.  1.
         21    1    1    2  505  506  0.33560322461E+02 -0.40989512028E+02 -0.54331154404E+01  0.53253676712E+02  0.00000000000E+00 0. -1.
         21    1    1    2  506  504 -0.89815297599E+01  0.67840863431E+02 -0.13606892593E+02  0.69772474185E+02  0.00000000000E+00 0. -1.
<scales pt_clust_3="14000.00000" pt_clust_4="82.84902" pt_clust_5="52.97580" pt_clust_6="55.81036"></scales>
<clustering>
<clus scale="   52.976">  1  5  2 -1</clus>
<clus scale="   55.810">  1  6  2 -1</clus>
<clus scale="   82.849">  2  4  1 -1</clus>
<clus scale="   52.976">  1  3  2 -1</clus>
</clustering>
</event>
<event>
 6    0  0.1221518E+003  0.7668371E+02  0.7546771E-02  0.1338735E+00
         21   -1    0    0  504  501  0.00000000000E+00  0.00000000000E+00  0.27898622322E+03  0.27898622322E+03  0.00000000000E+00 0. -1.
         21   -1    0    0  505  502 -0.00000000000E+00 -0.00000000000E+00 -0.41529959247E+03  0.41529959247E+03  0.00000000000E+00 0. -1.
         21    1    1    2  503  501 -0.49372817809E+02  0.42907433604E+02  0.86950053376E+02  0.10880732870E+03  0.00000000000E+00 0. -1.
         21    1    1    2  504  502  0.73686273112E+02 -0.52492637139E+02  0.14209873034E+03  0.16845531444E+03  0.00000000000E+00 0. -1.
         21    1    1    2  505  506 -0.29420914781E+02 -0.39156402878E+02 -0.36473698872E+03  0.36801071323E+03  0.00000000000E+00 0. -1.
         21    1    1    2  506  503  0.51074594787E+01  0.48741606412E+02 -0.62516425690E+00  0.49012459317E+02  0.00000000000E+00 0. -1.
<scales pt_clust_3="14000.00000" pt_clust_4="76.68371" pt_clust_5="48.97769" pt_clust_6="30.50154"></scales>
<clustering>
<clus scale="   48.978">  2  5  1 -1</clus>
<clus scale="   30.502">  2  6  1 -1</clus>
<clus scale="   76.684">  2  4  1 -1</clus>
<clus scale="   76.684">  1  3  2 -1</clus>
</clustering>
</event>
<event>
 6    0  0.1221518E+003  0.1311694E+03  0.7546771E-02  0.1225731E+00
         21   -1    0    0  504  501  0.00000000000E+00  0.00000000000E+00  0.57265438476E+03  0.57265438476E+03  0.00000000000E+00 0.  1.
         21   -1    0    0  506  502 -0.00000000000E+00 -0.00000000000E+00 -0.75334079350E+02  0.75334079350E+02  0.00000000000E+00 0.  1.
         21    1    1    2  503  502  0.20849923325E+00 -0.14226180751E+03  0.20517292440E+03  0.24966856881E+03  0.00000000000E+00 0.  1.
         21    1    1    2  504  503 -0.79664341837E+02  0.24739343644E+02  0.14037125500E+03  0.16328665504E+03  0.00000000000E+00 0.  1.
         21    1    1    2  505  501  0.39439366428E+02  0.11828049628E+03  0.14988525594E+03  0.19496494396E+03  0.00000000000E+00 0.  1.
         21    1    1    2  506  505  0.40016476175E+02 -0.75803241989E+00  0.18908700732E+01  0.40068296299E+02  0.00000000000E+00 0.  1.
<scales pt_clust_3="131.16938" pt_clust_4="75.62058" pt_clust_5="14000.00000" pt_clust_6="40.02366"></scales>
<clustering>
<clus scale="   40.024">  2  6  1 -1</clus>
<clus scale="   75.621">  1  4  2 -1</clus>
<clus scale="  131.169">  1  3  2 -1</clus>
<clus scale="   75.621">  1  3  2 -1</clus>
</clustering>
</event>
<event>
 6    0  0.1221518E+003  0.9472186E+02  0.7546771E-02  0.1291804E+00
         21   -1    0    0  506  501  0.00000000000E+00  0.00000000000E+00  0.11201731416E+03  0.11201731416E+03  0.00000000000E+00 0.  1.
         21   -1    0    0  503  502 -0.00000000000E+00 -0.00000000000E+00 -0.75202085968E+03  0.75202085968E+03  0.00000000000E+00 0. -1.
         21    1    1    2  503  505 -0.24388396581E+02  0.23076977796E+02 -0.60834988095E+03  0.60927573269E+03  0.00000000000E+00 0. -1.
         21    1    1    2  504  502 -0.46416406235E+02 -0.91874544185E+02 -0.59764716794E+02  0.11902619884E+03  0.00000000000E+00 0.  1.
         21    1    1    2  505  501  0.28268150101E+02  0.82840598843E+02  0.23951697336E+02  0.90748757193E+02  0.00000000000E+00 0.  1.
         21    1    1    2  506  504  0.42536652715E+02 -0.14043032454E+02  0.41593548820E+01  0.44987485123E+02  0.00000000000E+00 0.  1.
<scales pt_clust_3="33.57590" pt_clust_4="14000.00000" pt_clust_5="94.72186" pt_clust_6="40.51333"></scales>
<clustering>
<clus scale="   33.576">  2  3  1 -1</clus>
<clus scale="   40.513">  1  6  2 -1</clus>
<clus scale="   94.722">  1  5  2 -1</clus>
<clus scale="   40.513">  1  3  2 -1</clus>
</clustering>
</event>
<event>
 6    0  0.1221518E+003  0.1706088E+03  0.7546771E-02  0.1177214E+00
         21   -1    0    0  502  501  0.00000000000E+00  0.00000000000E+00  0.42439766202E+03  0.42439766202E+03  0.00000000000E+00 0.  1.
         21   -1    0    0  505  502 -0.00000000000E+00 -0.00000000000E+00 -0.21028036123E+04  0.21028036123E+04  0.00000000000E+00 0. -1.
         21    1    1    2  503  506  0.52100273026E+02  0.40017476130E+02  0.14133525011E+03  0.15585727371E+03  0.00000000000E+00 0.  1.
         21    1    1    2  504  503 -0.17211892733E+02 -0.27619058985E+03 -0.21263999060E+03  0.34898890638E+03  0.00000000000E+00 0. -1.
         21    1    1    2  505  504 -0.57178331858E+02  0.13989750395E+03 -0.17996197041E+04  0.18059545267E+04  0.00000000000E+00 0. -1.
         21    1    1    2  506  501  0.22289951565E+02  0.96275609771E+02  0.19251849429E+03  0.21640056752E+03  0.00000000000E+00 0.  1.
<scales pt_clust_3="44.71654" pt_clust_4="161.55342" pt_clust_5="151.13131" pt_clust_6="44.71654"></scales>
<clustering>
<clus scale="   44.717">  3  6 -1 -1</clus>
<clus scale="  151.131">  2  5  1 -1</clus>
<clus scale="  161.553">  2  4  1 -1</clus>
<clus scale="  170.609">  1  3  2 -1</clus>
</clustering>
</event>
<event>
 6    0  0.1221518E+003  0.1042822E+03  0.7546771E-02  0.1271540E+00
         21   -1    0    0  504  501  0.00000000000E+00  0.00000000000E+00  0.46643953389E+02  0.46643953389E+02  0.00000000000E+00 0.  1.
         21   -1    0    0  506  502 -0.00000000000E+00 -0.00000000000E+00 -0.55373704472E+03  0.55373704472E+03  0.00000000000E+00 0.  1.
         21    1    1    2  503  505  0.28206598743E+02 -0.39875993044E+02 -0.68954238079E+02  0.84500851966E+02  0.00000000000E+00 0.  1.
         21    1    1    2  504  503  0.94518932853E+01 -0.57700767773E+02 -0.23148079873E+02  0.62885216784E+02  0.00000000000E+00 0.  1.
         21    1    1    2  505  502 -0.63848242544E+02  0.11044159331E+02 -0.29895239479E+03  0.30589394548E+03  0.00000000000E+00 0.  1.
         21    1    1    2  506  501  0.26189750515E+02  0.86532601485E+02 -0.11603837858E+03  0.14710098387E+03  0.00000000000E+00 0.  1.
<scales pt_clust_3="43.83722" pt_clust_4="43.83722" pt_clust_5="64.79639" pt_clust_6="92.59772"></scales>
<clustering>
<clus scale="   43.837">  3  4 -1 -1</clus>
<clus scale="   64.796">  2  5  1 -1</clus>
<clus scale="   92.598">  2  6  1 -1</clus>
<clus scale="  104.282">  1  3  2 -1</clus>
</clustering>
</event>
<event>
 6    0  0.1221518E+003  0.1318112E+03  0.7546771E-02  0.1224793E+00
         21   -1    0    0  505  501  0.00000000000E+00  0.00000000000E+00  0.28164040661E+04  0.28164040661E+04  0.00000000000E+00 0.  1.
         21   -1    0    0  503  502 -0.00000000000E+00 -0.00000000000E+00 -0.85979377372E+02  0.85979377372E+02  0.00000000000E+00 0.  1.
         21    1    1    2  503  506 -0.13183366397E+03 -0.73258198865E+02  0.99313377677E+02  0.18058246217E+03  0.00000000000E+00 0.  1.
         21    1    1    2  504  502  0.10868751358E+03  0.51982944518E+02  0.41009179148E+02  0.12726725778E+03  0.00000000000E+00 0.  1.
         21    1    1    2  505  504  0.92030511458E+01  0.62297457365E+02  0.23297574004E+04  0.23306083357E+04  0.00000000000E+00 0.  1.
         21    1    1    2  506  501  0.13943099250E+02 -0.41022203018E+02  0.26034473146E+03  0.26392538786E+03  0.00000000000E+00 0.  1.
<scales pt_clust_3="131.81124" pt_clust_4="14000.00000" pt_clust_5="33.15625" pt_clust_6="43.32703"></scales>
<clustering>
<clus scale="   43.327">  1  6  2 -1</clus>
<clus scale="   33.156">  1  5  2 -1</clus>
<clus scale="  131.811">  1  3  2 -1</clus>
<clus scale="   43.327">  1  3  2 -1</clus>
</clustering>
</event>
<event>
 6    0  0.1221518E+003  0.7730108E+02  0.7546771E-02  0.1336890E+00
         21   -1    0    0  504  501  0.00000000000E+00  0.00000000000E+00  0.42707678564E+03  0.42707678564E+03  0.00000000000E+00 0.  1.
         21   -1    0    0  503  502 -0.00000000000E+00 -0.00000000000E+00 -0.30238477340E+03  0.30238477340E+03  0.00000000000E+00 0.  1.
         21    1    1    2  503  506  0.26769848109E+02  0.39228438738E+02  0.69817411647E+01  0.48002498719E+02  0.00000000000E+00 0.  1.
         21    1    1    2  504  505  0.67678948824E+02 -0.85623107195E+02  0.44572226422E+02  0.11789164503E+03  0.00000000000E+00 0.  1.
         21    1    1    2  505  502 -0.76143506327E+02  0.11160122425E+02 -0.23788337145E+03  0.25002175965E+03  0.00000000000E+00 0.  1.
         21    1    1    2  506  501 -0.18305290607E+02  0.35234546033E+02  0.31102141610E+03  0.31354565565E+03  0.00000000000E+00 0.  1.
<scales pt_clust_3="52.66171" pt_clust_4="77.30108" pt_clust_5="14000.00000" pt_clust_6="39.70588"></scales>
<clustering>
<clus scale="   39.706">  1  6  2 -1</clus>
<clus scale="   52.662">  1  3  2 -1</clus>
<clus scale="   77.301">  1  4  2 -1</clus>
<clus scale="   39.706">  1  3  2 -1</clus>
</clustering>
</event>
<event>
 6    0  0.1221518E+003  0.1046680E+03  0.7546771E-02  0.1270775E+00
         21   -1    0    0  503  501  0.00000000000E+00  0.00000000000E+00  0.65739430248E+03  0.65739430248E+03  0.00000000000E+00 0.  1.
         21   -1    0    0  504  502 -0.00000000000E+00 -0.00000000000E+00 -0.37957640804E+03  0.37957640804E+03  0.00000000000E+00 0.  1.
         21    1    1    2  503  506 -0.58511508621E+02  0.59149794861E+02  0.36733494441E+03  0.37663942473E+03  0.00000000000E+00 0.  1.
         21    1    1    2  504  501  0.70729265061E+00  0.12456015872E+03  0.17286951876E+03  0.21307182807E+03  0.00000000000E+00 0.  1.
         21    1    1    2  505  502  0.21297013457E+02 -0.10173367123E+03 -0.32277314883E+03  0.33909557391E+03  0.00000000000E+00 0.  1.
         21    1    1    2  506  505  0.36507202514E+02 -0.81976282349E+02  0.60386580097E+02  0.10816388380E+03  0.00000000000E+00 0.  1.
<scales pt_clust_3="83.20033" pt_clust_4="104.66796" pt_clust_5="14000.00000" pt_clust_6="67.31561"></scales>
<clustering>
<clus scale="   83.200">  1  3  2 -1</clus>
<clus scale="   67.316">  1  6  2 -1</clus>
<clus scale="  104.668">  1  4  2 -1</clus>
<clus scale="   83.200">  1  3  2 -1</clus>
</clustering>
</event>
<event>
 6    0  0.1221518E+003  0.1120136E+03  0.7546771E-02  0.1256886E+00
         21   -1    0    0  503  501  0.00000000000E+00  0.00000000000E+00  0.22914287933E+04  0.22914287933E+04  0.00000000000E+00 0.  1.
         21   -1    0    0  505  502 -0.00000000000E+00 -0.00000000000E+00 -0.88788297708E+02  0.88788297708E+02  0.00000000000E+00 0.  1.
         21    1    1    2  503  502  0.13716700352E+02 -0.43840479653E+02  0.12736899077E+04  0.12745179938E+04  0.00000000000E+00 0.  1.
         21    1    1    2  504  506 -0.14204829031E+03 -0.30895647449E+02  0.37923495163E+03  0.40614210118E+03  0.00000000000E+00 0.  1.
         21    1    1    2  505  504  0.97573737072E+02  0.48613909268E+02 -0.34197174286E+02  0.11425144669E+03  0.00000000000E+00 0.  1.
         21    1    1    2  506  501  0.30757852890E+02  0.26122217834E+02  0.58391281056E+03  0.58530554936E+03  0.00000000000E+00 0.  1.
<scales pt_clust_3="44.01887" pt_clust_4="14000.00000" pt_clust_5="112.01356" pt_clust_6="40.35363"></scales>
<clustering>
<clus scale="   40.354">  1  6  2 -1</clus>
<clus scale="   44.019">  1  3  2 -1</clus>
<clus scale="  112.014">  2  5  1 -1</clus>
<clus scale="   40.354">  1  3  2 -1</clus>
</clustering>
</event>
<event>
 6    0  0.1221518E+003  0.9293105E+02  0.7546771E-02  0.1295905E+00
         21   -1    0    0  503  501  0.00000000000E+00  0.00000000000E+00  0.29891380678E+02  0.29891380678E+02  0.00000000000E+00 0. -1.
         21   -1    0    0  504  502 -0.00000000000E+00 -0.00000000000E+00 -0.85139047394E+03  0.85139047394E+03  0.00000000000E+00 0. -1.
         21    1    1    2  503  505 -0.63449619827E+02  0.65828802516E+02 -0.11569890310E+03  0.14746362831E+03  0.00000000000E+00 0. -1.
         21    1    1    2  504  506  0.14931198596E+02 -0.26132959520E+02 -0.24126796502E+03  0.24313803324E+03  0.00000000000E+00 0. -1.
         21    1    1    2  505  502 -0.51606735209E+02 -0.68717342788E+01 -0.13395023380E+03  0.14371200710E+03  0.00000000000E+00 0. -1.
         21    1    1    2  506  501  0.10012515644E+03 -0.32824108717E+02 -0.33058199135E+03  0.34696818596E+03  0.00000000000E+00 0. -1.
<scales pt_clust_3="92.93105" pt_clust_4="30.09771" pt_clust_5="49.88150" pt_clust_6="14000.00000"></scales>
<clustering>
<clus scale="   30.098">  2  4  1 -1</clus>
<clus scale="   49.881">  2  5  1 -1</clus>
<clus scale="   92.931">  1  3  2 -1</clus>
<clus scale="   92.931">  1  3  2 -1</clus>
</clustering>
</event>
<event>
 6    0  0.1221518E+003  0.8336242E+02  0.7546771E-02  0.1319771E+00
         21   -1    0    0  503  501  0.00000000000E+00  0.00000000000E+00  0.38405276376E+02  0.38405276376E+02  0.00000000000E+00 0.  1.
         21   -1    0    0  506  502 -0.00000000000E+00 -0.00000000000E+00 -0.79030142113E+03  0.79030142113E+03  0.00000000000E+00 0.  1.
         21    1    1    2  503  504  0.11704254405E+03 -0.73437590846E+01 -0.27511999154E+03  0.29907172662E+03  0.00000000000E+00 0.  1.
         21    1    1    2  504  502 -0.16034246886E+02  0.30310736945E+02 -0.13826612771E+03  0.14245476446E+03  0.00000000000E+00 0.  1.
         21    1    1    2  505  501 -0.40838509168E+02  0.12180104965E+02 -0.10797011296E+01  0.42629855061E+02  0.00000000000E+00 0.  1.
         21    1    1    2  506  505 -0.60169787994E+02 -0.35147082825E+02 -0.33743032438E+03  0.34455035137E+03  0.00000000000E+00 0.  1.
<scales pt_clust_3="83.36242" pt_clust_4="34.29049" pt_clust_5="43.43195" pt_clust_6="14000.00000"></scales>
<clustering>
<clus scale="   34.290">  2  4  1 -1</clus>
<clus scale="   43.432">  1  5  2 -1</clus>
<clus scale="   83.362">  1  3  2 -1</clus>
<clus scale="   43.432">  1  3  2 -1</clus>
</clustering>
</event>
<event>
 6    0  0.1221518E+003  0.1439293E+03  0.7546771E-02  0.1208137E+00
         21   -1    0    0  505  501  0.00000000000E+00  0.00000000000E+00  0.79405331084E+03  0.79405331084E+03  0.00000000000E+00 0. -1.
         21   -1    0    0  506  502 -0.00000000000E+00 -0.00000000000E+00 -0.13351342134E+03  0.13351342134E+03  0.00000000000E+00 0. -1.
         21    1    1    2  503  502 -0.70093128367E+02  0.24490050972E+02  0.29552096412E+02  0.79913300790E+02  0.00000000000E+00 0. -1.
         21    1    1    2  504  503  0.11956883123E+03  0.91618594218E+01  0.25931447261E+03  0.28570026387E+03  0.00000000000E+00 0. -1.
         21    1    1    2  505  504  0.48500291239E+02  0.31585812274E+01  0.43626483739E+03  0.43896385185E+03  0.00000000000E+00 0. -1.
         21    1    1    2  506  501 -0.97975994098E+02 -0.36810491621E+02 -0.64591516918E+02  0.12298931568E+03  0.00000000000E+00 0. -1.
<scales pt_clust_3="67.44063" pt_clust_4="14000.00000" pt_clust_5="48.60303" pt_clust_6="143.92934"></scales>
<clustering>
<clus scale="   48.603">  1  5  2 -1</clus>
<clus scale="   67.441">  2  3  1 -1</clus>
<clus scale="  143.929">  2  6  1 -1</clus>
<clus scale="   48.603">  1  3  2 -1</clus>
</clustering>
</event>
<event>
 6    0  0.1221518E+003  0.8529233E+02  0.7546771E-02  0.1314670E+00
         21   -1    0    0  503  501  0.00000000000E+00  0.00000000000E+00  0.21920626821E+03  0.21920626821E+03  0.00000000000E+00 0. -1.
         21   -1    0    0  505  502 -0.00000000000E+00 -0.00000000000E+00 -0.27519872418E+03  0.27519872418E+03  0.00000000000E+00 0. -1.
         21    1    1    2  503  504  0.43056352244E+02  0.77678443958E+02  0.16374493039E+03  0.18627987640E+03  0.00000000000E+00 0. -1.
         21    1    1    2  504  506  0.41846969465E+02 -0.54318785374E+02 -0.17607421314E+02  0.70793506646E+02  0.00000000000E+00 0. -1.
         21    1    1    2  505  501 -0.90401352691E+02  0.84814788666E+01 -0.13319526565E+03  0.16119962420E+03  0.00000000000E+00 0. -1.
         21    1    1    2  506  502  0.54980309827E+01 -0.31841137451E+02 -0.68934699406E+02  0.76131985138E+02  0.00000000000E+00 0. -1.
<scales pt_clust_3="85.29233" pt_clust_4="74.87419" pt_clust_5="14000.00000" pt_clust_6="32.31233"></scales>
<clustering>
<clus scale="   32.312">  2  6  1 -1</clus>
<clus scale="   74.874">  2  4  1 -1</clus>
<clus scale="   85.292">  1  3  2 -1</clus>
<clus scale="   85.292">  1  3  2 -1</clus>
</clustering>
</event>
<event>
 6    0  0.1221518E+003  0.1101343E+03  0.7546771E-02  0.1260321E+00
         21   -1    0    0  504  501  0.00000000000E+00  0.00000000000E+00  0.10054804654E+04  0.10054804654E+04  0.00000000000E+00 0.  1.
         21   -1    0    0  506  502 -0.00000000000E+00 -0.00000000000E+00 -0.35762956442E+03  0.35762956442E+03  0.00000000000E+00 0.  1.
         21    1    1    2  503  501  0.48365499917E+02 -0.65742341816E+02  0.94219162827E+03  0.94572001220E+03  0.00000000000E+00 0.  1.
         21    1    1    2  504  505 -0.10148730172E+03 -0.47087341153E+02 -0.40123525159E+02  0.11885616256E+03  0.00000000000E+00 0.  1.
         21    1    1    2  505  502  0.20268856303E+02  0.12081243649E+03 -0.20529837547E+03  0.23906880666E+03  0.00000000000E+00 0.  1.
         21    1    1    2  506  503  0.32852945504E+02 -0.79827535202E+01 -0.48918826650E+02  0.59465048414E+02  0.00000000000E+00 0. -1.
<scales pt_clust_3="81.76732" pt_clust_4="14000.00000" pt_clust_5="110.13435" pt_clust_6="33.80888"></scales>
<clustering>
<clus scale="   33.809">  2  6  1 -1</clus>
<clus scale="   81.767">  1  3  2 -1</clus>
<clus scale="  110.134">  2  5  1 -1</clus>
<clus scale="   81.767">  1  3  2 -1</clus>
</clustering>
</event>
<event>
 6    0  0.1221518E+003  0.1976211E+03  0.7546771E-02  0.1151762E+00
         21   -1    0    0  506  501  0.00000000000E+00  0.00000000000E+00  0.19553273681E+03  0.19553273681E+03  0.00000000000E+00 0.  1.
         21   -1    0    0  503  502 -0.00000000000E+00 -0.00000000000E+00 -0.34970348090E+03  0.34970348090E+03  0.00000000000E+00 0.  1.
         21    1    1    2  503  505  0.55975821384E+01  0.36846522930E+02 -0.12792438424E+03  0.13324281317E+03  0.00000000000E+00 0.  1.
         21    1    1    2  504  501 -0.11673624533E+03  0.73510543326E+02  0.45691699997E+02  0.14532337184E+03  0.00000000000E+00 0.  1.
         21    1    1    2  505  504 -0.54629836556E+02 -0.10695280267E+01  0.23110491754E+01  0.54689156883E+02  0.00000000000E+00 0.  1.
         21    1    1    2  506  502  0.16576849975E+03 -0.10928753823E+03 -0.74249109024E+02  0.21198087582E+03  0.00000000000E+00 0.  1.
<scales pt_clust_3="37.26928" pt_clust_4="34.96539" pt_clust_5="34.96539" pt_clust_6="189.65074"></scales>
<clustering>
<clus scale="   34.965">  4  5 -1 -1</clus>
<clus scale="   37.269">  2  3  1 -1</clus>
<clus scale="  189.651">  2  6  1 -1</clus>
<clus scale="  197.621">  1  3  2 -1</clus>
</clustering>
</event>
<event>
 6    0  0.1221518E+003  0.1865703E+03  0.7546771E-02  0.1161592E+00
         21   -1    0    0  506  501  0.00000000000E+00  0.00000000000E+00  0.18533419211E+04  0.18533419211E+04  0.00000000000E+00 0.  1.
         21   -1    0    0  503  502 -0.00000000000E+00 -0.00000000000E+00 -0.44645443930E+03  0.44645443930E+03  0.00000000000E+00 0. -1.
         21    1    1    2  503  501  0.10048304025E+03  0.88042693504E+02  0.37187515052E+03  0.39514489093E+03  0.00000000000E+00 0.  1.
         21    1    1    2  504  502  0.38670367421E+02 -0.76379999966E+02 -0.35534672575E+03  0.36551415460E+03  0.00000000000E+00 0. -1.
         21    1    1    2  505  504  0.42312108861E+02 -0.11591847246E+03 -0.94588141638E+01  0.12376136707E+03  0.00000000000E+00 0. -1.
         21    1    1    2  506  505 -0.18146551653E+03  0.10425577892E+03  0.13998178712E+04  0.14153759478E+04  0.00000000000E+00 0.  1.
<scales pt_clust_3="131.20396" pt_clust_4="85.61134" pt_clust_5="14000.00000" pt_clust_6="186.57030"></scales>
<clustering>
<clus scale="   85.611">  2  4  1 -1</clus>
<clus scale="  131.204">  1  3  2 -1</clus>
<clus scale="  186.570">  1  6  2 -1</clus>
<clus scale="  131.204">  1  3  2 -1</clus>
</clustering>
</event>
<event>
 6    0  0.1221518E+003  0.1187648E+03  0.7546771E-02  0.1245149E+00
         21   -1    0    0  506  501  0.00000000000E+00  0.00000000000E+00  0.55119426526E+03  0.55119426526E+03  0.00000000000E+00 0.  1.
         21   -1    0    0  503  502 -0.00000000000E+00 -0.00000000000E+00 -0.13838636972E+03  0.13838636972E+03  0.00000000000E+00 0. -1.
         21    1    1    2  503  504 -0.20619226791E+02 -0.25329302617E+02 -0.89762142311E+01  0.33871795147E+02  0.00000000000E+00 0. -1.
         21    1    1    2  504  505 -0.36399959237E+02 -0.37718385364E+01 -0.52236584377E+02  0.63779656207E+02  0.00000000000E+00 0.  1.
         21    1    1    2  505  501 -0.11111642655E+03  0.23116244220E+01  0.38314273315E+03  0.39893678425E+03  0.00000000000E+00 0.  1.
         21    1    1    2  506  502  0.16813561258E+03  0.26789516732E+02  0.90877960995E+02  0.19299239938E+03  0.00000000000E+00 0. -1.
<scales pt_clust_3="32.66077" pt_clust_4="49.40447" pt_clust_5="14000.00000" pt_clust_6="118.76484"></scales>
<clustering>
<clus scale="   32.661">  2  3  1 -1</clus>
<clus scale="   49.404">  2  4  1 -1</clus>
<clus scale="  118.765">  2  6  1 -1</clus>
<clus scale="  118.765">  1  3  2 -1</clus>
</clustering>
</event>
<event>
 6    0  0.1221518E+003  0.1632805E+03  0.7546771E-02  0.1185042E+00
         21   -1    0    0  504  501  0.00000000000E+00  0.00000000000E+00  0.13667264379E+04  0.13667264379E+04  0.00000000000E+00 0. -1.
         21   -1    0    0  506  502 -0.00000000000E+00 -0.00000000000E+00 -0.10843985316E+03  0.10843985316E+03  0.00000000000E+00 0. -1.
         21    1    1    2  503  501 -0.14434781418E+03  0.66300013695E+02  0.10307063384E+04  0.10428746518E+04  0.00000000000E+00 0. -1.
         21    1    1    2  504  502 -0.28985378402E+02 -0.64053950125E+02  0.21486138848E+03  0.22607184024E+03  0.00000000000E+00 0. -1.
         21    1    1    2  505  503  0.13761449452E+03  0.29256092593E+02  0.46111494345E+02  0.14805383469E+03  0.00000000000E+00 0. -1.
         21    1    1    2  506  505  0.35718698065E+02 -0.31502156163E+02 -0.33392636516E+02  0.58165964342E+02  0.00000000000E+00 0. -1.
<scales pt_clust_3="14000.00000" pt_clust_4="71.67280" pt_clust_5="163.28047" pt_clust_6="47.62574"></scales>
<clustering>
<clus scale="   47.626">  2  6  1 -1</clus>
<clus scale="   71.673">  1  4  2 -1</clus>
<clus scale="  163.280">  2  5  1 -1</clus>
<clus scale="   71.673">  1  3  2 -1</clus>
</clustering>
</event>
<event>
 6    0  0.1221518E+003  0.7267900E+02  0.7546771E-02  0.1351213E+00
         21   -1    0    0  503  501  0.00000000000E+00  0.00000000000E+00  0.11440458213E+03  0.11440458213E+03  0.00000000000E+00 0.  1.
         21   -1    0    0  505  502 -0.00000000000E+00 -0.00000000000E+00 -0.77629692320E+03  0.77629692320E+03  0.00000000000E+00 0. -1.
         21    1    1    2  503  502 -0.13125745591E+02  0.10194905107E+03 -0.54525216632E+03  0.55485657524E+03  0.00000000000E+00 0. -1.
         21    1    1    2  504  501  0.43714330440E+02 -0.45247600479E+01  0.78029515720E+02  0.89554572540E+02  0.00000000000E+00 0.  1.
         21    1    1    2  505  506 -0.34291042423E+02 -0.40093173470E+02 -0.17918404279E+03  0.18678934482E+03  0.00000000000E+00 0.  1.
         21    1    1    2  506  504  0.37024575738E+01 -0.57331117549E+02 -0.15485647669E+02  0.59501012724E+02  0.00000000000E+00 0.  1.
<scales pt_clust_3="14000.00000" pt_clust_4="43.94788" pt_clust_5="49.85780" pt_clust_6="72.67900"></scales>
<clustering>
<clus scale="   43.948">  1  4  2 -1</clus>
<clus scale="   49.858">  2  5  1 -1</clus>
<clus scale="   72.679">  1  6  2 -1</clus>
<clus scale="   43.948">  1  3  2 -1</clus>
</clustering>
</event>
<event>
 6    0  0.1221518E+003  0.7565984E+02  0.7546771E-02  0.1341840E+00
         21   -1    0    0  504  501  0.00000000000E+00  0.00000000000E+00  0.33691941227E+03  0.33691941227E+03  0.00000000000E+00 0.  1.
         21   -1    0    0  505  502 -0.00000000000E+00 -0.00000000000E+00 -0.17502657846E+04  0.17502657846E+04  0.00000000000E+00 0.  1.
         21    1    1    2  503  502  0.52347080328E+02 -0.72876276614E+02 -0.76524194224E+03  0.77048452202E+03  0.00000000000E+00 0.  1.
         21    1    1    2  504  503  0.43620239651E+02  0.25185358683E+02  0.22735544046E+02  0.55262397363E+02  0.00000000000E+00 0. -1.
         21    1    1    2  505  506 -0.75199917378E+02  0.13852542429E+02 -0.96328266811E+03  0.96631279573E+03  0.00000000000E+00 0.  1.
         21    1    1    2  506  501 -0.20767402602E+02  0.33838375502E+02  0.29244269402E+03  0.29512548171E+03  0.00000000000E+00 0.  1.
<scales pt_clust_3="14000.00000" pt_clust_4="61.06163" pt_clust_5="75.65984" pt_clust_6="39.70291"></scales>
<clustering>
<clus scale="   39.703">  1  6  2 -1</clus>
<clus scale="   61.062">  1  4  2 -1</clus>
<clus scale="   75.660">  2  5  1 -1</clus>
<clus scale="   39.703">  1  3  2 -1</clus>
</clustering>
</event>
<event>
 6    0  0.1221518E+003  0.2894942E+03  0.7546771E-02  0.1090613E+00
         21   -1    0    0  505  501  0.00000000000E+00  0.00000000000E+00  0.25293894833E+03  0.25293894833E+03  0.00000000000E+00 0. -1.
         21   -1    0    0  506  502 -0.00000000000E+00 -0.00000000000E+00 -0.20757462463E+04  0.20757462463E+04  0.00000000000E+00 0. -1.
         21    1    1    2  503  502 -0.34379390140E+02 -0.42628796115E+02 -0.19677983302E+03  0.20425831540E+03  0.00000000000E+00 0. -1.
         21    1    1    2  504  503 -0.81588297896E+02 -0.18998412680E+03 -0.12155815571E+04  0.12330406079E+04  0.00000000000E+00 0. -1.
         21    1    1    2  505  504  0.20643828346E+03  0.44741041104E+03 -0.43466451342E+03  0.65705865797E+03  0.00000000000E+00 0. -1.
         21    1    1    2  506  501 -0.90470595422E+02 -0.21479748812E+03  0.24218605542E+02  0.23432761338E+03  0.00000000000E+00 0. -1.
<scales pt_clust_3="30.47431" pt_clust_4="30.47431" pt_clust_5="283.37377" pt_clust_6="233.07271"></scales>
<clustering>
<clus scale="   30.474">  3  4 -1 -1</clus>
<clus scale="  233.073">  1  6  2 -1</clus>
<clus scale="  283.374">  1  5  2 -1</clus>
<clus scale="  233.073">  1  3  2 -1</clus>
</clustering>
</event>
<event>
 6    0  0.1221518E+003  0.8726702E+02  0.7546771E-02  0.1309608E+00
         21   -1    0    0  505  501  0.00000000000E+00  0.00000000000E+00  0.29073213097E+03  0.29073213097E+03  0.00000000000E+00 0. -1.
         21   -1    0    0  506  502 -0.00000000000E+00 -0.00000000000E+00 -0.10182473695E+03  0.10182473695E+03  0.00000000000E+00 0. -1.
         21    1    1    2  503  501  0.52913313215E+02 -0.70932878067E+02  0.10368124007E+03  0.13631247723E+03  0.00000000000E+00 0. -1.
         21    1    1    2  504  502 -0.19537212509E+02  0.30782975899E+02 -0.30924288101E+02  0.47808010546E+02  0.00000000000E+00 0. -1.
         21    1    1    2  505  504  0.65766328484E+01  0.99986833313E+02  0.56903331141E+02  0.11523284267E+03  0.00000000000E+00 0.  1.
         21    1    1    2  506  503 -0.39952733554E+02 -0.59836931144E+02  0.59247110910E+02  0.93203537478E+02  0.00000000000E+00 0. -1.
<scales pt_clust_3="14000.00000" pt_clust_4="36.45949" pt_clust_5="87.26702" pt_clust_6="68.54096"></scales>
<clustering>
<clus scale="   36.459">  2  4  1 -1</clus>
<clus scale="   68.541">  2  6  1 -1</clus>
<clus scale="   87.267">  2  5  1 -1</clus>
<clus scale="   87.267">  1  3  2 -1</clus>
</clustering>
</event>
<event>
 6    0  0.1221518E+003  0.1254883E+03  0.7546771E-02  0.1234308E+00
         21   -1    0    0  505  501  0.00000000000E+00  0.00000000000E+00  0.31782689827E+03  0.31782689827E+03  0.00000000000E+00 0. -1.
         21   -1    0    0  506  502 -0.00000000000E+00 -0.00000000000E+00 -0.31103076070E+03  0.31103076070E+03  0.00000000000E+00 0.  1.
         21    1    1    2  503  502  0.98358757520E+02  0.78311597551E+02 -0.91761125487E+02  0.15565107016E+03  0.00000000000E+00 0.  1.
         21    1    1    2  504  501  0.25961896813E+02 -0.33096861075E+02  0.16372668706E+03  0.16904393025E+03  0.00000000000E+00 0. -1.
         21    1    1    2  505  503 -0.10215623278E+03  0.10180899324E+03 -0.66580805181E+01  0.14437900483E+03  0.00000000000E+00 0.  1.
         21    1    1    2  506  504 -0.22164421555E+02 -0.14702372972E+03 -0.58511343489E+02  0.15978365373E+03  0.00000000000E+00 0.  1.
<scales pt_clust_3="14000.00000" pt_clust_4="42.06450" pt_clust_5="125.26229" pt_clust_6="125.48828"></scales>
<clustering>
<clus scale="   42.065">  1  4  2 -1</clus>
<clus scale="  125.262">  1  5  2 -1</clus>
<clus scale="  125.488">  1  6  2 -1</clus>
<clus scale="   42.065">  1  3  2 -1</clus>
</clustering>
</event>
<event>
 6    0  0.1221518E+003  0.9726605E+02  0.7546771E-02  0.1286152E+00
         21   -1    0    0  503  501  0.00000000000E+00  0.00000000000E+00  0.33270017622E+02  0.33270017622E+02  0.00000000000E+00 0. -1.
         21   -1    0    0  504  502 -0.00000000000E+00 -0.00000000000E+00 -0.38449522859E+04  0.38449522859E+04  0.00000000000E+00 0. -1.
         21    1    1    2  503  505  0.34016109225E+02  0.63617826184E+02 -0.61247433293E+02  0.94633881777E+02  0.00000000000E+00 0. -1.
         21    1    1    2  504  506  0.63800522874E+01 -0.12890116888E+03 -0.17194873907E+04  0.17243239554E+04  0.00000000000E+00 0. -1.
         21    1    1    2  505  502  0.62536116866E+01  0.31114112269E+02 -0.19854044069E+04  0.19856580407E+04  0.00000000000E+00 0. -1.
         21    1    1    2  506  501 -0.46649773199E+02  0.34169230423E+02 -0.45543037477E+02  0.73606425738E+02  0.00000000000E+00 0. -1.
<scales pt_clust_3="97.26605" pt_clust_4="14000.00000" pt_clust_5="31.73635" pt_clust_6="58.25979"></scales>
<clustering>
<clus scale="   31.736">  2  5  1 -1</clus>
<clus scale="   58.260">  1  6  2 -1</clus>
<clus scale="   97.266">  1  3  2 -1</clus>
<clus scale="   58.260">  1  3  2 -1</clus>
</clustering>
</event>
<event>
 6    0  0.1221518E+003  0.7982301E+02  0.7546771E-02  0.1329554E+00
         21   -1    0    0  503  501  0.00000000000E+00  0.00000000000E+00  0.86806338230E+03  0.86806338230E+03  0.00000000000E+00 0. -1.
         21   -1    0    0  504  502 -0.00000000000E+00 -0.00000000000E+00 -0.52539706926E+02  0.52539706926E+02  0.00000000000E+00 0. -1.
         21    1    1    2  503  506  0.30714631758E+02  0.32683853567E+02  0.38180030307E+03  0.38442566812E+03  0.00000000000E+00 0. -1.
         21    1    1    2  504  501  0.90511114338E+02  0.56006063492E+02  0.77028565246E+02  0.13138622770E+03  0.00000000000E+00 0. -1.
         21    1    1    2  505  502 -0.40237862200E+02 -0.21321015340E+02  0.16136984073E+02  0.48312250046E+02  0.00000000000E+00 0. -1.
         21    1    1    2  506  505 -0.80987883896E+02 -0.67368901719E+02  0.34055782298E+03  0.35647894335E+03  0.00000000000E+00 0. -1.
<scales pt_clust_3="44.85112" pt_clust_4="14000.00000" pt_clust_5="42.72815" pt_clust_6="79.82301"></scales>
<clustering>
<clus scale="   44.851">  1  3  2 -1</clus>
<clus scale="   42.728">  2  5  1 -1</clus>
<clus scale="   79.823">  1  6  2 -1</clus>
<clus scale="   44.851">  1  3  2 -1</clus>
</clustering>
</event>
<event>
 6    0  0.1221518E+003  0.8479084E+02  0.7546771E-02  0.1315980E+00
         21   -1    0    0  504  501  0.00000000000E+00  0.00000000000E+00  0.33597166580E+03  0.33597166580E+03  0.00000000000E+00 0. -1.
         21   -1    0    0  501  502 -0.00000000000E+00 -0.00000000000E+00 -0.18465833681E+04  0.18465833681E+04  0.00000000000E+00 0.  1.
         21    1    1    2  503  505  0.70526127859E+02  0.11436450647E+02 -0.21620841871E+03  0.22770772371E+03  0.00000000000E+00 0.  1.
         21    1    1    2  504  503  0.24285037540E+02 -0.23061413885E+02  0.32437957853E+03  0.32610382216E+03  0.00000000000E+00 0. -1.
         21    1    1    2  505  506 -0.90566071625E+02 -0.45822977958E+02 -0.61587411307E+03  0.62418176983E+03  0.00000000000E+00 0.  1.
         21    1    1    2  506  502 -0.42450937742E+01  0.57447941196E+02 -0.10029087490E+04  0.10045617182E+04  0.00000000000E+00 0.  1.
<scales pt_clust_3="84.79084" pt_clust_4="33.49018" pt_clust_5="14000.00000" pt_clust_6="55.72223"></scales>
<clustering>
<clus scale="   33.490">  1  4  2 -1</clus>
<clus scale="   55.722">  2  6  1 -1</clus>
<clus scale="   84.791">  1  3  2 -1</clus>
<clus scale="   33.490">  1  3  2 -1</clus>
</clustering>
</event>
<event>
 6    0  0.1221518E+003  0.1341277E+03  0.7546771E-02  0.1221456E+00
         21   -1    0    0  504  501  0.00000000000E+00  0.00000000000E+00  0.13221895395E+04  0.13221895395E+04  0.00000000000E+00 0. -1.
         21   -1    0    0  506  502 -0.00000000000E+00 -0.00000000000E+00 -0.58014072946E+03  0.58014072946E+03  0.00000000000E+00 0. -1.
         21    1    1    2  503  502 -0.76926526122E+02  0.50125976344E+02 -0.23894718969E+03  0.25598059182E+03  0.00000000000E+00 0. -1.
         21    1    1    2  504  505 -0.54628822847E+02 -0.88974038489E+02  0.12330653506E+04  0.12374776147E+04  0.00000000000E+00 0. -1.
         21    1    1    2  505  503  0.11448887769E+03 -0.74026832905E+02 -0.46835613912E+01  0.13641704751E+03  0.00000000000E+00 0. -1.
         21    1    1    2  506  501  0.17066471279E+02  0.11287489505E+03 -0.24738578948E+03  0.27245501502E+03  0.00000000000E+00 0. -1.
<scales pt_clust_3="91.81669" pt_clust_4="104.39178" pt_clust_5="14000.00000" pt_clust_6="134.12767"></scales>
<clustering>
<clus scale="   91.817">  2  3  1 -1</clus>
<clus scale="  104.392">  1  4  2 -1</clus>
<clus scale="  134.128">  2  6  1 -1</clus>
<clus scale="  104.392">  1  3  2 -1</clus>
</clustering>
</event>
<event>
 6    0  0.1221518E+003  0.1415318E+03  0.7546771E-02  0.1211283E+00
         21   -1    0    0  504  501  0.00000000000E+00  0.00000000000E+00  0.12497620009E+04  0.12497620009E+04  0.00000000000E+00 0. -1.
         21   -1    0    0  506  502 -0.00000000000E+00 -0.00000000000E+00 -0.69786972671E+02  0.69786972671E+02  0.00000000000E+00 0. -1.
         21    1    1    2  503  502 -0.63775836250E+02  0.22007706510E+02 -0.84947781575E+01  0.67998953604E+02  0.00000000000E+00 0. -1.
         21    1    1    2  504  503 -0.73549638373E+02  0.28012625842E+02  0.39818864659E+02  0.88203166010E+02  0.00000000000E+00 0. -1.
         21    1    1    2  505  501  0.51248512059E+02 -0.17759723264E+02  0.82814168741E+03  0.82991594284E+03  0.00000000000E+00 0. -1.
         21    1    1    2  506  505  0.86076962564E+02 -0.32260609089E+02  0.32050925428E+03  0.33343091108E+03  0.00000000000E+00 0. -1.
<scales pt_clust_3="41.99763" pt_clust_4="41.99763" pt_clust_5="54.23853" pt_clust_6="134.06592"></scales>
<clustering>
<clus scale="   41.998">  3  4 -1 -1</clus>
<clus scale="   54.239">  1  5  2 -1</clus>
<clus scale="  134.066">  1  6  2 -1</clus>
<clus scale="   54.239">  1  3  2 -1</clus>
</clustering>
</event>
<event>
 6    0  0.1221518E+003  0.1234301E+03  0.7546771E-02  0.1237543E+00
         21   -1    0    0  504  501  0.00000000000E+00  0.00000000000E+00  0.42741146693E+02  0.42741146693E+02  0.00000000000E+00 0. -1.
         21   -1    0    0  506  502 -0.00000000000E+00 -0.00000000000E+00 -0.16791653282E+04  0.16791653282E+04  0.00000000000E+00 0.  1.
         21    1    1    2  503  501 -0.62226780240E+02 -0.47465625315E+02 -0.22209331645E+02  0.81353624245E+02  0.00000000000E+00 0. -1.
         21    1    1    2  504  502  0.67186469497E+02  0.26002436587E+02 -0.43516356441E+03  0.44108669916E+03  0.00000000000E+00 0.  1.
         21    1    1    2  505  503 -0.31777022439E+02 -0.37735555405E+02 -0.56383913094E+02  0.74919269568E+02  0.00000000000E+00 0. -1.
         21    1    1    2  506  505  0.26817333182E+02  0.59198744133E+02 -0.11226673724E+04  0.11245468819E+04  0.00000000000E+00 0.  1.
<scales pt_clust_3="36.79964" pt_clust_4="114.39680" pt_clust_5="36.79964" pt_clust_6="64.98970"></scales>
<clustering>
<clus scale="   36.800">  3  5 -1 -1</clus>
<clus scale="   64.990">  2  6  1 -1</clus>
<clus scale="  114.397">  2  4  1 -1</clus>
<clus scale="  123.430">  1  3  2 -1</clus>
</clustering>
</event>
<event>
 6    0  0.1221518E+003  0.9615037E+02  0.7546771E-02  0.1288606E+00
         21   -1    0    0  504  501  0.00000000000E+00  0.00000000000E+00  0.78118410794E+03  0.78118410794E+03  0.00000000000E+00 0.  1.
         21   -1    0    0  506  502 -0.00000000000E+00 -0.00000000000E+00 -0.76485443707E+02  0.76485443707E+02  0.00000000000E+00 0. -1.
         21    1    1    2  503  502  0.79866566993E+02 -0.36305553528E+02  0.66905625950E+02  0.11033188353E+03  0.00000000000E+00 0. -1.
         21    1    1    2  504  503  0.78615307939E+02  0.31753090419E+02  0.50925300490E+03  0.51626277068E+03  0.00000000000E+00 0.  1.
         21    1    1    2  505  501 -0.55932517100E+02 -0.92487878067E+01  0.11302247670E+03  0.12644392743E+03  0.00000000000E+00 0. -1.
         21    1    1    2  506  505 -0.10254935783E+03  0.13801250916E+02  0.15517556689E+02  0.10463097000E+03  0.00000000000E+00 0. -1.
<scales pt_clust_3="96.15037" pt_clust_4="42.98084" pt_clust_5="56.69203" pt_clust_6="14000.00000"></scales>
<clustering>
<clus scale="   56.692">  1  5  2 -1</clus>
<clus scale="   42.981">  1  4  2 -1</clus>
<clus scale="   96.150">  1  3  2 -1</clus>
<clus scale="   56.692">  1  3  2 -1</clus>
</clustering>
</event>
<event>
 6    0  0.1221518E+003  0.1179314E+03  0.7546771E-02  0.1246549E+00
         21   -1    0    0  504  501  0.00000000000E+00  0.00000000000E+00  0.68735409180E+02  0.68735409180E+02  0.00000000000E+00 0.  1.
         21   -1    0    0  503  502 -0.00000000000E+00 -0.00000000000E+00 -0.66748773681E+03  0.66748773681E+03  0.00000000000E+00 0.  1.
         21    1    1    2  503  506 -0.36294137038E+02  0.45036918105E+02 -0.42798086541E+03  0.43187175125E+03  0.00000000000E+00 0.  1.
         21    1    1    2  504  505  0.97039857350E+02  0.17481403035E+02 -0.11113560520E+03  0.14857138388E+03  0.00000000000E+00 0.  1.
         21    1    1    2  505  502  0.32434686932E+02 -0.22342793635E+02 -0.31629201228E+02  0.50513520112E+02  0.00000000000E+00 0.  1.
         21    1    1    2  506  501 -0.93180407244E+02 -0.40175527504E+02 -0.28006655802E+02  0.10526649074E+03  0.00000000000E+00 0.  1.
<scales pt_clust_3="57.84106" pt_clust_4="31.38316" pt_clust_5="31.38316" pt_clust_6="106.96770"></scales>
<clustering>
<clus scale="   31.383">  4  5 -1 -1</clus>
<clus scale="   57.841">  2  3  1 -1</clus>
<clus scale="  106.968">  1  6  2 -1</clus>
<clus scale="  106.968">  1  3  2 -1</clus>
</clustering>
</event>
<event>
 6    0  0.1221518E+003  0.7475457E+02  0.7546771E-02  0.1344633E+00
         21   -1    0    0  505  501  0.00000000000E+00  0.00000000000E+00  0.14114917424E+04  0.14114917424E+04  0.00000000000E+00 0. -1.
         21   -1    0    0  504  502 -0.00000000000E+00 -0.00000000000E+00 -0.18845086600E+02  0.18845086600E+02  0.00000000000E+00 0.  1.
         21    1    1    2  503  501  0.25988705414E+02 -0.60656039732E+02  0.55192428069E+03  0.55585517860E+03  0.00000000000E+00 0. -1.
         21    1    1    2  504  503  0.48824217162E+02 -0.22273537503E+02  0.77206612872E+02  0.94025399365E+02  0.00000000000E+00 0.  1.
         21    1    1    2  505  506 -0.98379100517E+02  0.50163107208E+02  0.66310560974E+03  0.67223792992E+03  0.00000000000E+00 0. -1.
         21    1    1    2  506  502  0.23566177941E+02  0.32766470027E+02  0.10041015245E+03  0.10821832108E+03  0.00000000000E+00 0.  1.
<scales pt_clust_3="14000.00000" pt_clust_4="62.20630" pt_clust_5="74.75457" pt_clust_6="40.36095"></scales>
<clustering>
<clus scale="   40.361">  2  6  1 -1</clus>
<clus scale="   62.206">  2  4  1 -1</clus>
<clus scale="   74.755">  2  5  1 -1</clus>
<clus scale="   74.755">  1  3  2 -1</clus>
</clustering>
</event>
<event>
 6    0  0.1221518E+003  0.1391532E+03  0.7546771E-02  0.1214473E+00
         21   -1    0    0  505  501  0.00000000000E+00  0.00000000000E+00  0.87891625678E+03  0.87891625678E+03  0.00000000000E+00 0. -1.
         21   -1    0    0  506  502 -0.00000000000E+00 -0.00000000000E+00 -0.20972458958E+03  0.20972458958E+03  0.00000000000E+00 0.  1.
         21    1    1    2  503  501  0.30351412693E+02  0.62345729806E+00  0.47310898742E+03  0.47408196646E+03  0.00000000000E+00 0. -1.
         21    1    1    2  504  503  0.11995628544E+03  0.24715939028E+02  0.35375566041E+03  0.37435738984E+03  0.00000000000E+00 0.  1.
         21    1    1    2  505  502 -0.53871683831E+02 -0.48046737593E+02 -0.10659388587E+03  0.12873579074E+03  0.00000000000E+00 0.  1.
         21    1    1    2  506  504 -0.96436014307E+02  0.22707341267E+02 -0.51079094760E+02  0.11146569932E+03  0.00000000000E+00 0. -1.
<scales pt_clust_3="30.35782" pt_clust_4="14000.00000" pt_clust_5="71.55681" pt_clust_6="139.15318"></scales>
<clustering>
<clus scale="   30.358">  1  3  2 -1</clus>
<clus scale="   71.557">  2  5  1 -1</clus>
<clus scale="  139.153">  2  6  1 -1</clus>
<clus scale="   30.358">  1  3  2 -1</clus>
</clustering>
</event>
<event>
 6    0  0.1221518E+003  0.8398648E+02  0.7546771E-02  0.1318104E+00
         21   -1    0    0  503  501  0.00000000000E+00  0.00000000000E+00  0.79522789229E+03  0.79522789229E+03  0.00000000000E+00 0. -1.
         21   -1    0    0  505  502 -0.00000000000E+00 -0.00000000000E+00 -0.64631492629E+02  0.64631492629E+02  0.00000000000E+00 0. -1.
         21    1    1    2  503  502 -0.57537346991E+02  0.10642078108E+02  0.61676698030E+01  0.58837405415E+02  0.00000000000E+00 0. -1.
         21    1    1    2  504  506  0.74749882319E+02  0.83609520083E+02  0.61869266247E+03  0.62877556199E+03  0.00000000000E+00 0. -1.
         21    1    1    2  505  504 -0.24138050900E+02 -0.51744471582E+02 -0.10451533868E+01  0.57107164053E+02  0.00000000000E+00 0. -1.
         21    1    1    2  506  501  0.69255155716E+01 -0.42507126608E+02  0.10678122077E+03  0.11513925346E+03  0.00000000000E+00 0. -1.
<scales pt_clust_3="57.85461" pt_clust_4="14000.00000" pt_clust_5="83.98648" pt_clust_6="43.06760"></scales>
<clustering>
<clus scale="   43.068">  1  6  2 -1</clus>
<clus scale="   57.855">  2  3  1 -1</clus>
<clus scale="   83.986">  2  5  1 -1</clus>
<clus scale="   43.068">  1  3  2 -1</clus>
</clustering>
</event>
<event>
 6    0  0.1221518E+003  0.1012709E+03  0.7546771E-02  0.1277646E+00
         21   -1    0    0  502  501  0.00000000000E+00  0.00000000000E+00  0.17403365363E+03  0.17403365363E+03  0.00000000000E+00 0.  1.
         21   -1    0    0  504  502 -0.00000000000E+00 -0.00000000000E+00 -0.59850064563E+03  0.59850064563E+03  0.00000000000E+00 0. -1.
         21    1    1    2  503  501 -0.48628815110E+02  0.78550733701E+01  0.10014565944E+03  0.11160473530E+03  0.00000000000E+00 0.  1.
         21    1    1    2  504  506  0.28016539827E+02 -0.72031201803E+02 -0.30015176114E+03  0.30994273705E+03  0.00000000000E+00 0.  1.
         21    1    1    2  505  503 -0.63819273450E+02  0.33560125115E+02  0.32272256919E+02  0.78997976101E+02  0.00000000000E+00 0.  1.
         21    1    1    2  506  505  0.84431548734E+02  0.30616003317E+02 -0.25673314722E+03  0.27198885080E+03  0.00000000000E+00 0. -1.
<scales pt_clust_3="49.25915" pt_clust_4="75.55759" pt_clust_5="101.27087" pt_clust_6="14000.00000"></scales>
<clustering>
<clus scale="   49.259">  1  3  2 -1</clus>
<clus scale="   75.558">  2  4  1 -1</clus>
<clus scale="  101.271">  1  5  2 -1</clus>
<clus scale="   49.259">  1  3  2 -1</clus>
</clustering>
</event>
<event>
 6    0  0.1221518E+003  0.9481039E+02  0.7546771E-02  0.1291604E+00
         21   -1    0    0  503  501  0.00000000000E+00  0.00000000000E+00  0.56566358399E+02  0.56566358399E+02  0.00000000000E+00 0.  1.
         21   -1    0    0  506  502 -0.00000000000E+00 -0.00000000000E+00 -0.68523916328E+03  0.68523916328E+03  0.00000000000E+00 0.  1.
         21    1    1    2  503  504 -0.62046198015E+02  0.70832729528E+02 -0.19407353238E+02  0.96143910988E+02  0.00000000000E+00 0.  1.
         21    1    1    2  504  505  0.72932147778E+02 -0.65226506189E+02 -0.20971988092E+03  0.23142174431E+03  0.00000000000E+00 0. -1.
         21    1    1    2  505  502  0.46998770237E+02 -0.58572129386E+01 -0.23722649151E+03  0.24190824629E+03  0.00000000000E+00 0.  1.
         21    1    1    2  506  501 -0.57884720001E+02  0.25098959988E+00 -0.16231907922E+03  0.17233162009E+03  0.00000000000E+00 0.  1.
<scales pt_clust_3="14000.00000" pt_clust_4="94.81039" pt_clust_5="47.36234" pt_clust_6="40.28638"></scales>
<clustering>
<clus scale="   47.362">  2  5  1 -1</clus>
<clus scale="   40.286">  2  6  1 -1</clus>
<clus scale="   94.810">  2  4  1 -1</clus>
<clus scale="   94.810">  1  3  2 -1</clus>
</clustering>
</event>
<event>
 6    0  0.1221518E+003  0.9000347E+02  0.7546771E-02  0.1302843E+00
         21   -1    0    0  505  501  0.00000000000E+00  0.00000000000E+00  0.22851836130E+03  0.22851836130E+03  0.00000000000E+00 0.  1.
         21   -1    0    0  504  502 -0.00000000000E+00 -0.00000000000E+00 -0.28781012037E+04  0.28781012037E+04  0.00000000000E+00 0. -1.
         21    1    1    2  503  506 -0.64589162585E+02 -0.69822793036E+02 -0.54867969213E+03  0.55686298755E+03  0.00000000000E+00 0. -1.
         21    1    1    2  504  501  0.32787161266E+02  0.89326351589E+02 -0.54134584175E+03  0.54964489938E+03  0.00000000000E+00 0. -1.
         21    1    1    2  505  503  0.33318523329E+02 -0.52949566133E+02  0.21567427457E+03  0.22456440783E+03  0.00000000000E+00 0.  1.
         21    1    1    2  506  502 -0.15165220103E+01  0.33446007580E+02 -0.17752315831E+04  0.17755472702E+04  0.00000000000E+00 0. -1.
<scales pt_clust_3="90.00347" pt_clust_4="14000.00000" pt_clust_5="62.44288" pt_clust_6="33.48037"></scales>
<clustering>
<clus scale="   33.480">  2  6  1 -1</clus>
<clus scale="   62.443">  1  5  2 -1</clus>
<clus scale="   90.003">  2  3  1 -1</clus>
<clus scale="   62.443">  1  3  2 -1</clus>
</clustering>
</event>
<event>
 6    0  0.1221518E+003  0.1269090E+03  0.7546771E-02  0.1232116E+00
         21   -1    0    0  505  501  0.00000000000E+00  0.00000000000E+00  0.18576373762E+03  0.18576373762E+03  0.00000000000E+00 0.  1.
         21   -1    0    0  506  502 -0.00000000000E+00 -0.00000000000E+00 -0.58503898638E+03  0.58503898638E+03  0.00000000000E+00 0. -1.
         21    1    1    2  503  502 -0.11625442346E+03 -0.73967212730E+02 -0.44143496655E+03  0.46244034126E+03  0.00000000000E+00 0. -1.
         21    1    1    2  504  503  0.77485319897E+00  0.12452651382E+03 -0.27323797054E+02  0.12749134452E+03  0.00000000000E+00 0.  1.
         21    1    1    2  505  504  0.31644716501E+02  0.91941033137E+01  0.70602992879E+02  0.77914711202E+02  0.00000000000E+00 0.  1.
         21    1    1    2  506  501  0.83834853763E+02 -0.59753404402E+02 -0.11194780317E+01  0.10295632702E+03  0.00000000000E+00 0.  1.
<scales pt_clust_3="14000.00000" pt_clust_4="126.90902" pt_clust_5="32.95329" pt_clust_6="112.89977"></scales>
<clustering>
<clus scale="   32.953">  1  5  2 -1</clus>
<clus scale="  112.900">  1  6  2 -1</clus>
<clus scale="  126.909">  1  4  2 -1</clus>
<clus scale="   32.953">  1  3  2 -1</clus>
</clustering>
</event>
<event>
 6    0  0.1371543E+003  0.8573596E+02  0.7546771E-02  0.1313519E+00
         21   -1    0    0  503  501  0.00000000000E+00  0.00000000000E+00  0.31910287347E+03  0.31910287347E+03  0.00000000000E+00 0.  1.
         21   -1    0    0  506  502 -0.00000000000E+00 -0.00000000000E+00 -0.84580663993E+03  0.84580663993E+03  0.00000000000E+00 0.  1.
         21    1    1    2  503  504 -0.18899851690E+02  0.31450797282E+02  0.21918980946E+02  0.42741066544E+02  0.00000000000E+00 0.  1.
         21    1    1    2  504  502 -0.60482374867E+02 -0.60438407823E+02 -0.80696052269E+03  0.81147779020E+03  0.00000000000E+00 0.  1.
         21    1    1    2  505  501  0.21863697978E+01 -0.49710277105E+02  0.32637539545E+02  0.59507149573E+02  0.00000000000E+00 0.  1.
         21    1    1    2  506  505  0.77195856759E+02  0.78697887645E+02  0.22570023574E+03  0.25118350709E+03  0.00000000000E+00 0.  1.
<scales pt_clust_3="36.69274" pt_clust_4="14000.00000" pt_clust_5="44.66555" pt_clust_6="85.73596"></scales>
<clustering>
<clus scale="   36.693">  1  3  2 -1</clus>
<clus scale="   44.666">  1  5  2 -1</clus>
<clus scale="   85.736">  1  6  2 -1</clus>
<clus scale="   36.693">  1  3  2 -1</clus>
</clustering>
</event>
<event>
 6    0  0.1221518E+003  0.9934661E+02  0.7546771E-02  0.1281676E+00
         21   -1    0    0  504  501  0.00000000000E+00  0.00000000000E+00  0.22755587144E+03  0.22755587144E+03  0.00000000000E+00 0. -1.
         21   -1    0    0  505  502 -0.00000000000E+00 -0.00000000000E+00 -0.29826657536E+03  0.29826657536E+03  0.00000000000E+00 0. -1.
         21    1    1    2  503  502 -0.72225633533E+02 -0.91790844765E+02 -0.13412544009E+03  0.17785312761E+03  0.00000000000E+00 0. -1.
         21    1    1    2  504  503 -0.69899294311E+02 -0.16173057542E+02  0.53221735912E+02  0.89331026575E+02  0.00000000000E+00 0. -1.
         21    1    1    2  505  506  0.11046087497E+03 -0.29374656679E+01 -0.57852400380E+02  0.12472823992E+03  0.00000000000E+00 0. -1.
         21    1    1    2  506  501  0.31664052870E+02  0.11090136798E+03  0.68045400632E+02  0.13391005268E+03  0.00000000000E+00 0. -1.
<scales pt_clust_3="99.34661" pt_clust_4="71.74593" pt_clust_5="95.71912" pt_clust_6="14000.00000"></scales>
<clustering>
<clus scale="   71.746">  1  4  2 -1</clus>
<clus scale="   95.719">  2  5  1 -1</clus>
<clus scale="   99.347">  2  3  1 -1</clus>
<clus scale="   71.746">  1  3  2 -1</clus>
</clustering>
</event>
<event>
 6    0  0.1221518E+003  0.1148474E+03  0.7546771E-02  0.1251848E+00
         21   -1    0    0  503  501  0.00000000000E+00  0.00000000000E+00  0.91609287815E+03  0.91609287815E+03  0.00000000000E+00 0. -1.
         21   -1    0    0  506  502 -0.00000000000E+00 -0.00000000000E+00 -0.10373281140E+04  0.10373281140E+04  0.00000000000E+00 0. -1.
         21    1    1    2  503  502 -0.26293777932E+02  0.12345369651E+03 -0.12168958535E+03  0.17532978390E+03  0.00000000000E+00 0. -1.
         21    1    1    2  504  505  0.10848893757E+03 -0.23615978248E+02 -0.37156561071E+03  0.38779964810E+03  0.00000000000E+00 0. -1.
         21    1    1    2  505  501  0.25265498026E+00 -0.11462690228E+03  0.87394238878E+03  0.88142764279E+03  0.00000000000E+00 0. -1.
         21    1    1    2  506  504 -0.82447814620E+02  0.14789184020E+02 -0.50192242861E+03  0.50886391741E+03  0.00000000000E+00 0. -1.
<scales pt_clust_3="14000.00000" pt_clust_4="51.32886" pt_clust_5="114.84735" pt_clust_6="83.76373"></scales>
<clustering>
<clus scale="   83.764">  2  6  1 -1</clus>
<clus scale="   51.329">  2  4  1 -1</clus>
<clus scale="  114.847">  1  5  2 -1</clus>
<clus scale="  114.847">  1  3  2 -1</clus>
</clustering>
</event>
<event>
 6    0  0.1221518E+003  0.1030229E+03  0.7546771E-02  0.1274065E+00
         21   -1    0    0  505  501  0.00000000000E+00  0.00000000000E+00  0.12935374311E+03  0.12935374311E+03  0.00000000000E+00 0. -1.
         21   -1    0    0  501  502 -0.00000000000E+00 -0.00000000000E+00 -0.58850612426E+03  0.58850612426E+03  0.00000000000E+00 0. -1.
         21    1    1    2  503  504 -0.28439196221E+02 -0.46070592106E+02 -0.34735344591E+02  0.64325978442E+02  0.00000000000E+00 0. -1.
         21    1    1    2  504  502 -0.38793870748E+02 -0.21343987975E+02 -0.35203455558E+03  0.35480819967E+03  0.00000000000E+00 0. -1.
         21    1    1    2  505  506 -0.73673261524E+02  0.69496907677E+02  0.49206043735E+02  0.11260019707E+03  0.00000000000E+00 0. -1.
         21    1    1    2  506  503  0.14090632849E+03 -0.20823275958E+01 -0.12158852472E+03  0.18612549219E+03  0.00000000000E+00 0. -1.
<scales pt_clust_3="62.43060" pt_clust_4="44.27788" pt_clust_5="14000.00000" pt_clust_6="103.02289"></scales>
<clustering>
<clus scale="   44.278">  2  4  1 -1</clus>
<clus scale="   62.431">  2  3  1 -1</clus>
<clus scale="  103.023">  2  6  1 -1</clus>
<clus scale="  103.023">  1  3  2 -1</clus>
</clustering>
</event>
<event>
 6    0  0.1221518E+003  0.9096605E+02  0.7546771E-02  0.1300529E+00
         21   -1    0    0  505  501  0.00000000000E+00  0.00000000000E+00  0.38671959108E+03  0.38671959108E+03  0.00000000000E+00 0.  1.
         21   -1    0    0  504  502 -0.00000000000E+00 -0.00000000000E+00 -0.12051493021E+03  0.12051493021E+03  0.00000000000E+00 0.  1.
         21    1    1    2  503  502  0.29743377268E+02  0.11997001595E+02 -0.27032124645E+02  0.41944395351E+02  0.00000000000E+00 0. -1.
         21    1    1    2  504  501  0.64949736991E+02 -0.87237924508E+02  0.12011776682E+03  0.16204074091E+03  0.00000000000E+00 0.  1.
         21    1    1    2  505  506 -0.33554808677E+01  0.32516953694E+02  0.19694270901E+03  0.19963727648E+03  0.00000000000E+00 0.  1.
         21    1    1    2  506  503 -0.91337633391E+02  0.42723969219E+02 -0.23823690312E+02  0.10361210856E+03  0.00000000000E+00 0.  1.
<scales pt_clust_3="32.07174" pt_clust_4="90.96605" pt_clust_5="32.83225" pt_clust_6="14000.00000"></scales>
<clustering>
<clus scale="   32.072">  2  3  1 -1</clus>
<clus scale="   32.832">  1  5  2 -1</clus>
<clus scale="   90.966">  1  4  2 -1</clus>
<clus scale="   32.832">  1  3  2 -1</clus>
</clustering>
</event>
<event>
 6    0  0.1221518E+003  0.1483716E+03  0.7546771E-02  0.1202488E+00
         21   -1    0    0  505  501  0.00000000000E+00  0.00000000000E+00  0.77047022612E+03  0.77047022612E+03  0.00000000000E+00 0. -1.
         21   -1    0    0  506  502 -0.00000000000E+00 -0.00000000000E+00 -0.10608923634E+04  0.10608923634E+04  0.00000000000E+00 0. -1.
         21    1    1    2  503  501 -0.11539669862E+03 -0.50178367400E+02 -0.86522257379E+02  0.15271007704E+03  0.00000000000E+00 0. -1.
         21    1    1    2  504  502  0.14902001411E+03  0.14102369702E+03  0.11465653485E+03  0.23503354806E+03  0.00000000000E+00 0. -1.
         21    1    1    2  505  504 -0.35069460522E+02 -0.54255817339E+02  0.56029393829E+03  0.56400607981E+03  0.00000000000E+00 0. -1.
         21    1    1    2  506  503  0.14461450257E+01 -0.36589512285E+02 -0.87885035303E+03  0.87961288461E+03  0.00000000000E+00 0. -1.
<scales pt_clust_3="14000.00000" pt_clust_4="148.37156" pt_clust_5="64.90940" pt_clust_6="36.61808"></scales>
<clustering>
<clus scale="   36.618">  2  6  1 -1</clus>
<clus scale="   64.909">  1  5  2 -1</clus>
<clus scale="  148.372">  1  4  2 -1</clus>
<clus scale="   64.909">  1  3  2 -1</clus>
</clustering>
</event>
<event>
 6    0  0.1221518E+003  0.1362976E+03  0.7546771E-02  0.1218399E+00
         21   -1    0    0  503  501  0.00000000000E+00  0.00000000000E+00  0.50001697369E+03  0.50001697369E+03  0.00000000000E+00 0. -1.
         21   -1    0    0  505  502 -0.00000000000E+00 -0.00000000000E+00 -0.39827442722E+03  0.39827442722E+03  0.00000000000E+00 0.  1.
         21    1    1    2  503  502  0.72419590807E+02  0.55588758023E+02 -0.45992084605E+01  0.91410392569E+02  0.00000000000E+00 0.  1.
         21    1    1    2  504  501 -0.34242780964E+02 -0.13473463297E+03  0.42975909318E+03  0.45168447786E+03  0.00000000000E+00 0. -1.
         21    1    1    2  505  506 -0.34277220801E+02 -0.17964458043E+02 -0.16387728781E+03  0.16838472341E+03  0.00000000000E+00 0.  1.
         21    1    1    2  506  504 -0.38995890421E+01  0.97110332990E+02 -0.15954005044E+03  0.18681180707E+03  0.00000000000E+00 0.  1.
<scales pt_clust_3="83.42120" pt_clust_4="136.29763" pt_clust_5="38.69948" pt_clust_6="14000.00000"></scales>
<clustering>
<clus scale="   38.699">  2  5  1 -1</clus>
<clus scale="   83.421">  2  3  1 -1</clus>
<clus scale="  136.298">  1  4  2 -1</clus>
<clus scale="  136.298">  1  3  2 -1</clus>
</clustering>
</event>
<event>
 6    0  0.1221518E+003  0.9827319E+02  0.7546771E-02  0.1283970E+00
         21   -1    0    0  504  501  0.00000000000E+00  0.00000000000E+00  0.55254402240E+03  0.55254402240E+03  0.00000000000E+00 0.  1.
         21   -1    0    0  501  502 -0.00000000000E+00 -0.00000000000E+00 -0.35390315045E+03  0.35390315045E+03  0.00000000000E+00 0.  1.
         21    1    1    2  503  505  0.11027609893E+03  0.45313619944E+01  0.40288085866E+02  0.11749247252E+03  0.00000000000E+00 0.  1.
         21    1    1    2  504  506 -0.25800661047E+02  0.90459828561E+02  0.21077350435E+03  0.23081188191E+03  0.00000000000E+00 0.  1.
         21    1    1    2  505  502 -0.30316447549E+02  0.14250463309E+02 -0.28956107365E+03  0.29149232935E+03  0.00000000000E+00 0.  1.
         21    1    1    2  506  503 -0.54158990333E+02 -0.10924165387E+03  0.23714035537E+03  0.26665048907E+03  0.00000000000E+00 0.  1.
<scales pt_clust_3="92.75620" pt_clust_4="14000.00000" pt_clust_5="33.49870" pt_clust_6="98.27319"></scales>
<clustering>
<clus scale="   33.499">  2  5  1 -1</clus>
<clus scale="   92.756">  2  3  1 -1</clus>
<clus scale="   98.273">  2  6  1 -1</clus>
<clus scale="   98.273">  1  3  2 -1</clus>
</clustering>
</event>
<event>
 6    0  0.1221518E+003  0.8403039E+02  0.7546771E-02  0.1317988E+00
         21   -1    0    0  503  501  0.00000000000E+00  0.00000000000E+00  0.47640225484E+03  0.47640225484E+03  0.00000000000E+00 0. -1.
         21   -1    0    0  506  502 -0.00000000000E+00 -0.00000000000E+00 -0.11497969187E+04  0.11497969187E+04  0.00000000000E+00 0.  1.
         21    1    1    2  503  505 -0.67206605596E+02 -0.10303892419E+03 -0.53232030251E+02  0.13404251855E+03  0.00000000000E+00 0.  1.
         21    1    1    2  504  501 -0.39900380680E+00  0.83181063903E+02  0.42725933345E+03  0.43528127299E+03  0.00000000000E+00 0. -1.
         21    1    1    2  505  502  0.10314537154E+02 -0.40119046385E+02 -0.62598018750E+03  0.62734928286E+03  0.00000000000E+00 0.  1.
         21    1    1    2  506  504  0.57291072249E+02  0.59976906672E+02 -0.42144177952E+03  0.42952609911E+03  0.00000000000E+00 0.  1.
<scales pt_clust_3="84.03039" pt_clust_4="14000.00000" pt_clust_5="41.42376" pt_clust_6="71.14585"></scales>
<clustering>
<clus scale="   41.424">  2  5  1 -1</clus>
<clus scale="   71.146">  2  6  1 -1</clus>
<clus scale="   84.030">  2  3  1 -1</clus>
<clus scale="   84.030">  1  3  2 -1</clus>
</clustering>
</event>
<event>
 6    0  0.1221518E+003  0.1176001E+03  0.7546771E-02  0.1247109E+00
         21   -1    0    0  503  501  0.00000000000E+00  0.00000000000E+00  0.11365474247E+03  0.11365474247E+03  0.00000000000E+00 0.  1.
         21   -1    0    0  505  502 -0.00000000000E+00 -0.00000000000E+00 -0.36523088645E+03  0.36523088645E+03  0.00000000000E+00 0.  1.
         21    1    1    2  503  502 -0.47427101540E+02 -0.44061815552E+02  0.18446703862E+02  0.67313107442E+02  0.00000000000E+00 0.  1.
         21    1    1    2  504  501 -0.87438018285E+02  0.40545896819E+02 -0.24125808628E+02  0.99355077538E+02  0.00000000000E+00 0.  1.
         21    1    1    2  505  506 -0.92544422050E+01 -0.35685434191E+02 -0.85180342014E+02  0.92815869222E+02  0.00000000000E+00 0.  1.
         21    1    1    2  506  504  0.14411956203E+03  0.39201352924E+02 -0.16071669720E+03  0.21940157472E+03  0.00000000000E+00 0.  1.
<scales pt_clust_3="67.50709" pt_clust_4="117.60008" pt_clust_5="36.86590" pt_clust_6="14000.00000"></scales>
<clustering>
<clus scale="   36.866">  2  5  1 -1</clus>
<clus scale="   67.507">  1  3  2 -1</clus>
<clus scale="  117.600">  1  4  2 -1</clus>
<clus scale="   67.507">  1  3  2 -1</clus>
</clustering>
</event>
<event>
 6    0  0.1221518E+003  0.1567808E+03  0.7546771E-02  0.1192380E+00
         21   -1    0    0  504  501  0.00000000000E+00  0.00000000000E+00  0.55986661156E+03  0.55986661156E+03  0.00000000000E+00 0. -1.
         21   -1    0    0  505  502 -0.00000000000E+00 -0.00000000000E+00 -0.92055865721E+02  0.92055865721E+02  0.00000000000E+00 0. -1.
         21    1    1    2  503  502  0.13567323300E+03  0.89781432485E+01  0.14330520685E+02  0.13672306694E+03  0.00000000000E+00 0. -1.
         21    1    1    2  504  503  0.40286007082E+02  0.31764518256E+02  0.12379245999E+03  0.13400194079E+03  0.00000000000E+00 0. -1.
         21    1    1    2  505  506 -0.72617812946E+02 -0.27382689550E+02  0.84205846567E+02  0.11451542708E+03  0.00000000000E+00 0. -1.
         21    1    1    2  506  501 -0.10334142714E+03 -0.13359971954E+02  0.24548191860E+03  0.26668204247E+03  0.00000000000E+00 0. -1.
<scales pt_clust_3="143.47246" pt_clust_4="51.30250" pt_clust_5="57.74947" pt_clust_6="57.74947"></scales>
<clustering>
<clus scale="   51.303">  1  4  2 -1</clus>
<clus scale="   57.749">  5  6 -1 -1</clus>
<clus scale="  143.472">  2  3  1 -1</clus>
<clus scale="   51.303">  1  3  2 -1</clus>
</clustering>
</event>
<event>
 6    0  0.1221518E+003  0.1086663E+03  0.7546771E-02  0.1263060E+00
         21   -1    0    0  504  501  0.00000000000E+00  0.00000000000E+00  0.16368141361E+03  0.16368141361E+03  0.00000000000E+00 0. -1.
         21   -1    0    0  503  502 -0.00000000000E+00 -0.00000000000E+00 -0.38158837781E+03  0.38158837781E+03  0.00000000000E+00 0. -1.
         21    1    1    2  503  506 -0.95191393335E+02  0.37278351477E+02 -0.23355265017E+03  0.25494689105E+03  0.00000000000E+00 0. -1.
         21    1    1    2  504  505  0.13243112073E+03  0.12504698678E+02  0.68760181841E+02  0.14974088231E+03  0.00000000000E+00 0. -1.
         21    1    1    2  505  502 -0.85929861336E+01 -0.64752434575E+02 -0.76569822669E+02  0.10064618690E+03  0.00000000000E+00 0.  1.
         21    1    1    2  506  501 -0.28646741262E+02  0.14969384420E+02  0.23455326801E+02  0.39935831157E+02  0.00000000000E+00 0.  1.
<scales pt_clust_3="108.66632" pt_clust_4="14000.00000" pt_clust_5="64.36999" pt_clust_6="32.32210"></scales>
<clustering>
<clus scale="   32.322">  1  6  2 -1</clus>
<clus scale="   64.370">  2  5  1 -1</clus>
<clus scale="  108.666">  2  3  1 -1</clus>
<clus scale="   32.322">  1  3  2 -1</clus>
</clustering>
</event>
<event>
 6    0  0.1221518E+003  0.1322534E+03  0.7546771E-02  0.1224150E+00
         21   -1    0    0  505  501  0.00000000000E+00  0.00000000000E+00  0.19246483739E+04  0.19246483739E+04  0.00000000000E+00 0.  1.
         21   -1    0    0  503  502 -0.00000000000E+00 -0.00000000000E+00 -0.13392690330E+03  0.13392690330E+03  0.00000000000E+00 0.  1.
         21    1    1    2  503  504 -0.34241820224E+02  0.19641894765E+02 -0.73195403967E+02  0.83161730646E+02  0.00000000000E+00 0.  1.
         21    1    1    2  504  506  0.15103121469E+03  0.99747139684E+02  0.12402378622E+03  0.21941244093E+03  0.00000000000E+00 0.  1.
         21    1    1    2  505  502 -0.51636500763E+02 -0.62528069694E+01  0.11915052824E+03  0.13000874658E+03  0.00000000000E+00 0.  1.
         21    1    1    2  506  501 -0.65152893705E+02 -0.11313622748E+03  0.16207425601E+04  0.16259923591E+04  0.00000000000E+00 0.  1.
<scales pt_clust_3="39.47539" pt_clust_4="14000.00000" pt_clust_5="55.14223" pt_clust_6="132.25344"></scales>
<clustering>
<clus scale="   39.475">  2  3  1 -1</clus>
<clus scale="   55.142">  2  5  1 -1</clus>
<clus scale="  132.253">  1  6  2 -1</clus>
<clus scale="  132.253">  1  3  2 -1</clus>
</clustering>
</event>
<event>
 6    0  0.1221518E+003  0.1663611E+03  0.7546771E-02  0.1181697E+00
         21   -1    0    0  505  501  0.00000000000E+00  0.00000000000E+00  0.17425982095E+04  0.17425982095E+04  0.00000000000E+00 0.  1.
         21   -1    0    0  503  502 -0.00000000000E+00 -0.00000000000E+00 -0.94264295765E+03  0.94264295765E+03  0.00000000000E+00 0.  1.
         21    1    1    2  503  504 -0.70981535626E+02 -0.21843473412E+02 -0.33636072625E+03  0.34446197743E+03  0.00000000000E+00 0.  1.
         21    1    1    2  504  501 -0.58027790956E+02 -0.68485472145E+02 -0.58357000344E+03  0.59043325900E+03  0.00000000000E+00 0.  1.
         21    1    1    2  505  506 -0.30935848549E+02  0.72726066658E+02  0.12716315319E+04  0.12740851072E+04  0.00000000000E+00 0.  1.
         21    1    1    2  506  502  0.15994517513E+03  0.17602878899E+02  0.44825444967E+03  0.47626082354E+03  0.00000000000E+00 0.  1.
<scales pt_clust_3="49.43556" pt_clust_4="49.43556" pt_clust_5="79.03232" pt_clust_6="157.23287"></scales>
<clustering>
<clus scale="   49.436">  3  4 -1 -1</clus>
<clus scale="   79.032">  1  5  2 -1</clus>
<clus scale="  157.233">  1  6  2 -1</clus>
<clus scale="   79.032">  1  3  2 -1</clus>
</clustering>
</event>
<event>
 6    0  0.1221518E+003  0.9491301E+02  0.7546771E-02  0.1291372E+00
         21   -1    0    0  504  501  0.00000000000E+00  0.00000000000E+00  0.18834297676E+04  0.18834297676E+04  0.00000000000E+00 0.  1.
         21   -1    0    0  503  502 -0.00000000000E+00 -0.00000000000E+00 -0.63661802686E+03  0.63661802686E+03  0.00000000000E+00 0. -1.
         21    1    1    2  503  506 -0.36369515398E+02  0.87598016442E+02 -0.79955871650E+02  0.12405279338E+03  0.00000000000E+00 0. -1.
         21    1    1    2  504  505  0.10558926974E+03 -0.52346923660E+02  0.17203786142E+04  0.17244105864E+04  0.00000000000E+00 0.  1.
         21    1    1    2  505  502 -0.31640812268E+02 -0.21258468993E+02 -0.52900524905E+03  0.53037686320E+03  0.00000000000E+00 0. -1.
         21    1    1    2  506  501 -0.37578942074E+02 -0.13992623790E+02  0.13539424719E+03  0.14120755143E+03  0.00000000000E+00 0. -1.
<scales pt_clust_3="14000.00000" pt_clust_4="94.91301" pt_clust_5="38.11907" pt_clust_6="41.10791"></scales>
<clustering>
<clus scale="   38.119">  2  5  1 -1</clus>
<clus scale="   41.108">  1  6  2 -1</clus>
<clus scale="   94.913">  1  4  2 -1</clus>
<clus scale="   41.108">  1  3  2 -1</clus>
</clustering>
</event>
<event>
 6    0  0.1221518E+003  0.1353110E+03  0.7546771E-02  0.1219781E+00
         21   -1    0    0  506  501  0.00000000000E+00  0.00000000000E+00  0.12165616713E+03  0.12165616713E+03  0.00000000000E+00 0. -1.
         21   -1    0    0  504  502 -0.00000000000E+00 -0.00000000000E+00 -0.31958929235E+03  0.31958929235E+03  0.00000000000E+00 0. -1.
         21    1    1    2  503  501  0.29790462644E+02 -0.10064371853E+03  0.21455537468E+02  0.10713062042E+03  0.00000000000E+00 0. -1.
         21    1    1    2  504  503 -0.47926177560E+02 -0.56663684397E+02 -0.91315220145E+02  0.11766971171E+03  0.00000000000E+00 0. -1.
         21    1    1    2  505  502  0.19024316940E+02  0.79674800928E+02 -0.10926661319E+03  0.13656204193E+03  0.00000000000E+00 0. -1.
         21    1    1    2  506  505 -0.88860202450E+00  0.77632601995E+02 -0.18806829354E+02  0.79883085421E+02  0.00000000000E+00 0. -1.
<scales pt_clust_3="113.74485" pt_clust_4="74.21382" pt_clust_5="71.34932" pt_clust_6="71.34932"></scales>
<clustering>
<clus scale="   71.349">  5  6 -1 -1</clus>
<clus scale="   74.214">  2  4  1 -1</clus>
<clus scale="  113.745">  1  3  2 -1</clus>
<clus scale="  113.745">  1  3  2 -1</clus>
</clustering>
</event>
<event>
 6    0  0.1221518E+003  0.6731403E+02  0.7546771E-02  0.1369473E+00
         21   -1    0    0  503  501  0.00000000000E+00  0.00000000000E+00  0.13956827937E+04  0.13956827937E+04  0.00000000000E+00 0. -1.
         21   -1    0    0  504  502 -0.00000000000E+00 -0.00000000000E+00 -0.68497472950E+02  0.68497472950E+02  0.00000000000E+00 0. -1.
         21    1    1    2  503  505  0.51438978532E+02  0.21149806069E+02  0.87960003650E+03  0.88135662874E+03  0.00000000000E+00 0. -1.
         21    1    1    2  504  506  0.25284997776E+02  0.51205144165E+02 -0.30226517863E+02  0.64613777816E+02  0.00000000000E+00 0. -1.
         21    1    1    2  505  502 -0.98486133582E+02  0.10081868260E+02  0.35610031339E+03  0.36960600072E+03  0.00000000000E+00 0. -1.
         21    1    1    2  506  501  0.21762157274E+02 -0.82436818494E+02  0.12171148872E+03  0.14860385937E+03  0.00000000000E+00 0. -1.
<scales pt_clust_3="55.61729" pt_clust_4="58.51356" pt_clust_5="67.31403" pt_clust_6="14000.00000"></scales>
<clustering>
<clus scale="   55.617">  1  3  2 -1</clus>
<clus scale="   58.514">  2  4  1 -1</clus>
<clus scale="   67.314">  1  5  2 -1</clus>
<clus scale="   55.617">  1  3  2 -1</clus>
</clustering>
</event>
<event>
 6    0  0.1221518E+003  0.1584276E+03  0.7546771E-02  0.1190483E+00
         21   -1    0    0  504  501  0.00000000000E+00  0.00000000000E+00  0.26098562836E+03  0.26098562836E+03  0.00000000000E+00 0. -1.
         21   -1    0    0  503  502 -0.00000000000E+00 -0.00000000000E+00 -0.11919091526E+04  0.11919091526E+04  0.00000000000E+00 0.  1.
         21    1    1    2  503  501  0.37871324464E+02 -0.96179932130E+01  0.90247200066E+02  0.98342768569E+02  0.00000000000E+00 0.  1.
         21    1    1    2  504  506  0.58349751479E+02  0.12742292172E+03  0.83585496183E+02  0.16318035926E+03  0.00000000000E+00 0. -1.
         21    1    1    2  505  502  0.84335921791E+01  0.85688513612E+02 -0.82711455741E+03  0.83158411355E+03  0.00000000000E+00 0.  1.
         21    1    1    2  506  505 -0.10465466812E+03 -0.20349344212E+03 -0.27764166303E+03  0.35978753952E+03  0.00000000000E+00 0.  1.
<scales pt_clust_3="39.07356" pt_clust_4="14000.00000" pt_clust_5="86.02550" pt_clust_6="158.42762"></scales>
<clustering>
<clus scale="   39.074">  1  3  2 -1</clus>
<clus scale="   86.026">  2  5  1 -1</clus>
<clus scale="  158.428">  2  6  1 -1</clus>
<clus scale="   39.074">  1  3  2 -1</clus>
</clustering>
</event>
<event>
 6    0  0.1221518E+003  0.5665010E+02  0.7546771E-02  0.1412453E+00
         21   -1    0    0  506  501  0.00000000000E+00  0.00000000000E+00  0.67600715409E+03  0.67600715409E+03  0.00000000000E+00 0. -1.
         21   -1    0    0  505  502 -0.00000000000E+00 -0.00000000000E+00 -0.35771888577E+03  0.35771888577E+03  0.00000000000E+00 0. -1.
         21    1    1    2  503  502  0.24622805819E+02  0.37302832784E+02 -0.80205285578E+02  0.91818689463E+02  0.00000000000E+00 0. -1.
         21    1    1    2  504  501  0.42370370990E+02 -0.95599626880E+01  0.48186062343E+03  0.48381432558E+03  0.00000000000E+00 0. -1.
         21    1    1    2  505  504 -0.16641509033E+02 -0.91269445402E+02 -0.25333311535E+03  0.26978643187E+03  0.00000000000E+00 0. -1.
         21    1    1    2  506  503 -0.50351667776E+02  0.63526575306E+02  0.16996604582E+03  0.18830659296E+03  0.00000000000E+00 0. -1.
<scales pt_clust_3="45.17489" pt_clust_4="43.43548" pt_clust_5="56.65010" pt_clust_6="14000.00000"></scales>
<clustering>
<clus scale="   43.435">  1  4  2 -1</clus>
<clus scale="   45.175">  2  3  1 -1</clus>
<clus scale="   56.650">  2  5  1 -1</clus>
<clus scale="   43.435">  1  3  2 -1</clus>
</clustering>
</event>
<event>
 6    0  0.1221518E+003  0.8043956E+02  0.7546771E-02  0.1327809E+00
         21   -1    0    0  506  501  0.00000000000E+00  0.00000000000E+00  0.29330302072E+03  0.29330302072E+03  0.00000000000E+00 0.  1.
         21   -1    0    0  505  502 -0.00000000000E+00 -0.00000000000E+00 -0.16681835031E+03  0.16681835031E+03  0.00000000000E+00 0. -1.
         21    1    1    2  503  502 -0.16995886169E+01 -0.58444408198E+02  0.11096813325E+02  0.59512828172E+02  0.00000000000E+00 0.  1.
         21    1    1    2  504  501  0.10667929305E+03 -0.75961119148E+01  0.14600972619E+03  0.18098898482E+03  0.00000000000E+00 0.  1.
         21    1    1    2  505  504 -0.42649179347E+02  0.63776335221E+02 -0.10018572594E+03  0.12618856175E+03  0.00000000000E+00 0. -1.
         21    1    1    2  506  503 -0.62330525089E+02  0.22641848916E+01  0.69563856830E+02  0.93430996292E+02  0.00000000000E+00 0.  1.
<scales pt_clust_3="58.46912" pt_clust_4="14000.00000" pt_clust_5="47.31014" pt_clust_6="80.43956"></scales>
<clustering>
<clus scale="   58.469">  2  3  1 -1</clus>
<clus scale="   47.310">  2  5  1 -1</clus>
<clus scale="   80.440">  1  6  2 -1</clus>
<clus scale="   80.440">  1  3  2 -1</clus>
</clustering>
</event>
<event>
 6    0  0.1221518E+003  0.1200918E+03  0.7546771E-02  0.1242946E+00
         21   -1    0    0  504  501  0.00000000000E+00  0.00000000000E+00  0.17184667106E+04  0.17184667106E+04  0.00000000000E+00 0. -1.
         21   -1    0    0  503  502 -0.00000000000E+00 -0.00000000000E+00 -0.62386796674E+02  0.62386796674E+02  0.00000000000E+00 0. -1.
         21    1    1    2  503  506  0.15908299919E+03  0.24229529095E+02  0.20692981749E+03  0.26213435501E+03  0.00000000000E+00 0. -1.
         21    1    1    2  504  505 -0.13736796923E+03  0.23109007589E+02  0.67341692966E+03  0.68767313919E+03  0.00000000000E+00 0. -1.
         21    1    1    2  505  502 -0.10162727686E+03 -0.83267186056E+01  0.79872505498E+02  0.12952627061E+03  0.00000000000E+00 0. -1.
         21    1    1    2  506  501  0.79912246896E+02 -0.39011818078E+02  0.69586066130E+03  0.70151974248E+03  0.00000000000E+00 0. -1.
<scales pt_clust_3="120.09176" pt_clust_4="84.08965" pt_clust_5="14000.00000" pt_clust_6="88.92631"></scales>
<clustering>
<clus scale="   88.926">  1  6  2 -1</clus>
<clus scale="   84.090">  1  4  2 -1</clus>
<clus scale="  120.092">  1  3  2 -1</clus>
<clus scale="   88.926">  1  3  2 -1</clus>
</clustering>
</event>
<event>
 6    0  0.1221518E+003  0.6664850E+02  0.7546771E-02  0.1371876E+00
         21   -1    0    0  503  501  0.00000000000E+00  0.00000000000E+00  0.81536778925E+03  0.81536778925E+03  0.00000000000E+00 0. -1.
         21   -1    0    0  505  502 -0.00000000000E+00 -0.00000000000E+00 -0.46306770127E+03  0.46306770127E+03  0.00000000000E+00 0.  1.
         21    1    1    2  503  504  0.65158568746E+02 -0.37403956102E+02  0.48140923496E+03  0.48723664324E+03  0.00000000000E+00 0. -1.
         21    1    1    2  504  506 -0.92461380207E+02  0.48501819614E+02  0.14206872991E+03  0.17630954981E+03  0.00000000000E+00 0.  1.
         21    1    1    2  505  501 -0.19275934162E+02  0.35849908705E+02  0.16692854338E+03  0.17181942901E+03  0.00000000000E+00 0.  1.
         21    1    1    2  506  502  0.46578745624E+02 -0.46947772217E+02 -0.43810642026E+03  0.44306986846E+03  0.00000000000E+00 0.  1.
<scales pt_clust_3="51.78778" pt_clust_4="14000.00000" pt_clust_5="40.70353" pt_clust_6="66.64850"></scales>
<clustering>
<clus scale="   40.704">  1  5  2 -1</clus>
<clus scale="   51.788">  1  3  2 -1</clus>
<clus scale="   66.648">  2  6  1 -1</clus>
<clus scale="   40.704">  1  3  2 -1</clus>
</clustering>
</event>
<event>
 6    0  0.1221518E+003  0.1356708E+03  0.7546771E-02  0.1219276E+00
         21   -1    0    0  502  501  0.00000000000E+00  0.00000000000E+00  0.66728863423E+03  0.66728863423E+03  0.00000000000E+00 0.  1.
         21   -1    0    0  506  502 -0.00000000000E+00 -0.00000000000E+00 -0.11747982013E+04  0.11747982013E+04  0.00000000000E+00 0. -1.
         21    1    1    2  503  504  0.34870902119E+02  0.26601044531E+02  0.56301966499E+02  0.71368808428E+02  0.00000000000E+00 0. -1.
         21    1    1    2  504  501 -0.23032213492E+02  0.32974113829E+02  0.58515593730E+03  0.58653665358E+03  0.00000000000E+00 0.  1.
         21    1    1    2  505  503 -0.13935914365E+03 -0.68663745750E+02 -0.53801258791E+03  0.55999395144E+03  0.00000000000E+00 0.  1.
         21    1    1    2  506  505  0.12752045502E+03  0.90885873894E+01 -0.61095488296E+03  0.62418742208E+03  0.00000000000E+00 0. -1.
<scales pt_clust_3="55.07705" pt_clust_4="40.22157" pt_clust_5="14000.00000" pt_clust_6="135.67079"></scales>
<clustering>
<clus scale="   40.222">  1  4  2 -1</clus>
<clus scale="   55.077">  1  3  2 -1</clus>
<clus scale="  135.671">  2  6  1 -1</clus>
<clus scale="   40.222">  1  3  2 -1</clus>
</clustering>
</event>
<event>
 6    0  0.1221518E+003  0.1058735E+03  0.7546771E-02  0.1268408E+00
         21   -1    0    0  502  501  0.00000000000E+00  0.00000000000E+00  0.14868522766E+04  0.14868522766E+04  0.00000000000E+00 0. -1.
         21   -1    0    0  505  502 -0.00000000000E+00 -0.00000000000E+00 -0.31723139223E+03  0.31723139223E+03  0.00000000000E+00 0.  1.
         21    1    1    2  503  501  0.14615314383E+02  0.34727443202E+02  0.62474833247E+03  0.62588344095E+03  0.00000000000E+00 0. -1.
         21    1    1    2  504  506 -0.41769345153E+02 -0.98442755413E+02  0.95541940330E+01  0.10736357349E+03  0.00000000000E+00 0.  1.
         21    1    1    2  505  504 -0.37630047286E+02  0.46396249941E+02 -0.26300385264E+03  0.26970290872E+03  0.00000000000E+00 0.  1.
         21    1    1    2  506  503  0.64784078057E+02  0.17319062270E+02  0.79832221046E+03  0.80113374564E+03  0.00000000000E+00 0. -1.
<scales pt_clust_3="35.43797" pt_clust_4="94.73130" pt_clust_5="59.73803" pt_clust_6="35.43797"></scales>
<clustering>
<clus scale="   35.438">  3  6 -1 -1</clus>
<clus scale="   59.738">  2  5  1 -1</clus>
<clus scale="   94.731">  2  4  1 -1</clus>
<clus scale="  105.873">  1  3  2 -1</clus>
</clustering>
</event>
<event>
 6    0  0.1221518E+003  0.1175159E+03  0.7546771E-02  0.1247252E+00
         21   -1    0    0  506  501  0.00000000000E+00  0.00000000000E+00  0.42608387047E+03  0.42608387047E+03  0.00000000000E+00 0. -1.
         21   -1    0    0  504  502 -0.00000000000E+00 -0.00000000000E+00 -0.96089434321E+03  0.96089434321E+03  0.00000000000E+00 0. -1.
         21    1    1    2  503  502 -0.59443763442E+02 -0.28783944588E+02 -0.40311147968E+03  0.40848615831E+03  0.00000000000E+00 0. -1.
         21    1    1    2  504  505 -0.52077739175E+02  0.79512454121E+02 -0.48969805050E+03  0.49883714972E+03  0.00000000000E+00 0. -1.
         21    1    1    2  505  501  0.13551945970E+03  0.43314201213E+02  0.35511583544E+03  0.38255574831E+03  0.00000000000E+00 0. -1.
         21    1    1    2  506  503 -0.23997957083E+02 -0.94042710747E+02  0.28832219973E+01  0.97099157349E+02  0.00000000000E+00 0. -1.
<scales pt_clust_3="66.04602" pt_clust_4="14000.00000" pt_clust_5="117.51594" pt_clust_6="100.76168"></scales>
<clustering>
<clus scale="   66.046">  2  3  1 -1</clus>
<clus scale="  100.762">  1  6  2 -1</clus>
<clus scale="  117.516">  1  5  2 -1</clus>
<clus scale="  100.762">  1  3  2 -1</clus>
</clustering>
</event>
<event>
 6    0  0.1221518E+003  0.9555605E+02  0.7546771E-02  0.1289929E+00
         21   -1    0    0  506  501  0.00000000000E+00  0.00000000000E+00  0.13879642197E+03  0.13879642197E+03  0.00000000000E+00 0. -1.
         21   -1    0    0  503  502 -0.00000000000E+00 -0.00000000000E+00 -0.65558088381E+03  0.65558088381E+03  0.00000000000E+00 0.  1.
         21    1    1    2  503  504 -0.57170166013E+02 -0.73884923516E+02 -0.40289013885E+03  0.41357934400E+03  0.00000000000E+00 0.  1.
         21    1    1    2  504  501 -0.99199250546E+02 -0.31808977854E+02 -0.63154340385E+02  0.12182271172E+03  0.00000000000E+00 0. -1.
         21    1    1    2  505  502  0.10717337262E+03  0.46923647232E+02 -0.11115786539E+03  0.16138163311E+03  0.00000000000E+00 0. -1.
         21    1    1    2  506  505  0.49196043941E+02  0.58770254138E+02  0.60417882781E+02  0.97593616956E+02  0.00000000000E+00 0. -1.
<scales pt_clust_3="95.55605" pt_clust_4="75.12189" pt_clust_5="14000.00000" pt_clust_6="76.64329"></scales>
<clustering>
<clus scale="   76.643">  1  6  2 -1</clus>
<clus scale="   75.122">  1  4  2 -1</clus>
<clus scale="   95.556">  2  3  1 -1</clus>
<clus scale="   76.643">  1  3  2 -1</clus>
</clustering>
</event>
<event>
 6    0  0.1221518E+003  0.8457742E+02  0.7546771E-02  0.1316541E+00
         21   -1    0    0  504  501  0.00000000000E+00  0.00000000000E+00  0.18122457570E+04  0.18122457570E+04  0.00000000000E+00 0.  1.
         21   -1    0    0  505  502 -0.00000000000E+00 -0.00000000000E+00 -0.44637201407E+02  0.44637201407E+02  0.00000000000E+00 0.  1.
         21    1    1    2  503  502  0.98305378682E+01  0.32136982414E+02  0.10718167168E+02  0.35274696610E+02  0.00000000000E+00 0.  1.
         21    1    1    2  504  503  0.63215731979E+02  0.27390110126E+02  0.59867036640E+03  0.60262148527E+03  0.00000000000E+00 0.  1.
         21    1    1    2  505  506 -0.96079321552E+02 -0.14197491949E+02  0.49331247911E+02  0.10893290058E+03  0.00000000000E+00 0.  1.
         21    1    1    2  506  501  0.23033051705E+02 -0.45329600591E+02  0.11088887741E+04  0.11100538760E+04  0.00000000000E+00 0.  1.
<scales pt_clust_3="33.60692" pt_clust_4="84.57742" pt_clust_5="14000.00000" pt_clust_6="50.41192"></scales>
<clustering>
<clus scale="   33.607">  2  3  1 -1</clus>
<clus scale="   50.412">  1  6  2 -1</clus>
<clus scale="   84.577">  1  4  2 -1</clus>
<clus scale="   50.412">  1  3  2 -1</clus>
</clustering>
</event>
<event>
 6    0  0.1221518E+003  0.9717128E+02  0.7546771E-02  0.1286359E+00
         21   -1    0    0  503  501  0.00000000000E+00  0.00000000000E+00  0.31389612031E+02  0.31389612031E+02  0.00000000000E+00 0.  1.
         21   -1    0    0  506  502 -0.00000000000E+00 -0.00000000000E+00 -0.21343671919E+04  0.21343671919E+04  0.00000000000E+00 0. -1.
         21    1    1    2  503  505  0.14391434128E+02 -0.33342747463E+02  0.59202860254E+01  0.36795406931E+02  0.00000000000E+00 0.  1.
         21    1    1    2  504  502 -0.65858917783E+00  0.10903038329E+03 -0.13975087834E+04  0.14017556342E+04  0.00000000000E+00 0. -1.
         21    1    1    2  505  504 -0.50721177634E+02 -0.74468242720E+02 -0.64444479404E+03  0.65071287800E+03  0.00000000000E+00 0. -1.
         21    1    1    2  506  501  0.36988332684E+02 -0.12193931119E+01 -0.66944288475E+02  0.76492884857E+02  0.00000000000E+00 0.  1.
<scales pt_clust_3="36.31600" pt_clust_4="97.17128" pt_clust_5="14000.00000" pt_clust_6="47.05016"></scales>
<clustering>
<clus scale="   36.316">  1  3  2 -1</clus>
<clus scale="   47.050">  1  6  2 -1</clus>
<clus scale="   97.171">  2  4  1 -1</clus>
<clus scale="   36.316">  1  3  2 -1</clus>
</clustering>
</event>
<event>
 6    0  0.1221518E+003  0.1515079E+03  0.7546771E-02  0.1198632E+00
         21   -1    0    0  506  501  0.00000000000E+00  0.00000000000E+00  0.31454052583E+03  0.31454052583E+03  0.00000000000E+00 0. -1.
         21   -1    0    0  504  502 -0.00000000000E+00 -0.00000000000E+00 -0.32092683233E+03  0.32092683233E+03  0.00000000000E+00 0. -1.
         21    1    1    2  503  502  0.15562632372E+02  0.30317760695E+02 -0.19612002459E+03  0.19905885106E+03  0.00000000000E+00 0. -1.
         21    1    1    2  504  501 -0.11166117654E+03  0.81875549647E+02 -0.53731074127E+02  0.14852222832E+03  0.00000000000E+00 0. -1.
         21    1    1    2  505  503  0.50324891476E+02 -0.28097021435E+02  0.83629331705E+02  0.10156723112E+03  0.00000000000E+00 0. -1.
         21    1    1    2  506  505  0.45773652695E+02 -0.84096288907E+02  0.15983546051E+03  0.18631904767E+03  0.00000000000E+00 0. -1.
<scales pt_clust_3="34.07876" pt_clust_4="145.51116" pt_clust_5="32.74446" pt_clust_6="32.74446"></scales>
<clustering>
<clus scale="   32.744">  5  6 -1 -1</clus>
<clus scale="   34.079">  2  3  1 -1</clus>
<clus scale="  145.511">  2  4  1 -1</clus>
<clus scale="  151.508">  1  3  2 -1</clus>
</clustering>
</event>
<event>
 6    0  0.1221518E+003  0.1285809E+03  0.7546771E-02  0.1229577E+00
         21   -1    0    0  506  501  0.00000000000E+00  0.00000000000E+00  0.52145319137E+02  0.52145319137E+02  0.00000000000E+00 0. -1.
         21   -1    0    0  505  502 -0.00000000000E+00 -0.00000000000E+00 -0.10823296019E+04  0.10823296019E+04  0.00000000000E+00 0. -1.
         21    1    1    2  503  502  0.14527702155E+03 -0.33996956911E+02 -0.87046911053E+03  0.88316344946E+03  0.00000000000E+00 0. -1.
         21    1    1    2  504  503 -0.44247036084E+02  0.41700788650E+02 -0.33133047545E+02  0.69242723920E+02  0.00000000000E+00 0. -1.
         21    1    1    2  505  501 -0.39366237115E+02  0.72959023552E+01 -0.10914269448E+03  0.11625428411E+03  0.00000000000E+00 0. -1.
         21    1    1    2  506  504 -0.61663748351E+02 -0.14999734094E+02 -0.17439430181E+02  0.65814463522E+02  0.00000000000E+00 0. -1.
<scales pt_clust_3="113.04959" pt_clust_4="60.09733" pt_clust_5="40.03662" pt_clust_6="60.09733"></scales>
<clustering>
<clus scale="   40.037">  2  5  1 -1</clus>
<clus scale="   60.097">  4  6 -1 -1</clus>
<clus scale="  113.050">  2  3  1 -1</clus>
<clus scale="  128.581">  1  3  2 -1</clus>
</clustering>
</event>
<event>
 6    0  0.1221518E+003  0.1107572E+03  0.7546771E-02  0.1259174E+00
         21   -1    0    0  506  501  0.00000000000E+00  0.00000000000E+00  0.64159345027E+03  0.64159345027E+03  0.00000000000E+00 0.  1.
         21   -1    0    0  503  502 -0.00000000000E+00 -0.00000000000E+00 -0.35901526629E+03  0.35901526629E+03  0.00000000000E+00 0. -1.
         21    1    1    2  503  504  0.11026115546E+03 -0.26329524697E+02  0.15289126617E+03  0.19033261818E+03  0.00000000000E+00 0. -1.
         21    1    1    2  504  501 -0.92956090936E+01 -0.29178303205E+02  0.43972944250E+03  0.44079446949E+03  0.00000000000E+00 0.  1.
         21    1    1    2  505  502 -0.47354018973E+02 -0.37899125318E+02 -0.22271700800E+03  0.23082810155E+03  0.00000000000E+00 0. -1.
         21    1    1    2  506  505 -0.53611527389E+02  0.93406953221E+02 -0.87325516689E+02  0.13865352734E+03  0.00000000000E+00 0.  1.
<scales pt_clust_3="14000.00000" pt_clust_4="30.62322" pt_clust_5="61.16708" pt_clust_6="110.75721"></scales>
<clustering>
<clus scale="   30.623">  1  4  2 -1</clus>
<clus scale="   61.167">  2  5  1 -1</clus>
<clus scale="  110.757">  2  6  1 -1</clus>
<clus scale="   30.623">  1  3  2 -1</clus>
</clustering>
</event>
<event>
 6    0  0.1221518E+003  0.1897190E+03  0.7546771E-02  0.1158715E+00
         21   -1    0    0  503  501  0.00000000000E+00  0.00000000000E+00  0.82925184296E+02  0.82925184296E+02  0.00000000000E+00 0.  1.
         21   -1    0    0  504  502 -0.00000000000E+00 -0.00000000000E+00 -0.89080890677E+03  0.89080890677E+03  0.00000000000E+00 0.  1.
         21    1    1    2  503  506 -0.19288697441E+03  0.25699426027E+02 -0.87649338436E+02  0.21342036436E+03  0.00000000000E+00 0.  1.
         21    1    1    2  504  501  0.16846291108E+02  0.30088710750E+02 -0.33109906247E+02  0.47805793899E+02  0.00000000000E+00 0.  1.
         21    1    1    2  505  502  0.70476017854E+02 -0.16025196912E+02 -0.20516721518E+03  0.21752531396E+03  0.00000000000E+00 0.  1.
         21    1    1    2  506  505  0.10556466545E+03 -0.39762939865E+02 -0.48195726261E+03  0.49498261885E+03  0.00000000000E+00 0.  1.
<scales pt_clust_3="185.92590" pt_clust_4="34.48374" pt_clust_5="30.21461" pt_clust_6="30.21461"></scales>
<clustering>
<clus scale="   30.215">  5  6 -1 -1</clus>
<clus scale="   34.484">  1  4  2 -1</clus>
<clus scale="  185.926">  1  3  2 -1</clus>
<clus scale="   34.484">  1  3  2 -1</clus>
</clustering>
</event>
<event>
 6    0  0.1221518E+003  0.9968390E+02  0.7546771E-02  0.1280962E+00
         21   -1    0    0  505  501  0.00000000000E+00  0.00000000000E+00  0.19202864217E+03  0.19202864217E+03  0.00000000000E+00 0. -1.
         21   -1    0    0  504  502 -0.00000000000E+00 -0.00000000000E+00 -0.71808302557E+03  0.71808302557E+03  0.00000000000E+00 0.  1.
         21    1    1    2  503  502  0.58840272858E+02  0.49454390347E+01 -0.61681128674E+03  0.61963117944E+03  0.00000000000E+00 0.  1.
         21    1    1    2  504  501 -0.20751675093E+02 -0.38062757738E+02  0.20450334979E+01  0.43400319213E+02  0.00000000000E+00 0.  1.
         21    1    1    2  505  506 -0.10071826377E+03  0.61554801062E+02  0.12278383907E+03  0.17032038435E+03  0.00000000000E+00 0. -1.
         21    1    1    2  506  503  0.62629666004E+02 -0.28437482358E+02 -0.34071969215E+02  0.76759784737E+02  0.00000000000E+00 0.  1.
<scales pt_clust_3="58.84975" pt_clust_4="43.35211" pt_clust_5="99.68390" pt_clust_6="14000.00000"></scales>
<clustering>
<clus scale="   43.352">  1  4  2 -1</clus>
<clus scale="   58.850">  2  3  1 -1</clus>
<clus scale="   99.684">  1  5  2 -1</clus>
<clus scale="   43.352">  1  3  2 -1</clus>
</clustering>
</event>
<event>
 6    0  0.1221518E+003  0.1576968E+03  0.7546771E-02  0.1191322E+00
         21   -1    0    0  502  501  0.00000000000E+00  0.00000000000E+00  0.11348135779E+04  0.11348135779E+04  0.00000000000E+00 0.  1.
         21   -1    0    0  505  502 -0.00000000000E+00 -0.00000000000E+00 -0.11339991231E+04  0.11339991231E+04  0.00000000000E+00 0. -1.
         21    1    1    2  503  504 -0.16549238874E+03 -0.79425546612E+02 -0.33643018931E+03  0.38325111933E+03  0.00000000000E+00 0.  1.
         21    1    1    2  504  506  0.87481690046E+02  0.34188474130E+02  0.19568057069E+03  0.21705479401E+03  0.00000000000E+00 0.  1.
         21    1    1    2  505  503  0.33636057238E+02 -0.17119717860E+02 -0.76138506049E+03  0.76231993246E+03  0.00000000000E+00 0. -1.
         21    1    1    2  506  501  0.44374641457E+02  0.62356790342E+02  0.90294913387E+03  0.90618685516E+03  0.00000000000E+00 0.  1.
<scales pt_clust_3="157.69676" pt_clust_4="14000.00000" pt_clust_5="37.74214" pt_clust_6="76.55849"></scales>
<clustering>
<clus scale="   37.742">  2  5  1 -1</clus>
<clus scale="   76.558">  1  6  2 -1</clus>
<clus scale="  157.697">  2  3  1 -1</clus>
<clus scale="   76.558">  1  3  2 -1</clus>
</clustering>
</event>
<event>
 6    0  0.1221518E+003  0.1698177E+03  0.7546771E-02  0.1178038E+00
         21   -1    0    0  504  501  0.00000000000E+00  0.00000000000E+00  0.10820780539E+04  0.10820780539E+04  0.00000000000E+00 0.  1.
         21   -1    0    0  503  502 -0.00000000000E+00 -0.00000000000E+00 -0.24041166632E+03  0.24041166632E+03  0.00000000000E+00 0. -1.
         21    1    1    2  503  505  0.12402053058E+03  0.98154772037E+02 -0.23003665704E+02  0.15982684354E+03  0.00000000000E+00 0. -1.
         21    1    1    2  504  502 -0.69672464877E+01  0.32867339151E+02 -0.13789841298E+03  0.14193229657E+03  0.00000000000E+00 0. -1.
         21    1    1    2  505  506 -0.83544368939E+02 -0.11675079779E+03  0.61868612281E+03  0.63512434131E+03  0.00000000000E+00 0.  1.
         21    1    1    2  506  501 -0.33508915155E+02 -0.14271313394E+02  0.38388234343E+03  0.38560623877E+03  0.00000000000E+00 0.  1.
<scales pt_clust_3="14000.00000" pt_clust_4="33.59769" pt_clust_5="169.81768" pt_clust_6="36.36701"></scales>
<clustering>
<clus scale="   33.598">  2  4  1 -1</clus>
<clus scale="   36.367">  1  6  2 -1</clus>
<clus scale="  169.818">  1  5  2 -1</clus>
<clus scale="   36.367">  1  3  2 -1</clus>
</clustering>
</event>
<event>
 6    0  0.1221518E+003  0.1219207E+03  0.7546771E-02  0.1239962E+00
         21   -1    0    0  506  501  0.00000000000E+00  0.00000000000E+00  0.76685112291E+03  0.76685112291E+03  0.00000000000E+00 0.  1.
         21   -1    0    0  504  502 -0.00000000000E+00 -0.00000000000E+00 -0.18220976340E+04  0.18220976340E+04  0.00000000000E+00 0.  1.
         21    1    1    2  503  501  0.14042716778E+03  0.13117387888E+03 -0.26763362662E+03  0.32947554393E+03  0.00000000000E+00 0.  1.
         21    1    1    2  504  503 -0.30599106310E+02 -0.16616221441E+02 -0.60916275985E+02  0.70165495807E+02  0.00000000000E+00 0. -1.
         21    1    1    2  505  502 -0.41771974984E+02 -0.14725883759E+02 -0.14526719315E+04  0.14533469958E+04  0.00000000000E+00 0.  1.
         21    1    1    2  506  505 -0.68056086481E+02 -0.99831773681E+02  0.72597532297E+03  0.73596072144E+03  0.00000000000E+00 0.  1.
<scales pt_clust_3="121.92066" pt_clust_4="34.81959" pt_clust_5="72.87489" pt_clust_6="14000.00000"></scales>
<clustering>
<clus scale="   34.820">  2  4  1 -1</clus>
<clus scale="   72.875">  2  5  1 -1</clus>
<clus scale="  121.921">  2  3  1 -1</clus>
<clus scale="  121.921">  1  3  2 -1</clus>
</clustering>
</event>
<event>
 6    0  0.1221518E+003  0.8395486E+02  0.7546771E-02  0.1318189E+00
         21   -1    0    0  505  501  0.00000000000E+00  0.00000000000E+00  0.13162501723E+03  0.13162501723E+03  0.00000000000E+00 0. -1.
         21   -1    0    0  504  502 -0.00000000000E+00 -0.00000000000E+00 -0.36942620424E+03  0.36942620424E+03  0.00000000000E+00 0. -1.
         21    1    1    2  503  506 -0.41588824307E+02 -0.53156625614E+02 -0.39487480423E+02  0.78195385184E+02  0.00000000000E+00 0.  1.
         21    1    1    2  504  503 -0.37294880095E+02  0.23935807910E+02 -0.21754492620E+03  0.22201267057E+03  0.00000000000E+00 0. -1.
         21    1    1    2  505  502  0.43009713979E+02 -0.54253130573E+02 -0.51014595523E+02  0.85998410624E+02  0.00000000000E+00 0. -1.
         21    1    1    2  506  501  0.35873990423E+02  0.83473948277E+02  0.70245815128E+02  0.11484475510E+03  0.00000000000E+00 0. -1.
<scales pt_clust_3="83.95486" pt_clust_4="44.31513" pt_clust_5="50.47002" pt_clust_6="14000.00000"></scales>
<clustering>
<clus scale="   44.315">  2  4  1 -1</clus>
<clus scale="   50.470">  2  5  1 -1</clus>
<clus scale="   83.955">  2  3  1 -1</clus>
<clus scale="   83.955">  1  3  2 -1</clus>
</clustering>
</event>
<event>
 6    0  0.1221518E+003  0.1328123E+03  0.7546771E-02  0.1223342E+00
         21   -1    0    0  503  501  0.00000000000E+00  0.00000000000E+00  0.34324554574E+03  0.34324554574E+03  0.00000000000E+00 0.  1.
         21   -1    0    0  506  502 -0.00000000000E+00 -0.00000000000E+00 -0.34312938169E+03  0.34312938169E+03  0.00000000000E+00 0.  1.
         21    1    1    2  503  505 -0.39948816837E+02  0.15366392090E+02  0.66240954954E+02  0.78866330495E+02  0.00000000000E+00 0.  1.
         21    1    1    2  504  501 -0.58886948123E+01 -0.38650154732E+02  0.21187519779E+03  0.21545210750E+03  0.00000000000E+00 0.  1.
         21    1    1    2  505  502 -0.11190166866E+03  0.36255216617E+02 -0.13082425396E+03  0.17593012705E+03  0.00000000000E+00 0.  1.
         21    1    1    2  506  504  0.15773918030E+03 -0.12971453975E+02 -0.14717573474E+03  0.21612636238E+03  0.00000000000E+00 0.  1.
<scales pt_clust_3="43.69868" pt_clust_4="39.09618" pt_clust_5="132.81225" pt_clust_6="14000.00000"></scales>
<clustering>
<clus scale="   39.096">  1  4  2 -1</clus>
<clus scale="   43.699">  1  3  2 -1</clus>
<clus scale="  132.812">  2  5  1 -1</clus>
<clus scale="   39.096">  1  3  2 -1</clus>
</clustering>
</event>
<event>
 6    0  0.1221518E+003  0.1607641E+03  0.7546771E-02  0.1187837E+00
         21   -1    0    0  504  501  0.00000000000E+00  0.00000000000E+00  0.52564407014E+03  0.52564407014E+03  0.00000000000E+00 0. -1.
         21   -1    0    0  505  502 -0.00000000000E+00 -0.00000000000E+00 -0.13314901504E+03  0.13314901504E+03  0.00000000000E+00 0.  1.
         21    1    1    2  503  501 -0.25651688894E+02 -0.27577523069E+02  0.33889554943E+03  0.34098199710E+03  0.00000000000E+00 0. -1.
         21    1    1    2  504  506  0.85571069632E+02  0.92076074438E+01  0.37474378493E+02  0.93869681134E+02  0.00000000000E+00 0.  1.
         21    1    1    2  505  503 -0.13734350637E+03 -0.73936381722E-01  0.35845311685E+02  0.14194411076E+03  0.00000000000E+00 0.  1.
         21    1    1    2  506  502  0.77424125631E+02  0.18443852007E+02 -0.19720184511E+02  0.81997296198E+02  0.00000000000E+00 0.  1.
<scales pt_clust_3="37.66336" pt_clust_4="56.50247" pt_clust_5="150.21038" pt_clust_6="56.50247"></scales>
<clustering>
<clus scale="   37.663">  1  3  2 -1</clus>
<clus scale="   56.502">  4  6 -1 -1</clus>
<clus scale="  150.210">  2  5  1 -1</clus>
<clus scale="   37.663">  1  3  2 -1</clus>
</clustering>
</event>
<event>
 6    0  0.1221518E+003  0.6272551E+02  0.7546771E-02  0.1386737E+00
         21   -1    0    0  506  501  0.00000000000E+00  0.00000000000E+00  0.41856277050E+03  0.41856277050E+03  0.00000000000E+00 0.  1.
         21   -1    0    0  505  502 -0.00000000000E+00 -0.00000000000E+00 -0.12776116897E+03  0.12776116897E+03  0.00000000000E+00 0. -1.
         21    1    1    2  503  501 -0.35625874703E+02  0.84907319706E+02  0.30495548383E+03  0.31855345392E+03  0.00000000000E+00 0.  1.
         21    1    1    2  504  502 -0.23475130554E+01 -0.95025361536E+02 -0.75119904523E+02  0.12115415886E+03  0.00000000000E+00 0. -1.
         21    1    1    2  505  503  0.11838355051E+02  0.42673370195E+02  0.21748726865E+02  0.49337311382E+02  0.00000000000E+00 0. -1.
         21    1    1    2  506  504  0.26135032708E+02 -0.32555328366E+02  0.39217295361E+02  0.57279015312E+02  0.00000000000E+00 0.  1.
<scales pt_clust_3="62.72551" pt_clust_4="14000.00000" pt_clust_5="42.07053" pt_clust_6="41.74793"></scales>
<clustering>
<clus scale="   41.748">  1  6  2 -1</clus>
<clus scale="   42.071">  2  5  1 -1</clus>
<clus scale="   62.726">  1  3  2 -1</clus>
<clus scale="   41.748">  1  3  2 -1</clus>
</clustering>
</event>
<event>
 6    0  0.1221518E+003  0.1584128E+03  0.7546771E-02  0.1190500E+00
         21   -1    0    0  503  501  0.00000000000E+00  0.00000000000E+00  0.33719661710E+03  0.33719661710E+03  0.00000000000E+00 0. -1.
         21   -1    0    0  504  502 -0.00000000000E+00 -0.00000000000E+00 -0.21161738592E+03  0.21161738592E+03  0.00000000000E+00 0. -1.
         21    1    1    2  503  506  0.17537275954E+03 -0.70155756050E+02  0.17214619235E+03  0.25556162943E+03  0.00000000000E+00 0. -1.
         21    1    1    2  504  501 -0.28943912638E+02 -0.10030099623E+02  0.30919788500E+02  0.43524548225E+02  0.00000000000E+00 0.  1.
         21    1    1    2  505  502 -0.35778524508E+02  0.94631378693E+01 -0.10863281310E+03  0.11476385266E+03  0.00000000000E+00 0. -1.
         21    1    1    2  506  505 -0.11065032240E+03  0.70722717803E+02  0.31146063429E+02  0.13496397270E+03  0.00000000000E+00 0. -1.
<scales pt_clust_3="158.41279" pt_clust_4="30.63255" pt_clust_5="37.26899" pt_clust_6="14000.00000"></scales>
<clustering>
<clus scale="   30.633">  1  4  2 -1</clus>
<clus scale="   37.269">  2  5  1 -1</clus>
<clus scale="  158.413">  1  3  2 -1</clus>
<clus scale="   30.633">  1  3  2 -1</clus>
</clustering>
</event>
<event>
 6    0  0.1221518E+003  0.1387098E+03  0.7546771E-02  0.1215076E+00
         21   -1    0    0  506  501  0.00000000000E+00  0.00000000000E+00  0.22188458658E+03  0.22188458658E+03  0.00000000000E+00 0. -1.
         21   -1    0    0  505  502 -0.00000000000E+00 -0.00000000000E+00 -0.41303259507E+03  0.41303259507E+03  0.00000000000E+00 0. -1.
         21    1    1    2  503  502 -0.30580777349E+02 -0.32389476572E+00 -0.15581769275E+03  0.15879056088E+03  0.00000000000E+00 0. -1.
         21    1    1    2  504  503  0.10951467643E+02 -0.57345783809E+02 -0.60413834184E+01  0.58693882798E+02  0.00000000000E+00 0. -1.
         21    1    1    2  505  501  0.11798921465E+03 -0.45011347842E+02 -0.17370998571E+03  0.21476181072E+03  0.00000000000E+00 0. -1.
         21    1    1    2  506  504 -0.98359904941E+02  0.10268102642E+03  0.14442105339E+03  0.20267092724E+03  0.00000000000E+00 0. -1.
<scales pt_clust_3="30.58249" pt_clust_4="57.82198" pt_clust_5="138.70976" pt_clust_6="14000.00000"></scales>
<clustering>
<clus scale="   30.582">  2  3  1 -1</clus>
<clus scale="   57.822">  2  4  1 -1</clus>
<clus scale="  138.710">  2  5  1 -1</clus>
<clus scale="  138.710">  1  3  2 -1</clus>
</clustering>
</event>
<event>
 6    0  0.1221518E+003  0.7094867E+02  0.7546771E-02  0.1356896E+00
         21   -1    0    0  503  501  0.00000000000E+00  0.00000000000E+00  0.37539571775E+03  0.37539571775E+03  0.00000000000E+00 0. -1.
         21   -1    0    0  505  502 -0.00000000000E+00 -0.00000000000E+00 -0.19248261766E+03  0.19248261766E+03  0.00000000000E+00 0. -1.
         21    1    1    2  503  506 -0.29537164977E+01 -0.34705796388E+02  0.20198972815E+02  0.40264317290E+02  0.00000000000E+00 0.  1.
         21    1    1    2  504  501 -0.57506652811E+01  0.78157457773E+02  0.18170671855E+03  0.19788630555E+03  0.00000000000E+00 0. -1.
         21    1    1    2  505  504 -0.68119625447E+02  0.16117596093E+02 -0.15062098809E+03  0.16609257156E+03  0.00000000000E+00 0. -1.
         21    1    1    2  506  502  0.76824007226E+02 -0.59569257478E+02  0.13162839682E+03  0.16363514100E+03  0.00000000000E+00 0. -1.
<scales pt_clust_3="34.83126" pt_clust_4="59.53223" pt_clust_5="70.94867" pt_clust_6="14000.00000"></scales>
<clustering>
<clus scale="   34.831">  1  3  2 -1</clus>
<clus scale="   59.532">  1  4  2 -1</clus>
<clus scale="   70.949">  2  5  1 -1</clus>
<clus scale="   34.831">  1  3  2 -1</clus>
</clustering>
</event>
<event>
 6    0  0.1221518E+003  0.8059138E+02  0.7546771E-02  0.1327382E+00
         21   -1    0    0  504  501  0.00000000000E+00  0.00000000000E+00  0.11098693632E+03  0.11098693632E+03  0.00000000000E+00 0. -1.
         21   -1    0    0  503  502 -0.00000000000E+00 -0.00000000000E+00 -0.62429240566E+03  0.62429240566E+03  0.00000000000E+00 0. -1.
         21    1    1    2  503  506  0.73611096836E+02  0.32392752772E+02 -0.31681695868E+03  0.32686521583E+03  0.00000000000E+00 0. -1.
         21    1    1    2  504  505 -0.18908006419E+02 -0.52485969246E+02  0.78535450287E+02  0.96333310055E+02  0.00000000000E+00 0. -1.
         21    1    1    2  505  502 -0.87933101343E+02  0.13634678087E+02 -0.26043844459E+03  0.27522049011E+03  0.00000000000E+00 0. -1.
         21    1    1    2  506  501  0.33230010926E+02  0.64585383868E+01 -0.14585516360E+02  0.36860325985E+02  0.00000000000E+00 0.  1.
<scales pt_clust_3="14000.00000" pt_clust_4="47.92634" pt_clust_5="80.59138" pt_clust_6="33.85183"></scales>
<clustering>
<clus scale="   33.852">  1  6  2 -1</clus>
<clus scale="   47.926">  1  4  2 -1</clus>
<clus scale="   80.591">  1  5  2 -1</clus>
<clus scale="   33.852">  1  3  2 -1</clus>
</clustering>
</event>
<event>
 6    0  0.1221518E+003  0.2092509E+03  0.7546771E-02  0.1142161E+00
         21   -1    0    0  503  501  0.00000000000E+00  0.00000000000E+00  0.60233241522E+02  0.60233241522E+02  0.00000000000E+00 0. -1.
         21   -1    0    0  505  502 -0.00000000000E+00 -0.00000000000E+00 -0.15919541506E+04  0.15919541506E+04  0.00000000000E+00 0.  1.
         21    1    1    2  503  506  0.20287237402E+02 -0.19566883072E+03 -0.30935729647E+03  0.36660578309E+03  0.00000000000E+00 0. -1.
         21    1    1    2  504  501 -0.14472812489E+02 -0.38015517572E+02 -0.70678321301E+01  0.41286754881E+02  0.00000000000E+00 0.  1.
         21    1    1    2  505  504 -0.82175799905E+01  0.29794981712E+02 -0.48739793149E+03  0.48837691712E+03  0.00000000000E+00 0.  1.
         21    1    1    2  506  502  0.24031550777E+01  0.20388936658E+03 -0.72789784894E+03  0.75591793698E+03  0.00000000000E+00 0.  1.
<scales pt_clust_3="209.25086" pt_clust_4="40.13354" pt_clust_5="30.90744" pt_clust_6="14000.00000"></scales>
<clustering>
<clus scale="   30.907">  2  5  1 -1</clus>
<clus scale="   40.134">  1  4  2 -1</clus>
<clus scale="  209.251">  1  3  2 -1</clus>
<clus scale="   40.134">  1  3  2 -1</clus>
</clustering>
</event>
<event>
 6    0  0.1221518E+003  0.8604646E+02  0.7546771E-02  0.1312718E+00
         21   -1    0    0  503  501  0.00000000000E+00  0.00000000000E+00  0.23774699362E+03  0.23774699362E+03  0.00000000000E+00 0.  1.
         21   -1    0    0  505  502 -0.00000000000E+00 -0.00000000000E+00 -0.51249867264E+03  0.51249867264E+03  0.00000000000E+00 0.  1.
         21    1    1    2  503  504  0.11262255336E+02  0.46369955613E+02  0.17143509289E+03  0.17795224712E+03  0.00000000000E+00 0.  1.
         21    1    1    2  504  502 -0.10642518705E+03 -0.17954728353E+01 -0.10665047833E+03  0.15067802988E+03  0.00000000000E+00 0.  1.
         21    1    1    2  505  506  0.28509269043E+02 -0.59064312266E+02 -0.34686633334E+03  0.35301221595E+03  0.00000000000E+00 0.  1.
         21    1    1    2  506  501  0.66653662674E+02  0.14489829489E+02  0.73300397515E+01  0.68603173317E+02  0.00000000000E+00 0.  1.
<scales pt_clust_3="47.71804" pt_clust_4="86.04646" pt_clust_5="63.80533" pt_clust_6="14000.00000"></scales>
<clustering>
<clus scale="   47.718">  1  3  2 -1</clus>
<clus scale="   63.805">  2  5  1 -1</clus>
<clus scale="   86.046">  2  4  1 -1</clus>
<clus scale="   47.718">  1  3  2 -1</clus>
</clustering>
</event>
<event>
 6    0  0.1221518E+003  0.8112086E+02  0.7546771E-02  0.1325900E+00
         21   -1    0    0  506  501  0.00000000000E+00  0.00000000000E+00  0.39093357992E+03  0.39093357992E+03  0.00000000000E+00 0. -1.
         21   -1    0    0  505  502 -0.00000000000E+00 -0.00000000000E+00 -0.87084939697E+02  0.87084939697E+02  0.00000000000E+00 0.  1.
         21    1    1    2  503  502  0.11011940849E+03  0.58534613099E+01  0.33052566967E+02  0.11512175866E+03  0.00000000000E+00 0.  1.
         21    1    1    2  504  501 -0.47148797266E+01 -0.30977250297E+02  0.10743746649E+03  0.11191349040E+03  0.00000000000E+00 0. -1.
         21    1    1    2  505  504 -0.34138036612E+02  0.51008592652E+01 -0.28866750825E+02  0.44996817800E+02  0.00000000000E+00 0.  1.
         21    1    1    2  506  503 -0.71266492149E+02  0.20022929722E+02  0.19222535759E+03  0.20598645275E+03  0.00000000000E+00 0. -1.
<scales pt_clust_3="81.12086" pt_clust_4="31.33401" pt_clust_5="34.53115" pt_clust_6="14000.00000"></scales>
<clustering>
<clus scale="   31.334">  1  4  2 -1</clus>
<clus scale="   34.531">  2  5  1 -1</clus>
<clus scale="   81.121">  2  3  1 -1</clus>
<clus scale="   31.334">  1  3  2 -1</clus>
</clustering>
</event>
<event>
 6    0  0.1221518E+003  0.8490871E+02  0.7546771E-02  0.1315671E+00
         21   -1    0    0  504  501  0.00000000000E+00  0.00000000000E+00  0.36072040431E+02  0.36072040431E+02  0.00000000000E+00 0. -1.
         21   -1    0    0  506  502 -0.00000000000E+00 -0.00000000000E+00 -0.12067928927E+04  0.12067928927E+04  0.00000000000E+00 0. -1.
         21    1    1    2  503  505  0.79724352830E+02  0.19086391979E+02 -0.15882606641E+03  0.17873438999E+03  0.00000000000E+00 0. -1.
         21    1    1    2  504  503  0.44183207778E+02 -0.15840116706E+02 -0.10827790384E+02  0.48169556687E+02  0.00000000000E+00 0. -1.
         21    1    1    2  505  502 -0.36047109061E+02 -0.14318267537E+01 -0.73237603448E+03  0.73326400435E+03  0.00000000000E+00 0. -1.
         21    1    1    2  506  501 -0.87860451547E+02 -0.18144485195E+01 -0.26869096099E+03  0.28269698209E+03  0.00000000000E+00 0. -1.
<scales pt_clust_3="84.90871" pt_clust_4="44.86293" pt_clust_5="36.07553" pt_clust_6="14000.00000"></scales>
<clustering>
<clus scale="   36.076">  2  5  1 -1</clus>
<clus scale="   44.863">  1  4  2 -1</clus>
<clus scale="   84.909">  2  3  1 -1</clus>
<clus scale="   44.863">  1  3  2 -1</clus>
</clustering>
</event>
<event>
 6    0  0.1221518E+003  0.1415538E+03  0.7546771E-02  0.1211253E+00
         21   -1    0    0  502  501  0.00000000000E+00  0.00000000000E+00  0.12266367230E+04  0.12266367230E+04  0.00000000000E+00 0. -1.
         21   -1    0    0  506  502 -0.00000000000E+00 -0.00000000000E+00 -0.46644744296E+02  0.46644744296E+02  0.00000000000E+00 0. -1.
         21    1    1    2  503  505 -0.36658259840E+02 -0.72187889174E+02  0.11398386458E+03  0.13981144710E+03  0.00000000000E+00 0. -1.
         21    1    1    2  504  501  0.68901163901E+02  0.11515531371E+03  0.99585911924E+03  0.10048599415E+04  0.00000000000E+00 0. -1.
         21    1    1    2  505  504  0.12424055199E+02 -0.55819223803E+02  0.55967446740E+02  0.80015610903E+02  0.00000000000E+00 0. -1.
         21    1    1    2  506  503 -0.44666959260E+02  0.12851799265E+02  0.14181548186E+02  0.48594467822E+02  0.00000000000E+00 0. -1.
<scales pt_clust_3="41.74620" pt_clust_4="132.55233" pt_clust_5="41.74620" pt_clust_6="46.47909"></scales>
<clustering>
<clus scale="   41.746">  3  5 -1 -1</clus>
<clus scale="   46.479">  2  6  1 -1</clus>
<clus scale="  132.552">  1  4  2 -1</clus>
<clus scale="  132.552">  1  3  2 -1</clus>
</clustering>
</event>
<event>
 6    0  0.1221518E+003  0.1267812E+03  0.7546771E-02  0.1232312E+00
         21   -1    0    0  503  501  0.00000000000E+00  0.00000000000E+00  0.18142305594E+03  0.18142305594E+03  0.00000000000E+00 0. -1.
         21   -1    0    0  505  502 -0.00000000000E+00 -0.00000000000E+00 -0.35680586525E+03  0.35680586525E+03  0.00000000000E+00 0. -1.
         21    1    1    2  503  502 -0.19651732633E+02 -0.66708709578E+02  0.23227675558E+02  0.73319625210E+02  0.00000000000E+00 0. -1.
         21    1    1    2  504  501  0.63264496311E+01 -0.39761524227E+02  0.75566445230E+02  0.85622954974E+02  0.00000000000E+00 0. -1.
         21    1    1    2  505  506 -0.15890936943E+02  0.12628582843E+03 -0.30621440455E+03  0.33161407373E+03  0.00000000000E+00 0. -1.
         21    1    1    2  506  504  0.29216219944E+02 -0.19815594621E+02  0.32037474457E+02  0.47672267280E+02  0.00000000000E+00 0. -1.
<scales pt_clust_3="69.54310" pt_clust_4="34.73851" pt_clust_5="121.23186" pt_clust_6="34.73851"></scales>
<clustering>
<clus scale="   34.739">  4  6 -1 -1</clus>
<clus scale="   69.543">  1  3  2 -1</clus>
<clus scale="  121.232">  2  5  1 -1</clus>
<clus scale="   69.543">  1  3  2 -1</clus>
</clustering>
</event>
<event>
 6    0  0.1221518E+003  0.6227489E+02  0.7546771E-02  0.1388526E+00
         21   -1    0    0  504  501  0.00000000000E+00  0.00000000000E+00  0.35348540274E+02  0.35348540274E+02  0.00000000000E+00 0.  1.
         21   -1    0    0  503  502 -0.00000000000E+00 -0.00000000000E+00 -0.87285071647E+03  0.87285071647E+03  0.00000000000E+00 0.  1.
         21    1    1    2  503  506  0.65570017874E+02  0.22408251846E+02 -0.18923602667E+03  0.20152377226E+03  0.00000000000E+00 0.  1.
         21    1    1    2  504  505 -0.81008968679E+02 -0.93528273792E+01 -0.18541494997E+03  0.20255525680E+03  0.00000000000E+00 0.  1.
         21    1    1    2  505  502 -0.42379591254E+02 -0.17496897725E+02 -0.43904890673E+03  0.44143642088E+03  0.00000000000E+00 0. -1.
         21    1    1    2  506  501  0.57818542060E+02  0.44414732586E+01 -0.23802292824E+02  0.62683806795E+02  0.00000000000E+00 0.  1.
<scales pt_clust_3="48.64332" pt_clust_4="14000.00000" pt_clust_5="45.84944" pt_clust_6="62.27489"></scales>
<clustering>
<clus scale="   45.849">  2  5  1 -1</clus>
<clus scale="   48.643">  2  3  1 -1</clus>
<clus scale="   62.275">  1  6  2 -1</clus>
<clus scale="   62.275">  1  3  2 -1</clus>
</clustering>
</event>
<event>
 6    0  0.1221518E+003  0.1560113E+03  0.7546771E-02  0.1193275E+00
         21   -1    0    0  505  501  0.00000000000E+00  0.00000000000E+00  0.19557850116E+03  0.19557850116E+03  0.00000000000E+00 0. -1.
         21   -1    0    0  506  502 -0.00000000000E+00 -0.00000000000E+00 -0.59194717483E+03  0.59194717483E+03  0.00000000000E+00 0. -1.
         21    1    1    2  503  501  0.11494345113E+02 -0.32475531678E+02  0.11943845538E+02  0.36461425831E+02  0.00000000000E+00 0. -1.
         21    1    1    2  504  502 -0.14017169954E+03  0.59372160528E+02 -0.52987588918E+03  0.55130900294E+03  0.00000000000E+00 0. -1.
         21    1    1    2  505  504  0.42166332253E+02  0.12429970114E+01  0.96616314147E+02  0.10542417548E+03  0.00000000000E+00 0. -1.
         21    1    1    2  506  503  0.86511022173E+02 -0.28139625861E+02  0.24947055820E+02  0.94331071737E+02  0.00000000000E+00 0. -1.
<scales pt_clust_3="30.56167" pt_clust_4="147.89533" pt_clust_5="42.18465" pt_clust_6="30.56167"></scales>
<clustering>
<clus scale="   30.562">  3  6 -1 -1</clus>
<clus scale="   42.185">  1  5  2 -1</clus>
<clus scale="  147.895">  2  4  1 -1</clus>
<clus scale="   42.185">  1  3  2 -1</clus>
</clustering>
</event>
<event>
 6    0  0.1221518E+003  0.1021450E+03  0.7546771E-02  0.1275849E+00
         21   -1    0    0  504  501  0.00000000000E+00  0.00000000000E+00  0.95842853169E+03  0.95842853169E+03  0.00000000000E+00 0.  1.
         21   -1    0    0  505  502 -0.00000000000E+00 -0.00000000000E+00 -0.43715619597E+02  0.43715619597E+02  0.00000000000E+00 0.  1.
         21    1    1    2  503  501 -0.49233680088E+02  0.15403386125E+02  0.22746985288E+03  0.23324612222E+03  0.00000000000E+00 0.  1.
         21    1    1    2  504  502  0.11633183438E+03  0.69072635016E+02  0.57742436380E+03  0.59306240861E+03  0.00000000000E+00 0.  1.
         21    1    1    2  505  506 -0.38435952966E+02 -0.21756717482E+02  0.95766220124E+02  0.10546016382E+03  0.00000000000E+00 0.  1.
         21    1    1    2  506  503 -0.28662201323E+02 -0.62719303660E+02  0.14052475293E+02  0.70375456646E+02  0.00000000000E+00 0.  1.
<scales pt_clust_3="53.88328" pt_clust_4="102.14495" pt_clust_5="44.16647" pt_clust_6="14000.00000"></scales>
<clustering>
<clus scale="   44.166">  2  5  1 -1</clus>
<clus scale="   53.883">  1  3  2 -1</clus>
<clus scale="  102.145">  1  4  2 -1</clus>
<clus scale="   53.883">  1  3  2 -1</clus>
</clustering>
</event>
<event>
 6    0  0.1221518E+003  0.8613584E+02  0.7546771E-02  0.1312489E+00
         21   -1    0    0  504  501  0.00000000000E+00  0.00000000000E+00  0.17678775252E+04  0.17678775252E+04  0.00000000000E+00 0.  1.
         21   -1    0    0  505  502 -0.00000000000E+00 -0.00000000000E+00 -0.11124183590E+03  0.11124183590E+03  0.00000000000E+00 0.  1.
         21    1    1    2  503  502 -0.19155090392E+02 -0.35177019621E+02 -0.29896687491E+02  0.49981517787E+02  0.00000000000E+00 0.  1.
         21    1    1    2  504  503 -0.42015148428E+02  0.11359301841E+03  0.15774646408E+04  0.15821072465E+04  0.00000000000E+00 0.  1.
         21    1    1    2  505  506  0.76143716185E+02 -0.30097022052E+02 -0.38905584394E+02  0.90649549077E+02  0.00000000000E+00 0.  1.
         21    1    1    2  506  501 -0.14973477365E+02 -0.48318976732E+02  0.14797332041E+03  0.15638104773E+03  0.00000000000E+00 0.  1.
<scales pt_clust_3="40.05422" pt_clust_4="14000.00000" pt_clust_5="86.13584" pt_clust_6="52.90321"></scales>
<clustering>
<clus scale="   40.054">  2  3  1 -1</clus>
<clus scale="   52.903">  1  6  2 -1</clus>
<clus scale="   86.136">  2  5  1 -1</clus>
<clus scale="   52.903">  1  3  2 -1</clus>
</clustering>
</event>
<event>
 6    0  0.1221518E+003  0.9097603E+02  0.7546771E-02  0.1300505E+00
         21   -1    0    0  504  501  0.00000000000E+00  0.00000000000E+00  0.95776892704E+02  0.95776892704E+02  0.00000000000E+00 0. -1.
         21   -1    0    0  506  502 -0.00000000000E+00 -0.00000000000E+00 -0.61374627501E+03  0.61374627501E+03  0.00000000000E+00 0.  1.
         21    1    1    2  503  502 -0.10948269172E+02 -0.41369601325E+02 -0.46032243362E+02  0.62851220677E+02  0.00000000000E+00 0. -1.
         21    1    1    2  504  503  0.83425250859E+01  0.41419741514E+02 -0.14506007816E+02  0.44672328959E+02  0.00000000000E+00 0. -1.
         21    1    1    2  505  501 -0.86280529423E+02 -0.20107243113E+02  0.39344502808E+02  0.96936169123E+02  0.00000000000E+00 0. -1.
         21    1    1    2  506  505  0.88886273509E+02  0.20057102925E+02 -0.49677563394E+03  0.50506344895E+03  0.00000000000E+00 0.  1.
<scales pt_clust_3="38.39937" pt_clust_4="42.25154" pt_clust_5="14000.00000" pt_clust_6="90.97603"></scales>
<clustering>
<clus scale="   42.252">  1  4  2 -1</clus>
<clus scale="   38.399">  1  3  2 -1</clus>
<clus scale="   90.976">  2  6  1 -1</clus>
<clus scale="   42.252">  1  3  2 -1</clus>
</clustering>
</event>
<event>
 6    0  0.1221518E+003  0.1028010E+03  0.7546771E-02  0.1274514E+00
         21   -1    0    0  503  501  0.00000000000E+00  0.00000000000E+00  0.60599947466E+03  0.60599947466E+03  0.00000000000E+00 0. -1.
         21   -1    0    0  504  502 -0.00000000000E+00 -0.00000000000E+00 -0.20185493978E+03  0.20185493978E+03  0.00000000000E+00 0.  1.
         21    1    1    2  503  506  0.24038640377E+02 -0.10980304166E+03  0.41031448364E+02  0.11965844702E+03  0.00000000000E+00 0.  1.
         21    1    1    2  504  501  0.96886500541E+01  0.10169310216E+03  0.49676194078E+03  0.50715656633E+03  0.00000000000E+00 0. -1.
         21    1    1    2  505  502  0.56780266863E+01  0.43520371399E+02 -0.11784770937E+03  0.12575510057E+03  0.00000000000E+00 0.  1.
         21    1    1    2  506  505 -0.39405317117E+02 -0.35410431901E+02 -0.15801144888E+02  0.55284300523E+02  0.00000000000E+00 0.  1.
<scales pt_clust_3="102.80102" pt_clust_4="14000.00000" pt_clust_5="43.88921" pt_clust_6="40.24025"></scales>
<clustering>
<clus scale="   43.889">  2  5  1 -1</clus>
<clus scale="   40.240">  2  6  1 -1</clus>
<clus scale="  102.801">  2  3  1 -1</clus>
<clus scale="  102.801">  1  3  2 -1</clus>
</clustering>
</event>
<event>
 6    0  0.1221518E+003  0.2115821E+03  0.7546771E-02  0.1140319E+00
         21   -1    0    0  503  501  0.00000000000E+00  0.00000000000E+00  0.92277040962E+03  0.92277040962E+03  0.00000000000E+00 0. -1.
         21   -1    0    0  506  502 -0.00000000000E+00 -0.00000000000E+00 -0.91778850644E+02  0.91778850644E+02  0.00000000000E+00 0. -1.
         21    1    1    2  503  502 -0.19022424951E+03 -0.77535445396E+02  0.39620409543E+03  0.44628992329E+03  0.00000000000E+00 0. -1.
         21    1    1    2  504  505  0.31231891194E+02  0.10793295035E+02  0.29213551420E+02  0.44106210808E+02  0.00000000000E+00 0.  1.
         21    1    1    2  505  501  0.84220604408E+02  0.16659267350E+03  0.32757947729E+03  0.37703387516E+03  0.00000000000E+00 0. -1.
         21    1    1    2  506  504  0.74771753905E+02 -0.99850523143E+02  0.77994434838E+02  0.14711925102E+03  0.00000000000E+00 0. -1.
<scales pt_clust_3="198.75696" pt_clust_4="30.52189" pt_clust_5="30.52189" pt_clust_6="124.74351"></scales>
<clustering>
<clus scale="   30.522">  4  5 -1 -1</clus>
<clus scale="  124.744">  2  6  1 -1</clus>
<clus scale="  198.757">  1  3  2 -1</clus>
<clus scale="  198.757">  1  3  2 -1</clus>
</clustering>
</event>
<event>
 6    0  0.1221518E+003  0.1003769E+03  0.7546771E-02  0.1279505E+00
         21   -1    0    0  503  501  0.00000000000E+00  0.00000000000E+00  0.16635225937E+03  0.16635225937E+03  0.00000000000E+00 0.  1.
         21   -1    0    0  506  502 -0.00000000000E+00 -0.00000000000E+00 -0.66658613558E+03  0.66658613558E+03  0.00000000000E+00 0. -1.
         21    1    1    2  503  505 -0.30678940173E+02  0.66667618854E+02 -0.76981809354E+02  0.10635773477E+03  0.00000000000E+00 0. -1.
         21    1    1    2  504  501  0.94524332150E+02 -0.35724180603E+02  0.12435123667E+03  0.16023200838E+03  0.00000000000E+00 0.  1.
         21    1    1    2  505  502  0.36820543270E+02 -0.97139133899E+01 -0.20974008524E+03  0.21316898433E+03  0.00000000000E+00 0. -1.
         21    1    1    2  506  504 -0.10066593525E+03 -0.21229524861E+02 -0.33786321828E+03  0.35317966747E+03  0.00000000000E+00 0. -1.
<scales pt_clust_3="68.76542" pt_clust_4="100.37686" pt_clust_5="38.08034" pt_clust_6="14000.00000"></scales>
<clustering>
<clus scale="   38.080">  2  5  1 -1</clus>
<clus scale="   68.765">  2  3  1 -1</clus>
<clus scale="  100.377">  1  4  2 -1</clus>
<clus scale="  100.377">  1  3  2 -1</clus>
</clustering>
</event>
<event>
 6    0  0.1221518E+003  0.1141574E+03  0.7546771E-02  0.1253059E+00
         21   -1    0    0  505  501  0.00000000000E+00  0.00000000000E+00  0.24567624227E+03  0.24567624227E+03  0.00000000000E+00 0.  1.
         21   -1    0    0  504  502 -0.00000000000E+00 -0.00000000000E+00 -0.57192412062E+03  0.57192412062E+03  0.00000000000E+00 0.  1.
         21    1    1    2  503  502  0.34428994324E+02 -0.96423879284E+02 -0.16498596119E+03  0.19417334404E+03  0.00000000000E+00 0.  1.
         21    1    1    2  504  506  0.44998358872E+02  0.10143103469E+02 -0.36590432823E+03  0.36880036912E+03  0.00000000000E+00 0.  1.
         21    1    1    2  505  503 -0.52666216443E+02  0.10179579848E+03  0.18609865859E+03  0.21856080543E+03  0.00000000000E+00 0.  1.
         21    1    1    2  506  501 -0.26761136753E+02 -0.15515022662E+02  0.18543752475E+02  0.36065844290E+02  0.00000000000E+00 0.  1.
<scales pt_clust_3="14000.00000" pt_clust_4="45.93168" pt_clust_5="114.15738" pt_clust_6="30.93339"></scales>
<clustering>
<clus scale="   30.933">  1  6  2 -1</clus>
<clus scale="   45.932">  2  4  1 -1</clus>
<clus scale="  114.157">  1  5  2 -1</clus>
<clus scale="   30.933">  1  3  2 -1</clus>
</clustering>
</event>
<event>
 6    0  0.1221518E+003  0.1042994E+03  0.7546771E-02  0.1271506E+00
         21   -1    0    0  503  501  0.00000000000E+00  0.00000000000E+00  0.75638212002E+03  0.75638212002E+03  0.00000000000E+00 0.  1.
         21   -1    0    0  505  502 -0.00000000000E+00 -0.00000000000E+00 -0.52248520048E+03  0.52248520048E+03  0.00000000000E+00 0.  1.
         21    1    1    2  503  504  0.61655797195E+02 -0.19856970163E+02  0.28268092195E+03  0.29000731065E+03  0.00000000000E+00 0.  1.
         21    1    1    2  504  506 -0.12724831267E+03 -0.29500958712E+02  0.22628064989E+03  0.26127642863E+03  0.00000000000E+00 0.  1.
         21    1    1    2  505  501 -0.33300377787E+02  0.18061886211E+02  0.21925223236E+03  0.22250098492E+03  0.00000000000E+00 0.  1.
         21    1    1    2  506  502  0.98892893260E+02  0.31296042665E+02 -0.49431688467E+03  0.50508259631E+03  0.00000000000E+00 0.  1.
<scales pt_clust_3="45.01997" pt_clust_4="14000.00000" pt_clust_5="37.88333" pt_clust_6="104.29936"></scales>
<clustering>
<clus scale="   37.883">  1  5  2 -1</clus>
<clus scale="   45.020">  1  3  2 -1</clus>
<clus scale="  104.299">  2  6  1 -1</clus>
<clus scale="   37.883">  1  3  2 -1</clus>
</clustering>
</event>
<event>
 6    0  0.1221518E+003  0.9457532E+02  0.7546771E-02  0.1292135E+00
         21   -1    0    0  504  501  0.00000000000E+00  0.00000000000E+00  0.35244828144E+02  0.35244828144E+02  0.00000000000E+00 0.  1.
         21   -1    0    0  505  502 -0.00000000000E+00 -0.00000000000E+00 -0.14200340615E+04  0.14200340615E+04  0.00000000000E+00 0.  1.
         21    1    1    2  503  501  0.29031420960E+02  0.74754833194E+02 -0.88306739217E+02  0.11928616299E+03  0.00000000000E+00 0.  1.
         21    1    1    2  504  506 -0.47808721374E+02 -0.12344672034E+02 -0.40443447488E+02  0.63825834987E+02  0.00000000000E+00 0.  1.
         21    1    1    2  505  503 -0.29050474567E+02  0.60260151886E+02 -0.32040248869E+03  0.32731173327E+03  0.00000000000E+00 0. -1.
         21    1    1    2  506  502  0.47827774981E+02 -0.12267031305E+03 -0.93563655798E+03  0.94485515842E+03  0.00000000000E+00 0.  1.
<scales pt_clust_3="66.68008" pt_clust_4="49.37676" pt_clust_5="14000.00000" pt_clust_6="94.57532"></scales>
<clustering>
<clus scale="   49.377">  1  4  2 -1</clus>
<clus scale="   66.680">  1  3  2 -1</clus>
<clus scale="   94.575">  1  6  2 -1</clus>
<clus scale="   49.377">  1  3  2 -1</clus>
</clustering>
</event>
<event>
 6    0  0.1221518E+003  0.1193739E+03  0.7546771E-02  0.1244134E+00
         21   -1    0    0  505  501  0.00000000000E+00  0.00000000000E+00  0.12454269353E+04  0.12454269353E+04  0.00000000000E+00 0.  1.
         21   -1    0    0  503  502 -0.00000000000E+00 -0.00000000000E+00 -0.19248982184E+03  0.19248982184E+03  0.00000000000E+00 0. -1.
         21    1    1    2  503  501  0.93779723078E+02  0.11373565740E+03  0.76074705539E+03  0.77489774713E+03  0.00000000000E+00 0.  1.
         21    1    1    2  504  506 -0.64121651227E+02 -0.62157740483E+02  0.12407055438E+03  0.15286815667E+03  0.00000000000E+00 0. -1.
         21    1    1    2  505  504 -0.31508794589E+02 -0.12162199884E+01  0.33466520671E+03  0.33614741396E+03  0.00000000000E+00 0.  1.
         21    1    1    2  506  502  0.18507227383E+01 -0.50361696927E+02 -0.16654570307E+03  0.17400343934E+03  0.00000000000E+00 0. -1.
<scales pt_clust_3="119.37387" pt_clust_4="14000.00000" pt_clust_5="31.53226" pt_clust_6="50.39610"></scales>
<clustering>
<clus scale="   31.532">  1  5  2 -1</clus>
<clus scale="   50.396">  2  6  1 -1</clus>
<clus scale="  119.374">  1  3  2 -1</clus>
<clus scale="   31.532">  1  3  2 -1</clus>
</clustering>
</event>
<event>
 6    0  0.1221518E+003  0.1353009E+03  0.7546771E-02  0.1219796E+00
         21   -1    0    0  503  501  0.00000000000E+00  0.00000000000E+00  0.89820454450E+02  0.89820454450E+02  0.00000000000E+00 0. -1.
         21   -1    0    0  506  502 -0.00000000000E+00 -0.00000000000E+00 -0.25176578273E+04  0.25176578273E+04  0.00000000000E+00 0.  1.
         21    1    1    2  503  502  0.89025546912E+02 -0.95982473034E+02  0.33163092757E+02  0.13504804276E+03  0.00000000000E+00 0. -1.
         21    1    1    2  504  505 -0.25148582590E+02  0.43350509242E+02 -0.19004843910E+03  0.19654548344E+03  0.00000000000E+00 0. -1.
         21    1    1    2  505  501 -0.47571279089E+02  0.41908270310E+01 -0.26416237802E+03  0.26844431748E+03  0.00000000000E+00 0. -1.
         21    1    1    2  506  504 -0.16305685234E+02  0.48441136760E+02 -0.20067896485E+04  0.20074404381E+04  0.00000000000E+00 0.  1.
<scales pt_clust_3="126.28001" pt_clust_4="47.41838" pt_clust_5="47.41838" pt_clust_6="51.11183"></scales>
<clustering>
<clus scale="   47.418">  4  5 -1 -1</clus>
<clus scale="   51.112">  2  6  1 -1</clus>
<clus scale="  126.280">  1  3  2 -1</clus>
<clus scale="  126.280">  1  3  2 -1</clus>
</clustering>
</event>
<event>
 6    0  0.1221518E+003  0.6976800E+02  0.7546771E-02  0.1360884E+00
         21   -1    0    0  505  501  0.00000000000E+00  0.00000000000E+00  0.28304862048E+03  0.28304862048E+03  0.00000000000E+00 0.  1.
         21   -1    0    0  504  502 -0.00000000000E+00 -0.00000000000E+00 -0.26846631398E+03  0.26846631398E+03  0.00000000000E+00 0. -1.
         21    1    1    2  503  501  0.31485497798E+02  0.43295549418E+02  0.51788411046E+02  0.74484096890E+02  0.00000000000E+00 0. -1.
         21    1    1    2  504  506 -0.48570208173E+02 -0.51611959226E+02 -0.19245731407E+03  0.20509187502E+03  0.00000000000E+00 0.  1.
         21    1    1    2  505  502 -0.64963967119E+02  0.24952836207E+01  0.17556278454E+03  0.18721334028E+03  0.00000000000E+00 0.  1.
         21    1    1    2  506  503  0.82048677494E+02  0.58211261878E+01 -0.20311575012E+02  0.84725622265E+02  0.00000000000E+00 0. -1.
<scales pt_clust_3="53.53355" pt_clust_4="69.76800" pt_clust_5="54.59178" pt_clust_6="14000.00000"></scales>
<clustering>
<clus scale="   53.534">  1  3  2 -1</clus>
<clus scale="   54.592">  1  5  2 -1</clus>
<clus scale="   69.768">  2  4  1 -1</clus>
<clus scale="   53.534">  1  3  2 -1</clus>
</clustering>
</event>
<event>
 6    0  0.1221518E+003  0.9241377E+02  0.7546771E-02  0.1297109E+00
         21   -1    0    0  505  501  0.00000000000E+00  0.00000000000E+00  0.74018772908E+02  0.74018772908E+02  0.00000000000E+00 0.  1.
         21   -1    0    0  504  502 -0.00000000000E+00 -0.00000000000E+00 -0.51230227687E+03  0.51230227687E+03  0.00000000000E+00 0.  1.
         21    1    1    2  503  501  0.27910511272E+02  0.27717679327E+02 -0.13694002250E+02  0.41650835338E+02  0.00000000000E+00 0.  1.
         21    1    1    2  504  503 -0.22707346637E+01  0.64430563432E+02 -0.22411497625E+03  0.23320372278E+03  0.00000000000E+00 0.  1.
         21    1    1    2  505  506 -0.15786118594E+02  0.61273821174E+02 -0.59923787041E+01  0.63557779257E+02  0.00000000000E+00 0.  1.
         21    1    1    2  506  502 -0.98536580147E+01 -0.15342206393E+03 -0.19448214676E+03  0.24790871241E+03  0.00000000000E+00 0.  1.
<scales pt_clust_3="39.33531" pt_clust_4="66.52867" pt_clust_5="14000.00000" pt_clust_6="92.41377"></scales>
<clustering>
<clus scale="   39.335">  1  3  2 -1</clus>
<clus scale="   66.529">  2  4  1 -1</clus>
<clus scale="   92.414">  2  6  1 -1</clus>
<clus scale="   39.335">  1  3  2 -1</clus>
</clustering>
</event>
<event>
 6    0  0.1221518E+003  0.1042510E+03  0.7546771E-02  0.1271602E+00
         21   -1    0    0  503  501  0.00000000000E+00  0.00000000000E+00  0.86174442612E+02  0.86174442612E+02  0.00000000000E+00 0.  1.
         21   -1    0    0  504  502 -0.00000000000E+00 -0.00000000000E+00 -0.24044537778E+04  0.24044537778E+04  0.00000000000E+00 0.  1.
         21    1    1    2  503  506 -0.73653371624E+02 -0.61002231944E+02  0.52996438977E+02  0.10933761474E+03  0.00000000000E+00 0.  1.
         21    1    1    2  504  505  0.62129616881E+02 -0.13021991824E+02 -0.49498798749E+03  0.49904185127E+03  0.00000000000E+00 0.  1.
         21    1    1    2  505  501  0.35564514909E+02  0.13477587936E+02 -0.15047818133E+03  0.15521006138E+03  0.00000000000E+00 0. -1.
         21    1    1    2  506  502 -0.24040760167E+02  0.60546635832E+02 -0.17258096054E+04  0.17270386930E+04  0.00000000000E+00 0.  1.
<scales pt_clust_3="94.83481" pt_clust_4="33.51350" pt_clust_5="33.51350" pt_clust_6="65.14486"></scales>
<clustering>
<clus scale="   33.514">  4  5 -1 -1</clus>
<clus scale="   65.145">  2  6  1 -1</clus>
<clus scale="   94.835">  1  3  2 -1</clus>
<clus scale="   94.835">  1  3  2 -1</clus>
</clustering>
</event>
<event>
 6    0  0.1221518E+003  0.1140363E+03  0.7546771E-02  0.1253273E+00
         21   -1    0    0  505  501  0.00000000000E+00  0.00000000000E+00  0.48821569391E+03  0.48821569391E+03  0.00000000000E+00 0. -1.
         21   -1    0    0  504  502 -0.00000000000E+00 -0.00000000000E+00 -0.34235162847E+03  0.34235162847E+03  0.00000000000E+00 0. -1.
         21    1    1    2  503  506  0.18520670865E+01 -0.60467751344E+02 -0.20025557021E+03  0.20919386345E+03  0.00000000000E+00 0. -1.
         21    1    1    2  504  501 -0.51641223118E+02 -0.35847168968E+02 -0.47122105065E+02  0.78564166348E+02  0.00000000000E+00 0.  1.
         21    1    1    2  505  503  0.13453290534E+02  0.11517974817E+03  0.45453825671E+03  0.46909742296E+03  0.00000000000E+00 0. -1.
         21    1    1    2  506  502  0.36335865497E+02 -0.18864827859E+02 -0.61296515986E+02  0.73711869624E+02  0.00000000000E+00 0. -1.
<scales pt_clust_3="14000.00000" pt_clust_4="59.08156" pt_clust_5="114.03625" pt_clust_6="40.94114"></scales>
<clustering>
<clus scale="   40.941">  2  6  1 -1</clus>
<clus scale="   59.082">  2  4  1 -1</clus>
<clus scale="  114.036">  1  5  2 -1</clus>
<clus scale="  114.036">  1  3  2 -1</clus>
</clustering>
</event>
<event>
 6    0  0.1221518E+003  0.8325602E+02  0.7546771E-02  0.1320057E+00
         21   -1    0    0  506  501  0.00000000000E+00  0.00000000000E+00  0.47841873071E+03  0.47841873071E+03  0.00000000000E+00 0. -1.
         21   -1    0    0  504  502 -0.00000000000E+00 -0.00000000000E+00 -0.39521151535E+03  0.39521151535E+03  0.00000000000E+00 0. -1.
         21    1    1    2  503  502  0.52875219765E+02  0.26623039959E+02  0.16338327624E+03  0.17377764550E+03  0.00000000000E+00 0. -1.
         21    1    1    2  504  505  0.51160991421E+02 -0.15136320331E+02 -0.34208566760E+03  0.34622125760E+03  0.00000000000E+00 0. -1.
         21    1    1    2  505  501 -0.11735851520E+03 -0.39209050347E+02  0.40645738867E+02  0.13023995857E+03  0.00000000000E+00 0. -1.
         21    1    1    2  506  503  0.13322304016E+02  0.27722330719E+02  0.22126386786E+03  0.22339138440E+03  0.00000000000E+00 0. -1.
<scales pt_clust_3="83.25602" pt_clust_4="53.39333" pt_clust_5="14000.00000" pt_clust_6="30.75730"></scales>
<clustering>
<clus scale="   30.757">  1  6  2 -1</clus>
<clus scale="   53.393">  2  4  1 -1</clus>
<clus scale="   83.256">  1  3  2 -1</clus>
<clus scale="   30.757">  1  3  2 -1</clus>
</clustering>
</event>
<event>
 6    0  0.1489959E+003  0.1250728E+03  0.7546771E-02  0.1234956E+00
         21   -1    0    0  504  501  0.00000000000E+00  0.00000000000E+00  0.88657094071E+03  0.88657094071E+03  0.00000000000E+00 0. -1.
         21   -1    0    0  503  502 -0.00000000000E+00 -0.00000000000E+00 -0.16188781705E+04  0.16188781705E+04  0.00000000000E+00 0. -1.
         21    1    1    2  503  505 -0.49800392591E+02 -0.64423080139E+02  0.20948184315E+03  0.22475109558E+03  0.00000000000E+00 0. -1.
         21    1    1    2  504  506  0.60416566175E+02 -0.25754379467E+02  0.13025198917E+03  0.14587333620E+03  0.00000000000E+00 0. -1.
         21    1    1    2  505  501  0.19609786051E+02 -0.32060120674E+02  0.52825105397E+03  0.52958622628E+03  0.00000000000E+00 0. -1.
         21    1    1    2  506  502 -0.30225959634E+02  0.12223758028E+03 -0.16002921161E+04  0.16052384531E+04  0.00000000000E+00 0. -1.
<scales pt_clust_3="125.07276" pt_clust_4="77.94922" pt_clust_5="37.58184" pt_clust_6="14000.00000"></scales>
<clustering>
<clus scale="   37.582">  1  5  2 -1</clus>
<clus scale="   77.949">  1  4  2 -1</clus>
<clus scale="  125.073">  1  3  2 -1</clus>
<clus scale="   37.582">  1  3  2 -1</clus>
</clustering>
</event>
<event>
 6    0  0.1221518E+003  0.1293520E+03  0.7546771E-02  0.1228420E+00
         21   -1    0    0  503  501  0.00000000000E+00  0.00000000000E+00  0.71983860324E+03  0.71983860324E+03  0.00000000000E+00 0.  1.
         21   -1    0    0  505  502 -0.00000000000E+00 -0.00000000000E+00 -0.33870753490E+04  0.33870753490E+04  0.00000000000E+00 0. -1.
         21    1    1    2  503  506 -0.43090081304E+02 -0.13812091758E+03  0.89704913139E+02  0.17023840466E+03  0.00000000000E+00 0. -1.
         21    1    1    2  504  501 -0.30117176086E+02  0.31189379211E+02  0.58750479856E+03  0.58910246138E+03  0.00000000000E+00 0.  1.
         21    1    1    2  505  504 -0.64660056509E+01  0.35369702332E+02 -0.64273997610E+03  0.64374490441E+03  0.00000000000E+00 0. -1.
         21    1    1    2  506  502  0.79673263041E+02  0.71561836039E+02 -0.27017064813E+04  0.27038281818E+04  0.00000000000E+00 0. -1.
<scales pt_clust_3="129.35196" pt_clust_4="43.36563" pt_clust_5="35.95588" pt_clust_6="14000.00000"></scales>
<clustering>
<clus scale="   35.956">  2  5  1 -1</clus>
<clus scale="   43.366">  1  4  2 -1</clus>
<clus scale="  129.352">  1  3  2 -1</clus>
<clus scale="   43.366">  1  3  2 -1</clus>
</clustering>
</event>
<event>
 6    0  0.1221518E+003  0.8765255E+02  0.7546771E-02  0.1308638E+00
         21   -1    0    0  504  501  0.00000000000E+00  0.00000000000E+00  0.56747038363E+03  0.56747038363E+03  0.00000000000E+00 0.  1.
         21   -1    0    0  503  502 -0.00000000000E+00 -0.00000000000E+00 -0.54791528884E+03  0.54791528884E+03  0.00000000000E+00 0.  1.
         21    1    1    2  503  506  0.67676142945E+02  0.53995786996E+02 -0.49552723482E+03  0.50303364280E+03  0.00000000000E+00 0.  1.
         21    1    1    2  504  505  0.12708024221E+02  0.54156652386E+02  0.56770051338E+02  0.79481290919E+02  0.00000000000E+00 0.  1.
         21    1    1    2  505  502  0.74276308949E+02  0.11614087133E+02  0.10698641676E+03  0.13075913147E+03  0.00000000000E+00 0.  1.
         21    1    1    2  506  501 -0.15466047611E+03 -0.11976652652E+03  0.35132586151E+03  0.40211160728E+03  0.00000000000E+00 0.  1.
<scales pt_clust_3="87.65255" pt_clust_4="55.62766" pt_clust_5="81.09314" pt_clust_6="14000.00000"></scales>
<clustering>
<clus scale="   55.628">  1  4  2 -1</clus>
<clus scale="   81.093">  1  5  2 -1</clus>
<clus scale="   87.653">  2  3  1 -1</clus>
<clus scale="   55.628">  1  3  2 -1</clus>
</clustering>
</event>
<event>
 6    0  0.1221518E+003  0.1318105E+03  0.7546771E-02  0.1224794E+00
         21   -1    0    0  506  501  0.00000000000E+00  0.00000000000E+00  0.95304170887E+03  0.95304170887E+03  0.00000000000E+00 0. -1.
         21   -1    0    0  504  502 -0.00000000000E+00 -0.00000000000E+00 -0.12546263567E+03  0.12546263567E+03  0.00000000000E+00 0. -1.
         21    1    1    2  503  505 -0.14700323681E+02 -0.43774960033E+02 -0.71330735713E+02  0.84973057492E+02  0.00000000000E+00 0. -1.
         21    1    1    2  504  503  0.72622562022E+01 -0.42161698196E+02  0.24426114381E+01  0.42852252106E+02  0.00000000000E+00 0. -1.
         21    1    1    2  505  501  0.57412389907E+02  0.12522110796E+03  0.87160436166E+03  0.88242318173E+03  0.00000000000E+00 0. -1.
         21    1    1    2  506  502 -0.49974322428E+02 -0.39284449735E+02  0.24862835821E+02  0.68255853216E+02  0.00000000000E+00 0. -1.
<scales pt_clust_3="131.81051" pt_clust_4="42.78258" pt_clust_5="14000.00000" pt_clust_6="68.20314"></scales>
<clustering>
<clus scale="   42.783">  2  4  1 -1</clus>
<clus scale="   68.203">  2  6  1 -1</clus>
<clus scale="  131.811">  2  3  1 -1</clus>
<clus scale="  131.811">  1  3  2 -1</clus>
</clustering>
</event>
<event>
 6    0  0.1221518E+003  0.1341178E+03  0.7546771E-02  0.1221470E+00
         21   -1    0    0  505  501  0.00000000000E+00  0.00000000000E+00  0.37751429489E+04  0.37751429489E+04  0.00000000000E+00 0.  1.
         21   -1    0    0  506  502 -0.00000000000E+00 -0.00000000000E+00 -0.43296019310E+02  0.43296019310E+02  0.00000000000E+00 0.  1.
         21    1    1    2  503  502 -0.63584770261E+02  0.11353417873E+03  0.11340876713E+03  0.17261106920E+03  0.00000000000E+00 0.  1.
         21    1    1    2  504  503  0.17584936824E+02 -0.19680594840E+03  0.17163354869E+04  0.17276716456E+04  0.00000000000E+00 0.  1.
         21    1    1    2  505  504 -0.25530571265E+02 -0.34836201865E+02  0.12878951760E+04  0.12886191661E+04  0.00000000000E+00 0.  1.
         21    1    1    2  506  501  0.71530404702E+02  0.11810797153E+03  0.61420749962E+03  0.62953708733E+03  0.00000000000E+00 0.  1.
<scales pt_clust_3="134.11780" pt_clust_4="14000.00000" pt_clust_5="43.18994" pt_clust_6="127.32514"></scales>
<clustering>
<clus scale="   43.190">  1  5  2 -1</clus>
<clus scale="  127.325">  1  6  2 -1</clus>
<clus scale="  134.118">  2  3  1 -1</clus>
<clus scale="   43.190">  1  3  2 -1</clus>
</clustering>
</event>
<event>
 6    0  0.1221518E+003  0.1698540E+03  0.7546771E-02  0.1178000E+00
         21   -1    0    0  504  501  0.00000000000E+00  0.00000000000E+00  0.54131191341E+03  0.54131191341E+03  0.00000000000E+00 0.  1.
         21   -1    0    0  506  502 -0.00000000000E+00 -0.00000000000E+00 -0.40337155089E+03  0.40337155089E+03  0.00000000000E+00 0.  1.
         21    1    1    2  503  501 -0.24087982251E+02  0.85520268490E+02  0.10575369407E+03  0.13812237697E+03  0.00000000000E+00 0.  1.
         21    1    1    2  504  502  0.34272941744E+02  0.67344006451E+01  0.76943446999E+01  0.35765760556E+02  0.00000000000E+00 0. -1.
         21    1    1    2  505  503  0.54528537739E+02  0.69805933409E+02  0.37175003769E+03  0.38215745484E+03  0.00000000000E+00 0.  1.
         21    1    1    2  506  505 -0.64713497231E+02 -0.16206060254E+03 -0.34725771393E+03  0.38863787194E+03  0.00000000000E+00 0.  1.
<scales pt_clust_3="88.56618" pt_clust_4="34.92831" pt_clust_5="14000.00000" pt_clust_6="169.85398"></scales>
<clustering>
<clus scale="   34.928">  1  4  2 -1</clus>
<clus scale="   88.566">  1  3  2 -1</clus>
<clus scale="  169.854">  2  6  1 -1</clus>
<clus scale="   34.928">  1  3  2 -1</clus>
</clustering>
</event>
<event>
 6    0  0.1221518E+003  0.8385044E+02  0.7546771E-02  0.1318466E+00
         21   -1    0    0  506  501  0.00000000000E+00  0.00000000000E+00  0.13348360261E+03  0.13348360261E+03  0.00000000000E+00 0. -1.
         21   -1    0    0  505  502 -0.00000000000E+00 -0.00000000000E+00 -0.62362311602E+03  0.62362311602E+03  0.00000000000E+00 0. -1.
         21    1    1    2  503  502  0.17394199896E+02  0.80143449082E+02 -0.38780837573E+03  0.39638474606E+03  0.00000000000E+00 0. -1.
         21    1    1    2  504  503 -0.60174441095E+02 -0.81159601296E+02 -0.88263313290E+02  0.13415758166E+03  0.00000000000E+00 0. -1.
         21    1    1    2  505  501  0.60691124097E+02  0.30590292559E+02 -0.10736394476E+03  0.12706767951E+03  0.00000000000E+00 0. -1.
         21    1    1    2  506  504 -0.17910882899E+02 -0.29574140346E+02  0.93296120372E+02  0.99496711402E+02  0.00000000000E+00 0. -1.
<scales pt_clust_3="83.85044" pt_clust_4="14000.00000" pt_clust_5="60.37693" pt_clust_6="34.57498"></scales>
<clustering>
<clus scale="   34.575">  1  6  2 -1</clus>
<clus scale="   60.377">  1  5  2 -1</clus>
<clus scale="   83.850">  2  3  1 -1</clus>
<clus scale="   34.575">  1  3  2 -1</clus>
</clustering>
</event>
<event>
 6    0  0.1221518E+003  0.1145279E+03  0.7546771E-02  0.1252407E+00
         21   -1    0    0  505  501  0.00000000000E+00  0.00000000000E+00  0.25354502905E+04  0.25354502905E+04  0.00000000000E+00 0.  1.
         21   -1    0    0  506  502 -0.00000000000E+00 -0.00000000000E+00 -0.33518423364E+02  0.33518423364E+02  0.00000000000E+00 0.  1.
         21    1    1    2  503  502  0.36769955329E+02  0.18711745168E+02  0.29753695608E+02  0.50866899104E+02  0.00000000000E+00 0.  1.
         21    1    1    2  504  501  0.10837449018E+03 -0.54302342049E+02  0.16995744633E+04  0.17038917603E+04  0.00000000000E+00 0.  1.
         21    1    1    2  505  503 -0.11978701050E+03 -0.68319277090E+02  0.55312762565E+03  0.57005843715E+03  0.00000000000E+00 0.  1.
         21    1    1    2  506  504 -0.25357435009E+02  0.10390987397E+03  0.21947608260E+03  0.24415161734E+03  0.00000000000E+00 0.  1.
<scales pt_clust_3="41.25723" pt_clust_4="14000.00000" pt_clust_5="114.52790" pt_clust_6="114.10153"></scales>
<clustering>
<clus scale="   41.257">  2  3  1 -1</clus>
<clus scale="  114.102">  2  6  1 -1</clus>
<clus scale="  114.528">  2  5  1 -1</clus>
<clus scale="  114.528">  1  3  2 -1</clus>
</clustering>
</event>
<event>
 6    0  0.1221518E+003  0.7636257E+02  0.7546771E-02  0.1339703E+00
         21   -1    0    0  505  501  0.00000000000E+00  0.00000000000E+00  0.32115395020E+03  0.32115395020E+03  0.00000000000E+00 0. -1.
         21   -1    0    0  503  502 -0.00000000000E+00 -0.00000000000E+00 -0.94301624373E+02  0.94301624373E+02  0.00000000000E+00 0. -1.
         21    1    1    2  503  501 -0.21613271285E+02 -0.28186277069E+02  0.62018996214E+02  0.71469962936E+02  0.00000000000E+00 0.  1.
         21    1    1    2  504  502  0.32113191191E+02 -0.36043677473E+02 -0.16069452754E+02  0.50878591235E+02  0.00000000000E+00 0. -1.
         21    1    1    2  505  506  0.25902201406E+02  0.10729013841E+03  0.20418278678E+03  0.23210495095E+03  0.00000000000E+00 0. -1.
         21    1    1    2  506  504 -0.36402121312E+02 -0.43060183873E+02 -0.23280004417E+02  0.61002069447E+02  0.00000000000E+00 0. -1.
<scales pt_clust_3="35.51900" pt_clust_4="48.78880" pt_clust_5="14000.00000" pt_clust_6="76.36257"></scales>
<clustering>
<clus scale="   35.519">  1  3  2 -1</clus>
<clus scale="   48.789">  2  4  1 -1</clus>
<clus scale="   76.363">  2  6  1 -1</clus>
<clus scale="   35.519">  1  3  2 -1</clus>
</clustering>
</event>
<event>
 6    0  0.1221518E+003  0.8079916E+02  0.7546771E-02  0.1326799E+00
         21   -1    0    0  506  501  0.00000000000E+00  0.00000000000E+00  0.59734141835E+03  0.59734141835E+03  0.00000000000E+00 0. -1.
         21   -1    0    0  504  502 -0.00000000000E+00 -0.00000000000E+00 -0.99033832673E+02  0.99033832673E+02  0.00000000000E+00 0. -1.
         21    1    1    2  503  505 -0.15932387389E+02  0.10447885213E+03  0.69484806414E+02  0.12648244871E+03  0.00000000000E+00 0. -1.
         21    1    1    2  504  501 -0.24697818062E+02 -0.78006483198E+02  0.20297843849E+03  0.21884981181E+03  0.00000000000E+00 0. -1.
         21    1    1    2  505  502  0.63866549188E+02 -0.48528550637E+02 -0.35518355115E+02  0.87724055322E+02  0.00000000000E+00 0. -1.
         21    1    1    2  506  503 -0.23236343736E+02  0.22056181709E+02  0.26136269589E+03  0.26331893518E+03  0.00000000000E+00 0. -1.
<scales pt_clust_3="14000.00000" pt_clust_4="75.21978" pt_clust_5="80.79916" pt_clust_6="32.03752"></scales>
<clustering>
<clus scale="   32.038">  1  6  2 -1</clus>
<clus scale="   75.220">  1  4  2 -1</clus>
<clus scale="   80.799">  2  5  1 -1</clus>
<clus scale="   32.038">  1  3  2 -1</clus>
</clustering>
</event>
<event>
 6    0  0.1221518E+003  0.6658018E+02  0.7546771E-02  0.1372124E+00
         21   -1    0    0  503  501  0.00000000000E+00  0.00000000000E+00  0.57940738304E+03  0.57940738304E+03  0.00000000000E+00 0.  1.
         21   -1    0    0  506  502 -0.00000000000E+00 -0.00000000000E+00 -0.51262762880E+02  0.51262762880E+02  0.00000000000E+00 0.  1.
         21    1    1    2  503  505 -0.55868795692E+02 -0.79698924030E+02  0.31797017815E+03  0.33253311867E+03  0.00000000000E+00 0.  1.
         21    1    1    2  504  501  0.34934918068E+01  0.41794431950E+02  0.16557947388E+03  0.17080849276E+03  0.00000000000E+00 0.  1.
         21    1    1    2  505  502  0.49717771409E+02 -0.23089196589E+02  0.36225861985E+02  0.65706018519E+02  0.00000000000E+00 0.  1.
         21    1    1    2  506  504  0.26575324759E+01  0.60993688669E+02  0.83691061417E+01  0.61622515966E+02  0.00000000000E+00 0.  1.
<scales pt_clust_3="66.58018" pt_clust_4="41.94018" pt_clust_5="53.25258" pt_clust_6="14000.00000"></scales>
<clustering>
<clus scale="   41.940">  1  4  2 -1</clus>
<clus scale="   53.253">  2  5  1 -1</clus>
<clus scale="   66.580">  1  3  2 -1</clus>
<clus scale="   41.940">  1  3  2 -1</clus>
</clustering>
</event>
<event>
 6    0  0.1221518E+003  0.7726303E+02  0.7546771E-02  0.1337003E+00
         21   -1    0    0  503  501  0.00000000000E+00  0.00000000000E+00  0.20735993541E+02  0.20735993541E+02  0.00000000000E+00 0. -1.
         21   -1    0    0  504  502 -0.00000000000E+00 -0.00000000000E+00 -0.25456174992E+04  0.25456174992E+04  0.00000000000E+00 0. -1.
         21    1    1    2  503  506 -0.39632074563E+02 -0.11283414781E+02 -0.32276003043E+02  0.52342689611E+02  0.00000000000E+00 0. -1.
         21    1    1    2  504  505 -0.60763063875E+02  0.22475960379E+02 -0.12228946308E+04  0.12246095691E+04  0.00000000000E+00 0. -1.
         21    1    1    2  505  501 -0.29057261317E+02  0.47281446964E+02 -0.13692447811E+03  0.14774360348E+03  0.00000000000E+00 0. -1.
         21    1    1    2  506  502  0.12945239975E+03 -0.58473992562E+02 -0.11327863937E+04  0.11416576305E+04  0.00000000000E+00 0. -1.
<scales pt_clust_3="41.20700" pt_clust_4="14000.00000" pt_clust_5="64.33105" pt_clust_6="77.26303"></scales>
<clustering>
<clus scale="   41.207">  1  3  2 -1</clus>
<clus scale="   64.331">  1  5  2 -1</clus>
<clus scale="   77.263">  1  6  2 -1</clus>
<clus scale="   41.207">  1  3  2 -1</clus>
</clustering>
</event>
<event>
 6    0  0.1221518E+003  0.1732036E+03  0.7546771E-02  0.1174548E+00
         21   -1    0    0  505  501  0.00000000000E+00  0.00000000000E+00  0.29923289861E+04  0.29923289861E+04  0.00000000000E+00 0.  1.
         21   -1    0    0  503  502 -0.00000000000E+00 -0.00000000000E+00 -0.75827936297E+03  0.75827936297E+03  0.00000000000E+00 0.  1.
         21    1    1    2  503  506  0.14108026853E+02 -0.14063873051E+03 -0.29551310480E+03  0.32757637896E+03  0.00000000000E+00 0.  1.
         21    1    1    2  504  502  0.35577448395E+02 -0.48629136545E+02 -0.30189274648E+03  0.30784700442E+03  0.00000000000E+00 0.  1.
         21    1    1    2  505  504  0.33068142648E+02  0.23204598372E+02  0.29124547041E+04  0.29127348590E+04  0.00000000000E+00 0.  1.
         21    1    1    2  506  501 -0.82753617895E+02  0.16606326869E+03 -0.80999229706E+02  0.20245010668E+03  0.00000000000E+00 0.  1.
<scales pt_clust_3="14000.00000" pt_clust_4="60.30267" pt_clust_5="40.39747" pt_clust_6="173.20362"></scales>
<clustering>
<clus scale="   40.397">  1  5  2 -1</clus>
<clus scale="   60.303">  2  4  1 -1</clus>
<clus scale="  173.204">  1  6  2 -1</clus>
<clus scale="   40.397">  1  3  2 -1</clus>
</clustering>
</event>
<event>
 6    0  0.1221518E+003  0.8257602E+02  0.7546771E-02  0.1321896E+00
         21   -1    0    0  504  501  0.00000000000E+00  0.00000000000E+00  0.14267462729E+03  0.14267462729E+03  0.00000000000E+00 0.  1.
         21   -1    0    0  503  502 -0.00000000000E+00 -0.00000000000E+00 -0.24904380543E+03  0.24904380543E+03  0.00000000000E+00 0.  1.
         21    1    1    2  503  506 -0.20495391142E+02 -0.58295544310E+02 -0.12903971405E+03  0.14307228714E+03  0.00000000000E+00 0.  1.
         21    1    1    2  504  505  0.36437975737E+02  0.10227245115E+03  0.28637445720E+02  0.11228305142E+03  0.00000000000E+00 0.  1.
         21    1    1    2  505  502 -0.48759090175E+02  0.24148765725E+02 -0.22632333295E+02  0.58930758277E+02  0.00000000000E+00 0.  1.
         21    1    1    2  506  501  0.32816505580E+02 -0.68125672561E+02  0.16665423491E+02  0.77432335884E+02  0.00000000000E+00 0.  1.
<scales pt_clust_3="67.44142" pt_clust_4="14000.00000" pt_clust_5="54.41150" pt_clust_6="82.57602"></scales>
<clustering>
<clus scale="   54.412">  2  5  1 -1</clus>
<clus scale="   67.441">  2  3  1 -1</clus>
<clus scale="   82.576">  1  6  2 -1</clus>
<clus scale="   82.576">  1  3  2 -1</clus>
</clustering>
</event>
<event>
 6    0  0.1221518E+003  0.8885077E+02  0.7546771E-02  0.1305659E+00
         21   -1    0    0  503  501  0.00000000000E+00  0.00000000000E+00  0.31547459681E+03  0.31547459681E+03  0.00000000000E+00 0. -1.
         21   -1    0    0  504  502 -0.00000000000E+00 -0.00000000000E+00 -0.37944379792E+03  0.37944379792E+03  0.00000000000E+00 0.  1.
         21    1    1    2  503  505 -0.13822456987E+02 -0.83812484940E+02  0.24307150635E+03  0.25748660188E+03  0.00000000000E+00 0. -1.
         21    1    1    2  504  501 -0.29084507126E+02  0.15569247817E+02 -0.16473168629E+03  0.16800249552E+03  0.00000000000E+00 0.  1.
         21    1    1    2  505  506  0.19134776229E+02  0.13364761600E+03 -0.31590911770E+02  0.13865716941E+03  0.00000000000E+00 0.  1.
         21    1    1    2  506  502  0.23772187884E+02 -0.65404378877E+02 -0.11071810939E+03  0.13077212792E+03  0.00000000000E+00 0.  1.
<scales pt_clust_3="88.85077" pt_clust_4="32.98954" pt_clust_5="14000.00000" pt_clust_6="57.04947"></scales>
<clustering>
<clus scale="   32.990">  2  4  1 -1</clus>
<clus scale="   57.049">  2  6  1 -1</clus>
<clus scale="   88.851">  1  3  2 -1</clus>
<clus scale="   88.851">  1  3  2 -1</clus>
</clustering>
</event>
<event>
 6    0  0.1221518E+003  0.1385407E+03  0.7546771E-02  0.1215306E+00
         21   -1    0    0  503  501  0.00000000000E+00  0.00000000000E+00  0.83847773400E+02  0.83847773400E+02  0.00000000000E+00 0. -1.
         21   -1    0    0  506  502 -0.00000000000E+00 -0.00000000000E+00 -0.14921427671E+04  0.14921427671E+04  0.00000000000E+00 0. -1.
         21    1    1    2  503  502  0.13320452662E+02 -0.45700685256E+02 -0.56403829841E+02  0.73806362278E+02  0.00000000000E+00 0. -1.
         21    1    1    2  504  505 -0.17402192497E+02  0.12395023154E+03 -0.35177784120E+03  0.37338203727E+03  0.00000000000E+00 0. -1.
         21    1    1    2  505  501  0.75175661764E+02 -0.86092393568E+02  0.11310000281E+02  0.11485293404E+03  0.00000000000E+00 0. -1.
         21    1    1    2  506  504 -0.71093921929E+02  0.78428472868E+01 -0.10114233229E+04  0.10139492069E+04  0.00000000000E+00 0. -1.
<scales pt_clust_3="47.60239" pt_clust_4="14000.00000" pt_clust_5="138.54075" pt_clust_6="71.22231"></scales>
<clustering>
<clus scale="   47.602">  1  3  2 -1</clus>
<clus scale="   71.222">  2  6  1 -1</clus>
<clus scale="  138.541">  1  5  2 -1</clus>
<clus scale="   47.602">  1  3  2 -1</clus>
</clustering>
</event>
<event>
 6    0  0.1221518E+003  0.1022657E+03  0.7546771E-02  0.1275602E+00
         21   -1    0    0  506  501  0.00000000000E+00  0.00000000000E+00  0.55824918138E+02  0.55824918138E+02  0.00000000000E+00 0. -1.
         21   -1    0    0  503  502 -0.00000000000E+00 -0.00000000000E+00 -0.14241287565E+04  0.14241287565E+04  0.00000000000E+00 0.  1.
         21    1    1    2  503  505  0.98026406981E+02  0.44322088023E+02 -0.11473468779E+04  0.11523794870E+04  0.00000000000E+00 0.  1.
         21    1    1    2  504  501 -0.55766161775E+02  0.34248521351E+02  0.41452285595E+01  0.65574453361E+02  0.00000000000E+00 0. -1.
         21    1    1    2  505  504 -0.70791241310E+02 -0.30701003559E+02 -0.11331339255E+03  0.13709075971E+03  0.00000000000E+00 0. -1.
         21    1    1    2  506  502  0.28530996103E+02 -0.47869605815E+02 -0.11178879651E+03  0.12490897456E+03  0.00000000000E+00 0.  1.
<scales pt_clust_3="102.26572" pt_clust_4="35.57959" pt_clust_5="14000.00000" pt_clust_6="55.72716"></scales>
<clustering>
<clus scale="   55.727">  1  6  2 -1</clus>
<clus scale="   35.580">  1  4  2 -1</clus>
<clus scale="  102.266">  2  3  1 -1</clus>
<clus scale="   55.727">  1  3  2 -1</clus>
</clustering>
</event>
<event>
 6    0  0.1221518E+003  0.8514799E+02  0.7546771E-02  0.1315046E+00
         21   -1    0    0  505  501  0.00000000000E+00  0.00000000000E+00  0.10824815057E+04  0.10824815057E+04  0.00000000000E+00 0. -1.
         21   -1    0    0  503  502 -0.00000000000E+00 -0.00000000000E+00 -0.28094040066E+03  0.28094040066E+03  0.00000000000E+00 0. -1.
         21    1    1    2  503  501 -0.99929517963E+02 -0.16990020642E+01 -0.19346712636E+03  0.21775748931E+03  0.00000000000E+00 0. -1.
         21    1    1    2  504  502  0.66235708571E+02 -0.47975990970E+01 -0.55494770802E+02  0.86543952032E+02  0.00000000000E+00 0.  1.
         21    1    1    2  505  506 -0.69075615603E+00  0.66015652281E+02  0.49698947164E+03  0.50135524173E+03  0.00000000000E+00 0. -1.
         21    1    1    2  506  504  0.34384565548E+02 -0.59519051119E+02  0.55351353055E+03  0.55776522328E+03  0.00000000000E+00 0. -1.
<scales pt_clust_3="85.14799" pt_clust_4="14000.00000" pt_clust_5="66.01927" pt_clust_6="33.89404"></scales>
<clustering>
<clus scale="   66.019">  1  5  2 -1</clus>
<clus scale="   33.894">  1  6  2 -1</clus>
<clus scale="   85.148">  2  3  1 -1</clus>
<clus scale="   66.019">  1  3  2 -1</clus>
</clustering>
</event>
<event>
 6    0  0.1221518E+003  0.7184958E+02  0.7546771E-02  0.1353914E+00
         21   -1    0    0  503  501  0.00000000000E+00  0.00000000000E+00  0.89955207258E+03  0.89955207258E+03  0.00000000000E+00 0. -1.
         21   -1    0    0  505  502 -0.00000000000E+00 -0.00000000000E+00 -0.13253777371E+03  0.13253777371E+03  0.00000000000E+00 0. -1.
         21    1    1    2  503  506  0.59610207394E+01 -0.71590387974E+02  0.81291967932E+03  0.81608769287E+03  0.00000000000E+00 0. -1.
         21    1    1    2  504  501  0.71839629667E+01  0.73068837396E+02 -0.31910984784E+02  0.80056075799E+02  0.00000000000E+00 0. -1.
         21    1    1    2  505  504 -0.61896709503E+02  0.19733221497E+01  0.31231318619E+02  0.69357709812E+02  0.00000000000E+00 0. -1.
         21    1    1    2  506  502  0.48751725797E+02 -0.34517715721E+01 -0.45225714291E+02  0.66588367815E+02  0.00000000000E+00 0. -1.
<scales pt_clust_3="71.84958" pt_clust_4="14000.00000" pt_clust_5="49.78137" pt_clust_6="48.87377"></scales>
<clustering>
<clus scale="   48.874">  2  6  1 -1</clus>
<clus scale="   49.781">  2  5  1 -1</clus>
<clus scale="   71.850">  1  3  2 -1</clus>
<clus scale="   71.850">  1  3  2 -1</clus>
</clustering>
</event>
<event>
 6    0  0.1221518E+003  0.7736160E+02  0.7546771E-02  0.1336710E+00
         21   -1    0    0  503  501  0.00000000000E+00  0.00000000000E+00  0.16760773616E+03  0.16760773616E+03  0.00000000000E+00 0. -1.
         21   -1    0    0  505  502 -0.00000000000E+00 -0.00000000000E+00 -0.25996021868E+03  0.25996021868E+03  0.00000000000E+00 0. -1.
         21    1    1    2  503  504 -0.13291390773E+02 -0.97610020918E+02 -0.37201016244E+02  0.10530096325E+03  0.00000000000E+00 0. -1.
         21    1    1    2  504  502  0.66281762736E+01 -0.42735946490E+02 -0.96941108289E+02  0.10615023466E+03  0.00000000000E+00 0. -1.
         21    1    1    2  505  506 -0.11829985205E+02  0.68834610828E+02 -0.58814387502E+02  0.91308731099E+02  0.00000000000E+00 0. -1.
         21    1    1    2  506  501  0.18493199704E+02  0.71511356580E+02  0.10060402952E+03  0.12480802583E+03  0.00000000000E+00 0. -1.
<scales pt_clust_3="77.36160" pt_clust_4="43.24689" pt_clust_5="49.35596" pt_clust_6="14000.00000"></scales>
<clustering>
<clus scale="   43.247">  2  4  1 -1</clus>
<clus scale="   49.356">  2  5  1 -1</clus>
<clus scale="   77.362">  2  3  1 -1</clus>
<clus scale="   77.362">  1  3  2 -1</clus>
</clustering>
</event>
<event>
 6    0  0.1276234E+003  0.1078109E+03  0.7546771E-02  0.1264678E+00
         21   -1    0    0  506  501  0.00000000000E+00  0.00000000000E+00  0.86827583842E+03  0.86827583842E+03  0.00000000000E+00 0. -1.
         21   -1    0    0  505  502 -0.00000000000E+00 -0.00000000000E+00 -0.15211057714E+03  0.15211057714E+03  0.00000000000E+00 0.  1.
         21    1    1    2  503  502  0.29569323935E+02 -0.11738709306E+02 -0.49160970173E+01  0.32191772613E+02  0.00000000000E+00 0.  1.
         21    1    1    2  504  501 -0.10017173472E+03 -0.41917920368E+02  0.75844227563E+03  0.76617633346E+03  0.00000000000E+00 0. -1.
         21    1    1    2  505  504  0.45372724323E+02  0.10817031877E+03 -0.85405937397E+02  0.14509884947E+03  0.00000000000E+00 0.  1.
         21    1    1    2  506  503  0.25229686465E+02 -0.54513689094E+02  0.48045020054E+02  0.76919460020E+02  0.00000000000E+00 0. -1.
<scales pt_clust_3="31.81418" pt_clust_4="107.81089" pt_clust_5="14000.00000" pt_clust_6="62.60785"></scales>
<clustering>
<clus scale="   31.814">  2  3  1 -1</clus>
<clus scale="   62.608">  2  6  1 -1</clus>
<clus scale="  107.811">  1  4  2 -1</clus>
<clus scale="  107.811">  1  3  2 -1</clus>
</clustering>
</event>
<event>
 6    0  0.1221518E+003  0.7288658E+02  0.7546771E-02  0.1350543E+00
         21   -1    0    0  506  501  0.00000000000E+00  0.00000000000E+00  0.70448266569E+02  0.70448266569E+02  0.00000000000E+00 0.  1.
         21   -1    0    0  505  502 -0.00000000000E+00 -0.00000000000E+00 -0.34042594477E+03  0.34042594477E+03  0.00000000000E+00 0.  1.
         21    1    1    2  503  501 -0.44734951166E+02 -0.97049527203E+01 -0.25433525714E+02  0.52366651539E+02  0.00000000000E+00 0.  1.
         21    1    1    2  504  503  0.37637640191E+02  0.62324278444E+02 -0.19586507129E+02  0.75395881215E+02  0.00000000000E+00 0.  1.
         21    1    1    2  505  504  0.21687500044E+02 -0.92281479262E+02 -0.58545313349E+02  0.11141711174E+03  0.00000000000E+00 0.  1.
         21    1    1    2  506  502 -0.14590189069E+02  0.39662153538E+02 -0.16641233201E+03  0.17169456685E+03  0.00000000000E+00 0.  1.
<scales pt_clust_3="48.05193" pt_clust_4="72.88658" pt_clust_5="14000.00000" pt_clust_6="42.26062"></scales>
<clustering>
<clus scale="   42.261">  2  6  1 -1</clus>
<clus scale="   48.052">  1  3  2 -1</clus>
<clus scale="   72.887">  1  4  2 -1</clus>
<clus scale="   48.052">  1  3  2 -1</clus>
</clustering>
</event>
<event>
 6    0  0.1221518E+003  0.6809056E+02  0.7546771E-02  0.1366709E+00
         21   -1    0    0  506  501  0.00000000000E+00  0.00000000000E+00  0.12918885279E+03  0.12918885279E+03  0.00000000000E+00 0.  1.
         21   -1    0    0  503  502 -0.00000000000E+00 -0.00000000000E+00 -0.32872340033E+03  0.32872340033E+03  0.00000000000E+00 0.  1.
         21    1    1    2  503  504 -0.52118244753E+02 -0.72930540363E+02 -0.10590755289E+03  0.13875008077E+03  0.00000000000E+00 0.  1.
         21    1    1    2  504  501  0.29599527582E+02 -0.51521184176E+02  0.44824802724E+02  0.74430016735E+02  0.00000000000E+00 0.  1.
         21    1    1    2  505  502  0.30273969254E+02  0.27993277064E+02 -0.14203224760E+03  0.14789623434E+03  0.00000000000E+00 0.  1.
         21    1    1    2  506  505 -0.77552520821E+01  0.96458447475E+02  0.35804502283E+01  0.96835921269E+02  0.00000000000E+00 0.  1.
<scales pt_clust_3="14000.00000" pt_clust_4="58.76740" pt_clust_5="41.23271" pt_clust_6="68.09056"></scales>
<clustering>
<clus scale="   41.233">  2  5  1 -1</clus>
<clus scale="   58.767">  1  4  2 -1</clus>
<clus scale="   68.091">  1  6  2 -1</clus>
<clus scale="   58.767">  1  3  2 -1</clus>
</clustering>
</event>
<event>
 6    0  0.1221518E+003  0.8298149E+02  0.7546771E-02  0.1320797E+00
         21   -1    0    0  506  501  0.00000000000E+00  0.00000000000E+00  0.40464438096E+02  0.40464438096E+02  0.00000000000E+00 0.  1.
         21   -1    0    0  503  502 -0.00000000000E+00 -0.00000000000E+00 -0.27605337015E+04  0.27605337015E+04  0.00000000000E+00 0.  1.
         21    1    1    2  503  504 -0.83132080816E+02 -0.80377969855E+02 -0.13406274230E+04  0.13456052349E+04  0.00000000000E+00 0.  1.
         21    1    1    2  504  501  0.83498178128E+02  0.34366316576E+02 -0.16393767532E+03  0.18715915915E+03  0.00000000000E+00 0.  1.
         21    1    1    2  505  502  0.46630547299E+02  0.98242019272E+01 -0.12074324751E+04  0.12083725025E+04  0.00000000000E+00 0.  1.
         21    1    1    2  506  505 -0.46996644611E+02  0.36187451352E+02 -0.80716900007E+01  0.59861243050E+02  0.00000000000E+00 0.  1.
<scales pt_clust_3="82.98149" pt_clust_4="14000.00000" pt_clust_5="47.65420" pt_clust_6="58.64276"></scales>
<clustering>
<clus scale="   47.654">  2  5  1 -1</clus>
<clus scale="   58.643">  1  6  2 -1</clus>
<clus scale="   82.981">  2  3  1 -1</clus>
<clus scale="   58.643">  1  3  2 -1</clus>
</clustering>
</event>
<event>
 6    0  0.1221518E+003  0.1035499E+03  0.7546771E-02  0.1273003E+00
         21   -1    0    0  504  501  0.00000000000E+00  0.00000000000E+00  0.48359316100E+02  0.48359316100E+02  0.00000000000E+00 0.  1.
         21   -1    0    0  506  502 -0.00000000000E+00 -0.00000000000E+00 -0.10018606032E+04  0.10018606032E+04  0.00000000000E+00 0. -1.
         21    1    1    2  503  505 -0.40406235563E+02 -0.37043979577E+02 -0.12305579098E+02  0.56181381011E+02  0.00000000000E+00 0.  1.
         21    1    1    2  504  503 -0.57525942198E+02 -0.49915231780E+02 -0.72017694783E+02  0.10482038328E+03  0.00000000000E+00 0.  1.
         21    1    1    2  505  502  0.48164121590E+02  0.79601437213E+02 -0.78965873680E+03  0.79512080341E+03  0.00000000000E+00 0. -1.
         21    1    1    2  506  501  0.49768056171E+02  0.73577741438E+01 -0.79519276430E+02  0.94097351607E+02  0.00000000000E+00 0.  1.
<scales pt_clust_3="34.55012" pt_clust_4="34.55012" pt_clust_5="95.20528" pt_clust_6="50.30901"></scales>
<clustering>
<clus scale="   34.550">  3  4 -1 -1</clus>
<clus scale="   50.309">  1  6  2 -1</clus>
<clus scale="   95.205">  2  5  1 -1</clus>
<clus scale="   50.309">  1  3  2 -1</clus>
</clustering>
</event>
<event>
 6    0  0.1221518E+003  0.9841272E+02  0.7546771E-02  0.1283670E+00
         21   -1    0    0  506  501  0.00000000000E+00  0.00000000000E+00  0.46694901893E+03  0.46694901893E+03  0.00000000000E+00 0. -1.
         21   -1    0    0  504  502 -0.00000000000E+00 -0.00000000000E+00 -0.80704252177E+02  0.80704252177E+02  0.00000000000E+00 0. -1.
         21    1    1    2  503  505 -0.13382899369E+03 -0.34059918405E+02  0.79620529155E+02  0.15940422283E+03  0.00000000000E+00 0. -1.
         21    1    1    2  504  501  0.54648211429E+02 -0.19092189423E+02  0.23672912953E+03  0.24370395869E+03  0.00000000000E+00 0. -1.
         21    1    1    2  505  502  0.14733771963E+02  0.34438042034E+02 -0.11376722681E+02  0.39147063675E+02  0.00000000000E+00 0. -1.
         21    1    1    2  506  503  0.64447010295E+02  0.18714065793E+02  0.81271830746E+02  0.10539802592E+03  0.00000000000E+00 0. -1.
<scales pt_clust_3="98.41272" pt_clust_4="58.09534" pt_clust_5="37.45748" pt_clust_6="14000.00000"></scales>
<clustering>
<clus scale="   37.457">  2  5  1 -1</clus>
<clus scale="   58.095">  1  4  2 -1</clus>
<clus scale="   98.413">  2  3  1 -1</clus>
<clus scale="   58.095">  1  3  2 -1</clus>
</clustering>
</event>
<event>
 6    0  0.1221518E+003  0.1320001E+03  0.7546771E-02  0.1224518E+00
         21   -1    0    0  503  501  0.00000000000E+00  0.00000000000E+00  0.87759421363E+02  0.87759421363E+02  0.00000000000E+00 0. -1.
         21   -1    0    0  505  502 -0.00000000000E+00 -0.00000000000E+00 -0.39120332285E+03  0.39120332285E+03  0.00000000000E+00 0. -1.
         21    1    1    2  503  504 -0.21459031865E+02  0.72312331183E+02 -0.14048153355E+02  0.76726226953E+02  0.00000000000E+00 0. -1.
         21    1    1    2  504  506  0.31733081843E+01  0.80784007188E+02 -0.54937255223E+02  0.97745729899E+02  0.00000000000E+00 0. -1.
         21    1    1    2  505  501  0.14952605869E+01 -0.10388029836E+03 -0.54800353770E+02  0.11745820944E+03  0.00000000000E+00 0. -1.
         21    1    1    2  506  502  0.16790463094E+02 -0.49216040015E+02 -0.17965813914E+03  0.18703257792E+03  0.00000000000E+00 0. -1.
<scales pt_clust_3="42.19874" pt_clust_4="42.19874" pt_clust_5="124.56088" pt_clust_6="52.00133"></scales>
<clustering>
<clus scale="   42.199">  3  4 -1 -1</clus>
<clus scale="   52.001">  2  6  1 -1</clus>
<clus scale="  124.561">  1  5  2 -1</clus>
<clus scale="  124.561">  1  3  2 -1</clus>
</clustering>
</event>
<event>
 6    0  0.1221518E+003  0.8960886E+02  0.7546771E-02  0.1303802E+00
         21   -1    0    0  503  501  0.00000000000E+00  0.00000000000E+00  0.54504198122E+02  0.54504198122E+02  0.00000000000E+00 0.  1.
         21   -1    0    0  506  502 -0.00000000000E+00 -0.00000000000E+00 -0.87057944352E+03  0.87057944352E+03  0.00000000000E+00 0.  1.
         21    1    1    2  503  504 -0.42016070984E+02 -0.52821177559E+02 -0.11751160672E+03  0.13551533025E+03  0.00000000000E+00 0.  1.
         21    1    1    2  504  502 -0.10518939546E+03 -0.14676705582E+02 -0.53574910623E+02  0.11895581387E+03  0.00000000000E+00 0.  1.
         21    1    1    2  505  501  0.63544480416E+02  0.40848311168E+02 -0.15056169700E+03  0.16844972580E+03  0.00000000000E+00 0.  1.
         21    1    1    2  506  505  0.83660986032E+02  0.26649571973E+02 -0.49442703105E+03  0.50216277173E+03  0.00000000000E+00 0.  1.
<scales pt_clust_3="67.49390" pt_clust_4="89.60886" pt_clust_5="63.12425" pt_clust_6="14000.00000"></scales>
<clustering>
<clus scale="   67.494">  1  3  2 -1</clus>
<clus scale="   63.124">  1  5  2 -1</clus>
<clus scale="   89.609">  1  4  2 -1</clus>
<clus scale="   67.494">  1  3  2 -1</clus>
</clustering>
</event>
<event>
 6    0  0.1221518E+003  0.1256710E+03  0.7546771E-02  0.1234024E+00
         21   -1    0    0  503  501  0.00000000000E+00  0.00000000000E+00  0.23262109757E+03  0.23262109757E+03  0.00000000000E+00 0.  1.
         21   -1    0    0  506  502 -0.00000000000E+00 -0.00000000000E+00 -0.16944766913E+03  0.16944766913E+03  0.00000000000E+00 0. -1.
         21    1    1    2  503  502 -0.95345269309E+02 -0.10969717550E+03  0.11687724801E+03  0.18650598327E+03  0.00000000000E+00 0.  1.
         21    1    1    2  504  505  0.68426574592E+02  0.35863120055E+02 -0.44593697908E+02  0.89201779038E+02  0.00000000000E+00 0. -1.
         21    1    1    2  505  501  0.10007013549E+02  0.38300758765E+02  0.44691924139E+02  0.59703069648E+02  0.00000000000E+00 0. -1.
         21    1    1    2  506  504  0.16911681167E+02  0.35533296684E+02 -0.53802045797E+02  0.66657934749E+02  0.00000000000E+00 0. -1.
<scales pt_clust_3="116.45914" pt_clust_4="33.70698" pt_clust_5="39.58647" pt_clust_6="33.70698"></scales>
<clustering>
<clus scale="   33.707">  4  6 -1 -1</clus>
<clus scale="   39.586">  1  5  2 -1</clus>
<clus scale="  116.459">  1  3  2 -1</clus>
<clus scale="   39.586">  1  3  2 -1</clus>
</clustering>
</event>
<event>
 6    0  0.1221518E+003  0.1209708E+03  0.7546771E-02  0.1241504E+00
         21   -1    0    0  504  501  0.00000000000E+00  0.00000000000E+00  0.29902160634E+03  0.29902160634E+03  0.00000000000E+00 0. -1.
         21   -1    0    0  505  502 -0.00000000000E+00 -0.00000000000E+00 -0.70670403990E+03  0.70670403990E+03  0.00000000000E+00 0.  1.
         21    1    1    2  503  502 -0.41927764677E+02  0.13144640965E+02 -0.48678394384E+03  0.48876305815E+03  0.00000000000E+00 0.  1.
         21    1    1    2  504  506  0.74598264836E+02 -0.96746586234E+02  0.18462830192E+03  0.22138747240E+03  0.00000000000E+00 0. -1.
         21    1    1    2  505  501 -0.66203167201E+02 -0.73942473995E+02  0.63629939583E+01  0.99452684730E+02  0.00000000000E+00 0.  1.
         21    1    1    2  506  503  0.33532667041E+02  0.15754441926E+03 -0.11188978561E+03  0.19612243096E+03  0.00000000000E+00 0.  1.
<scales pt_clust_3="43.93995" pt_clust_4="14000.00000" pt_clust_5="103.46302" pt_clust_6="120.97082"></scales>
<clustering>
<clus scale="   43.940">  2  3  1 -1</clus>
<clus scale="  103.463">  2  5  1 -1</clus>
<clus scale="  120.971">  2  6  1 -1</clus>
<clus scale="  120.971">  1  3  2 -1</clus>
</clustering>
</event>
<event>
 6    0  0.1221518E+003  0.6032663E+03  0.7546771E-02  0.9898653E-01
         21   -1    0    0  505  501  0.00000000000E+00  0.00000000000E+00  0.80320657816E+03  0.80320657816E+03  0.00000000000E+00 0.  1.
         21   -1    0    0  503  502 -0.00000000000E+00 -0.00000000000E+00 -0.13152348061E+04  0.13152348061E+04  0.00000000000E+00 0.  1.
         21    1    1    2  503  501 -0.24985494129E+03  0.61006406740E+03  0.41737777291E+03  0.78026268867E+03  0.00000000000E+00 0.  1.
         21    1    1    2  504  502  0.65082229635E+02 -0.47717381340E+02 -0.64517269622E+03  0.65020031763E+03  0.00000000000E+00 0.  1.
         21    1    1    2  505  506 -0.65277483686E+01 -0.54630897246E+02  0.28268297245E+02  0.61856633126E+02  0.00000000000E+00 0.  1.
         21    1    1    2  506  504  0.19130046002E+03 -0.50771578881E+03 -0.31250160192E+03  0.62612174489E+03  0.00000000000E+00 0.  1.
<scales pt_clust_3="14000.00000" pt_clust_4="80.79077" pt_clust_5="55.01951" pt_clust_6="603.26633"></scales>
<clustering>
<clus scale="   55.020">  1  5  2 -1</clus>
<clus scale="   80.791">  2  4  1 -1</clus>
<clus scale="  603.266">  2  6  1 -1</clus>
<clus scale="   55.020">  1  3  2 -1</clus>
</clustering>
</event>
<event>
 6    0  0.1221518E+003  0.1714149E+03  0.7546771E-02  0.1176380E+00
         21   -1    0    0  506  501  0.00000000000E+00  0.00000000000E+00  0.23951926289E+04  0.23951926289E+04  0.00000000000E+00 0.  1.
         21   -1    0    0  505  502 -0.00000000000E+00 -0.00000000000E+00 -0.23719164308E+03  0.23719164308E+03  0.00000000000E+00 0.  1.
         21    1    1    2  503  504 -0.70613850154E+02 -0.57826406925E+01  0.42952882405E+02  0.82853514553E+02  0.00000000000E+00 0.  1.
         21    1    1    2  504  501  0.50028803532E+02  0.27609164448E+02  0.20925230174E+04  0.20933030659E+04  0.00000000000E+00 0.  1.
         21    1    1    2  505  503 -0.82742456607E+02 -0.15186568634E+03 -0.14100589254E+03  0.22314157512E+03  0.00000000000E+00 0.  1.
         21    1    1    2  506  502  0.10332750323E+03  0.13003916259E+03  0.16353097853E+03  0.23308611642E+03  0.00000000000E+00 0.  1.
<scales pt_clust_3="60.20306" pt_clust_4="57.14147" pt_clust_5="14000.00000" pt_clust_6="171.41491"></scales>
<clustering>
<clus scale="   57.141">  1  4  2 -1</clus>
<clus scale="   60.203">  1  3  2 -1</clus>
<clus scale="  171.415">  1  6  2 -1</clus>
<clus scale="   57.141">  1  3  2 -1</clus>
</clustering>
</event>
<event>
 6    0  0.1221518E+003  0.4679608E+03  0.7546771E-02  0.1022497E+00
         21   -1    0    0  506  501  0.00000000000E+00  0.00000000000E+00  0.28627508706E+03  0.28627508706E+03  0.00000000000E+00 0.  1.
         21   -1    0    0  505  502 -0.00000000000E+00 -0.00000000000E+00 -0.15987184416E+04  0.15987184416E+04  0.00000000000E+00 0.  1.
         21    1    1    2  503  504  0.66604260084E+02 -0.45778764061E+03 -0.56949390291E+03  0.73370904097E+03  0.00000000000E+00 0.  1.
         21    1    1    2  504  502 -0.99898735153E+02  0.46161504939E+03 -0.87804698934E+03  0.99701290192E+03  0.00000000000E+00 0.  1.
         21    1    1    2  505  501  0.23910896585E+02  0.29916048869E+02  0.84052738091E+02  0.92366464347E+02  0.00000000000E+00 0.  1.
         21    1    1    2  506  503  0.93835784834E+01 -0.33743457648E+02  0.51044799665E+02  0.61905121372E+02  0.00000000000E+00 0.  1.
<scales pt_clust_3="14000.00000" pt_clust_4="467.96085" pt_clust_5="32.32206" pt_clust_6="35.02388"></scales>
<clustering>
<clus scale="   35.024">  1  6  2 -1</clus>
<clus scale="   32.322">  1  5  2 -1</clus>
<clus scale="  467.961">  2  4  1 -1</clus>
<clus scale="   35.024">  1  3  2 -1</clus>
</clustering>
</event>
<event>
 6    0  0.1221518E+003  0.1109077E+03  0.7546771E-02  0.1258898E+00
         21   -1    0    0  506  501  0.00000000000E+00  0.00000000000E+00  0.29302828517E+03  0.29302828517E+03  0.00000000000E+00 0.  1.
         21   -1    0    0  505  502 -0.00000000000E+00 -0.00000000000E+00 -0.66513626279E+03  0.66513626279E+03  0.00000000000E+00 0. -1.
         21    1    1    2  503  501  0.51409644059E+01 -0.31243498501E+02  0.19515643792E+03  0.19770842414E+03  0.00000000000E+00 0.  1.
         21    1    1    2  504  503  0.11709640148E+02 -0.80262729638E+02  0.54742214086E+02  0.97856688297E+02  0.00000000000E+00 0.  1.
         21    1    1    2  505  504 -0.26473071572E+02 -0.51037100611E+02 -0.24986818222E+03  0.25639757730E+03  0.00000000000E+00 0. -1.
         21    1    1    2  506  502  0.96224670189E+01  0.16254332875E+03 -0.37213844741E+03  0.40620185823E+03  0.00000000000E+00 0. -1.
<scales pt_clust_3="31.66363" pt_clust_4="14000.00000" pt_clust_5="58.35529" pt_clust_6="110.90772"></scales>
<clustering>
<clus scale="   31.664">  1  3  2 -1</clus>
<clus scale="   58.355">  2  5  1 -1</clus>
<clus scale="  110.908">  2  6  1 -1</clus>
<clus scale="   31.664">  1  3  2 -1</clus>
</clustering>
</event>
<event>
 6    0  0.1221518E+003  0.7213310E+02  0.7546771E-02  0.1352986E+00
         21   -1    0    0  503  501  0.00000000000E+00  0.00000000000E+00  0.95955761101E+03  0.95955761101E+03  0.00000000000E+00 0.  1.
         21   -1    0    0  505  502 -0.00000000000E+00 -0.00000000000E+00 -0.54249884696E+03  0.54249884696E+03  0.00000000000E+00 0.  1.
         21    1    1    2  503  506 -0.41025553569E+02 -0.13263583901E+01  0.22497322639E+03  0.22868713970E+03  0.00000000000E+00 0.  1.
         21    1    1    2  504  502 -0.54952811834E+02  0.26604025868E+02 -0.19723450444E+03  0.20646800106E+03  0.00000000000E+00 0. -1.
         21    1    1    2  505  501  0.48117127831E+02 -0.85440501500E+02 -0.32960270853E+03  0.34387975043E+03  0.00000000000E+00 0.  1.
         21    1    1    2  506  504  0.47861237572E+02  0.60162834023E+02  0.71892275063E+03  0.72302156678E+03  0.00000000000E+00 0.  1.
<scales pt_clust_3="41.04699" pt_clust_4="14000.00000" pt_clust_5="72.13310" pt_clust_6="59.33290"></scales>
<clustering>
<clus scale="   41.047">  1  3  2 -1</clus>
<clus scale="   59.333">  1  6  2 -1</clus>
<clus scale="   72.133">  1  5  2 -1</clus>
<clus scale="   41.047">  1  3  2 -1</clus>
</clustering>
</event>
<event>
 6    0  0.1221518E+003  0.6650377E+02  0.7546771E-02  0.1372403E+00
         21   -1    0    0  504  501  0.00000000000E+00  0.00000000000E+00  0.35046129222E+02  0.35046129222E+02  0.00000000000E+00 0.  1.
         21   -1    0    0  503  502 -0.00000000000E+00 -0.00000000000E+00 -0.12975022086E+04  0.12975022086E+04  0.00000000000E+00 0. -1.
         21    1    1    2  503  506  0.46941258718E+02 -0.50530182931E+02 -0.94237190068E+03  0.94489236443E+03  0.00000000000E+00 0. -1.
         21    1    1    2  504  502  0.62831256078E+02  0.58154456026E+02 -0.10446626396E+03  0.13506630891E+03  0.00000000000E+00 0.  1.
         21    1    1    2  505  501 -0.37815504666E+02 -0.10033406294E+02 -0.19582205697E+02  0.43750936161E+02  0.00000000000E+00 0.  1.
         21    1    1    2  506  505 -0.71957010130E+02  0.24091331989E+01 -0.19603570900E+03  0.20883872828E+03  0.00000000000E+00 0.  1.
<scales pt_clust_3="66.50377" pt_clust_4="63.76013" pt_clust_5="39.12393" pt_clust_6="14000.00000"></scales>
<clustering>
<clus scale="   39.124">  1  5  2 -1</clus>
<clus scale="   63.760">  1  4  2 -1</clus>
<clus scale="   66.504">  2  3  1 -1</clus>
<clus scale="   39.124">  1  3  2 -1</clus>
</clustering>
</event>
<event>
 6    0  0.1221518E+003  0.1252381E+03  0.7546771E-02  0.1234698E+00
         21   -1    0    0  505  501  0.00000000000E+00  0.00000000000E+00  0.10580072504E+03  0.10580072504E+03  0.00000000000E+00 0.  1.
         21   -1    0    0  503  502 -0.00000000000E+00 -0.00000000000E+00 -0.33665580816E+03  0.33665580816E+03  0.00000000000E+00 0.  1.
         21    1    1    2  503  504 -0.18804723967E+02  0.54134547169E+02 -0.60595619345E+02  0.83402613415E+02  0.00000000000E+00 0.  1.
         21    1    1    2  504  501 -0.83231803759E+02  0.63982955600E+02 -0.13269008042E+03  0.16919813594E+03  0.00000000000E+00 0.  1.
         21    1    1    2  505  506  0.67141401127E+02 -0.36560846136E+02  0.25968131600E+02  0.80740368307E+02  0.00000000000E+00 0.  1.
         21    1    1    2  506  502  0.34895126600E+02 -0.81556656633E+02 -0.63537514953E+02  0.10911541554E+03  0.00000000000E+00 0.  1.
<scales pt_clust_3="33.73314" pt_clust_4="33.73314" pt_clust_5="76.45040" pt_clust_6="116.61910"></scales>
<clustering>
<clus scale="   33.733">  3  4 -1 -1</clus>
<clus scale="   76.450">  1  5  2 -1</clus>
<clus scale="  116.619">  2  6  1 -1</clus>
<clus scale="   76.450">  1  3  2 -1</clus>
</clustering>
</event>
<event>
 6    0  0.1221518E+003  0.1949563E+03  0.7546771E-02  0.1154066E+00
         21   -1    0    0  505  501  0.00000000000E+00  0.00000000000E+00  0.89812786544E+02  0.89812786544E+02  0.00000000000E+00 0.  1.
         21   -1    0    0  504  502 -0.00000000000E+00 -0.00000000000E+00 -0.14896201893E+04  0.14896201893E+04  0.00000000000E+00 0.  1.
         21    1    1    2  503  506 -0.35584467079E+02 -0.16642030452E+03 -0.59912728173E+03  0.62282860545E+03  0.00000000000E+00 0.  1.
         21    1    1    2  504  503 -0.40592163626E+02 -0.26333847784E+02 -0.53238139310E+03  0.53457566630E+03  0.00000000000E+00 0. -1.
         21    1    1    2  505  502  0.16090167331E+03  0.16094966113E+03 -0.14793371935E+03  0.27143788832E+03  0.00000000000E+00 0.  1.
         21    1    1    2  506  501 -0.84725042607E+02  0.31804491178E+02 -0.12036500854E+03  0.15059081574E+03  0.00000000000E+00 0.  1.
<scales pt_clust_3="194.95629" pt_clust_4="48.38590" pt_clust_5="14000.00000" pt_clust_6="94.73186"></scales>
<clustering>
<clus scale="   48.386">  2  4  1 -1</clus>
<clus scale="   94.732">  1  6  2 -1</clus>
<clus scale="  194.956">  2  3  1 -1</clus>
<clus scale="   94.732">  1  3  2 -1</clus>
</clustering>
</event>
<event>
 6    0  0.1221518E+003  0.9988209E+02  0.7546771E-02  0.1280544E+00
         21   -1    0    0  506  501  0.00000000000E+00  0.00000000000E+00  0.82610623684E+02  0.82610623684E+02  0.00000000000E+00 0.  1.
         21   -1    0    0  505  502 -0.00000000000E+00 -0.00000000000E+00 -0.60404592616E+03  0.60404592616E+03  0.00000000000E+00 0.  1.
         21    1    1    2  503  504 -0.10985358086E+03  0.68895004369E+02 -0.21066403406E+03  0.24737353557E+03  0.00000000000E+00 0.  1.
         21    1    1    2  504  502  0.30894087343E+02 -0.90690656063E+02 -0.31021907381E+03  0.32467693710E+03  0.00000000000E+00 0.  1.
         21    1    1    2  505  501  0.72772103293E+02 -0.15690325762E+02 -0.10877434013E+02  0.75234858350E+02  0.00000000000E+00 0.  1.
         21    1    1    2  506  503  0.61873902205E+01  0.37485977456E+02  0.10325239400E+02  0.39371218831E+02  0.00000000000E+00 0.  1.
<scales pt_clust_3="99.88209" pt_clust_4="14000.00000" pt_clust_5="76.39570" pt_clust_6="37.99319"></scales>
<clustering>
<clus scale="   37.993">  1  6  2 -1</clus>
<clus scale="   76.396">  1  5  2 -1</clus>
<clus scale="   99.882">  1  3  2 -1</clus>
<clus scale="   37.993">  1  3  2 -1</clus>
</clustering>
</event>
<event>
 6    0  0.1221518E+003  0.1458769E+03  0.7546771E-02  0.1205633E+00
         21   -1    0    0  504  501  0.00000000000E+00  0.00000000000E+00  0.39672702666E+03  0.39672702666E+03  0.00000000000E+00 0. -1.
         21   -1    0    0  503  502 -0.00000000000E+00 -0.00000000000E+00 -0.17362808647E+03  0.17362808647E+03  0.00000000000E+00 0. -1.
         21    1    1    2  503  506 -0.45216702251E+01  0.45293266761E+02 -0.69836366966E+01  0.46051022758E+02  0.00000000000E+00 0. -1.
         21    1    1    2  504  502 -0.27686074244E+02 -0.34389756131E+02  0.19391743104E+03  0.19887972269E+03  0.00000000000E+00 0. -1.
         21    1    1    2  505  501 -0.99165795893E+02 -0.72139759854E+02  0.10822437466E+03  0.16355584764E+03  0.00000000000E+00 0.  1.
         21    1    1    2  506  505  0.13137354036E+03  0.61236249223E+02 -0.72059228804E+02  0.16186852005E+03  0.00000000000E+00 0. -1.
<scales pt_clust_3="42.55713" pt_clust_4="44.14945" pt_clust_5="14000.00000" pt_clust_6="145.87687"></scales>
<clustering>
<clus scale="   44.149">  1  4  2 -1</clus>
<clus scale="   42.557">  2  3  1 -1</clus>
<clus scale="  145.877">  2  6  1 -1</clus>
<clus scale="   44.149">  1  3  2 -1</clus>
</clustering>
</event>
<event>
 6    0  0.1221518E+003  0.1116966E+03  0.7546771E-02  0.1257460E+00
         21   -1    0    0  504  501  0.00000000000E+00  0.00000000000E+00  0.85549407281E+02  0.85549407281E+02  0.00000000000E+00 0.  1.
         21   -1    0    0  506  502 -0.00000000000E+00 -0.00000000000E+00 -0.11847444774E+04  0.11847444774E+04  0.00000000000E+00 0.  1.
         21    1    1    2  503  502 -0.85997938032E+01 -0.86228596394E+02 -0.68066936262E+03  0.68616332495E+03  0.00000000000E+00 0.  1.
         21    1    1    2  504  503  0.35182608047E+02  0.10779967905E+03  0.31582888123E+02  0.11771179013E+03  0.00000000000E+00 0.  1.
         21    1    1    2  505  501 -0.72209707082E+02 -0.24387983822E+02 -0.29773701056E+03  0.30733750668E+03  0.00000000000E+00 0.  1.
         21    1    1    2  506  505  0.45626892839E+02  0.28169011612E+01 -0.15237158510E+03  0.15908126297E+03  0.00000000000E+00 0.  1.
<scales pt_clust_3="111.69664" pt_clust_4="14000.00000" pt_clust_5="63.33982" pt_clust_6="45.71376"></scales>
<clustering>
<clus scale="   45.714">  2  6  1 -1</clus>
<clus scale="   63.340">  2  5  1 -1</clus>
<clus scale="  111.697">  2  3  1 -1</clus>
<clus scale="  111.697">  1  3  2 -1</clus>
</clustering>
</event>
<event>
 6    0  0.1221518E+003  0.1041327E+03  0.7546771E-02  0.1271838E+00
         21   -1    0    0  505  501  0.00000000000E+00  0.00000000000E+00  0.54740521265E+03  0.54740521265E+03  0.00000000000E+00 0.  1.
         21   -1    0    0  504  502 -0.00000000000E+00 -0.00000000000E+00 -0.20883429405E+03  0.20883429405E+03  0.00000000000E+00 0. -1.
         21    1    1    2  503  506  0.14834801352E+02 -0.14815599910E+03  0.18966270729E+03  0.24112696642E+03  0.00000000000E+00 0. -1.
         21    1    1    2  504  503 -0.17311181621E+02  0.24663758528E+02 -0.28663891547E+02  0.41588419932E+02  0.00000000000E+00 0. -1.
         21    1    1    2  505  502  0.37256857115E+02  0.76785389763E+02 -0.13273186547E+03  0.15780309754E+03  0.00000000000E+00 0. -1.
         21    1    1    2  506  501 -0.34780476846E+02  0.46706850809E+02  0.31030396833E+03  0.31572102280E+03  0.00000000000E+00 0.  1.
<scales pt_clust_3="104.13270" pt_clust_4="30.13267" pt_clust_5="14000.00000" pt_clust_6="58.70377"></scales>
<clustering>
<clus scale="   30.133">  2  4  1 -1</clus>
<clus scale="   58.704">  1  6  2 -1</clus>
<clus scale="  104.133">  1  3  2 -1</clus>
<clus scale="   58.704">  1  3  2 -1</clus>
</clustering>
</event>
<event>
 6    0  0.1221518E+003  0.6362933E+02  0.7546771E-02  0.1383203E+00
         21   -1    0    0  506  501  0.00000000000E+00  0.00000000000E+00  0.18805185643E+02  0.18805185643E+02  0.00000000000E+00 0.  1.
         21   -1    0    0  503  502 -0.00000000000E+00 -0.00000000000E+00 -0.14309520626E+04  0.14309520626E+04  0.00000000000E+00 0.  1.
         21    1    1    2  503  505 -0.31047877176E+02 -0.34244472053E+02 -0.35564247521E+03  0.35863383097E+03  0.00000000000E+00 0.  1.
         21    1    1    2  504  502  0.64745361513E+02 -0.28522679168E+01 -0.68987172050E+03  0.69290914845E+03  0.00000000000E+00 0.  1.
         21    1    1    2  505  501 -0.88680417776E+02  0.33505297812E+02 -0.27932666051E+03  0.29497492224E+03  0.00000000000E+00 0.  1.
         21    1    1    2  506  504  0.54982933438E+02  0.35914421581E+01 -0.87306020790E+02  0.10323934663E+03  0.00000000000E+00 0.  1.
<scales pt_clust_3="46.22396" pt_clust_4="51.21572" pt_clust_5="63.62933" pt_clust_6="14000.00000"></scales>
<clustering>
<clus scale="   46.224">  2  3  1 -1</clus>
<clus scale="   51.216">  2  4  1 -1</clus>
<clus scale="   63.629">  2  5  1 -1</clus>
<clus scale="   63.629">  1  3  2 -1</clus>
</clustering>
</event>
<event>
 6    0  0.1221518E+003  0.7684593E+02  0.7546771E-02  0.1338248E+00
         21   -1    0    0  504  501  0.00000000000E+00  0.00000000000E+00  0.10774696439E+03  0.10774696439E+03  0.00000000000E+00 0. -1.
         21   -1    0    0  506  502 -0.00000000000E+00 -0.00000000000E+00 -0.37152089671E+03  0.37152089671E+03  0.00000000000E+00 0. -1.
         21    1    1    2  503  505 -0.11671312606E+03 -0.61146702465E+02 -0.28002879683E+02  0.13470350511E+03  0.00000000000E+00 0. -1.
         21    1    1    2  504  503  0.25416306779E+02  0.46814762647E+02  0.10603574956E+02  0.54314330097E+02  0.00000000000E+00 0.  1.
         21    1    1    2  505  502  0.60031826522E+02  0.38863645568E+02 -0.23946244164E+03  0.24991291303E+03  0.00000000000E+00 0. -1.
         21    1    1    2  506  501  0.31264992761E+02 -0.24531705750E+02 -0.69121859545E+01  0.40337112862E+02  0.00000000000E+00 0.  1.
<scales pt_clust_3="14000.00000" pt_clust_4="52.78341" pt_clust_5="76.84593" pt_clust_6="39.74046"></scales>
<clustering>
<clus scale="   39.740">  1  6  2 -1</clus>
<clus scale="   52.783">  1  4  2 -1</clus>
<clus scale="   76.846">  2  5  1 -1</clus>
<clus scale="   39.740">  1  3  2 -1</clus>
</clustering>
</event>
<event>
 6    0  0.1221518E+003  0.1050020E+03  0.7546771E-02  0.1270116E+00
         21   -1    0    0  504  501  0.00000000000E+00  0.00000000000E+00  0.19367437342E+03  0.19367437342E+03  0.00000000000E+00 0.  1.
         21   -1    0    0  503  502 -0.00000000000E+00 -0.00000000000E+00 -0.17813737697E+03  0.17813737697E+03  0.00000000000E+00 0.  1.
         21    1    1    2  503  506  0.37413823439E+02  0.20002727584E+02 -0.15366724496E+02  0.45122494577E+02  0.00000000000E+00 0.  1.
         21    1    1    2  504  502 -0.92121012595E+01 -0.30047989959E+02 -0.25796262434E+02  0.40659459733E+02  0.00000000000E+00 0.  1.
         21    1    1    2  505  501 -0.89415205338E+02  0.63932879484E+02  0.13423736686E+03  0.17349974838E+03  0.00000000000E+00 0.  1.
         21    1    1    2  506  505  0.61213483159E+02 -0.53887617109E+02 -0.77537383485E+02  0.11253004770E+03  0.00000000000E+00 0.  1.
<scales pt_clust_3="38.05482" pt_clust_4="31.42840" pt_clust_5="105.00198" pt_clust_6="14000.00000"></scales>
<clustering>
<clus scale="   31.428">  2  4  1 -1</clus>
<clus scale="   38.055">  2  3  1 -1</clus>
<clus scale="  105.002">  1  5  2 -1</clus>
<clus scale="  105.002">  1  3  2 -1</clus>
</clustering>
</event>
<event>
 6    0  0.1221518E+003  0.1250391E+03  0.7546771E-02  0.1235008E+00
         21   -1    0    0  506  501  0.00000000000E+00  0.00000000000E+00  0.58613771470E+03  0.58613771470E+03  0.00000000000E+00 0. -1.
         21   -1    0    0  505  502 -0.00000000000E+00 -0.00000000000E+00 -0.69733562296E+02  0.69733562296E+02  0.00000000000E+00 0.  1.
         21    1    1    2  503  501 -0.43114619480E+02  0.28375270881E+02  0.73683341307E+02  0.89962554414E+02  0.00000000000E+00 0. -1.
         21    1    1    2  504  502  0.43674083371E+02 -0.11352676587E+03  0.45946731887E+02  0.13002636001E+03  0.00000000000E+00 0.  1.
         21    1    1    2  505  503 -0.25736822275E+02  0.56281383362E+02  0.33073477201E+02  0.70170029415E+02  0.00000000000E+00 0. -1.
         21    1    1    2  506  504  0.25177358384E+02  0.28870111626E+02  0.36370060201E+03  0.36571233315E+03  0.00000000000E+00 0. -1.
<scales pt_clust_3="42.75283" pt_clust_4="115.31096" pt_clust_5="42.75283" pt_clust_6="38.30643"></scales>
<clustering>
<clus scale="   38.306">  1  6  2 -1</clus>
<clus scale="   42.753">  3  5 -1 -1</clus>
<clus scale="  115.311">  2  4  1 -1</clus>
<clus scale="   38.306">  1  3  2 -1</clus>
</clustering>
</event>
<event>
 6    0  0.1221518E+003  0.1128890E+03  0.7546771E-02  0.1255312E+00
         21   -1    0    0  504  501  0.00000000000E+00  0.00000000000E+00  0.67030391614E+02  0.67030391614E+02  0.00000000000E+00 0.  1.
         21   -1    0    0  503  502 -0.00000000000E+00 -0.00000000000E+00 -0.11582067461E+04  0.11582067461E+04  0.00000000000E+00 0.  1.
         21    1    1    2  503  506  0.59804071233E+02  0.32901935612E+02 -0.32335048272E+03  0.33047632136E+03  0.00000000000E+00 0.  1.
         21    1    1    2  504  502 -0.39721802079E+02 -0.31104474641E+02 -0.25365411991E+03  0.25862274155E+03  0.00000000000E+00 0.  1.
         21    1    1    2  505  501 -0.59829551110E+02 -0.79392074567E+02  0.14378300292E+02  0.10044606617E+03  0.00000000000E+00 0.  1.
         21    1    1    2  506  505  0.39747281955E+02  0.77594613595E+02 -0.52855005211E+03  0.53569200859E+03  0.00000000000E+00 0.  1.
<scales pt_clust_3="43.28528" pt_clust_4="50.45106" pt_clust_5="101.73904" pt_clust_6="43.28528"></scales>
<clustering>
<clus scale="   43.285">  3  6 -1 -1</clus>
<clus scale="   50.451">  2  4  1 -1</clus>
<clus scale="  101.739">  1  5  2 -1</clus>
<clus scale="  101.739">  1  3  2 -1</clus>
</clustering>
</event>
<event>
 6    0  0.1221518E+003  0.7354979E+02  0.7546771E-02  0.1348422E+00
         21   -1    0    0  504  501  0.00000000000E+00  0.00000000000E+00  0.14463555000E+04  0.14463555000E+04  0.00000000000E+00 0.  1.
         21   -1    0    0  503  502 -0.00000000000E+00 -0.00000000000E+00 -0.16970706816E+03  0.16970706816E+03  0.00000000000E+00 0. -1.
         21    1    1    2  503  505 -0.64877186213E+02  0.60487950954E+02  0.28820236431E+03  0.30154343683E+03  0.00000000000E+00 0.  1.
         21    1    1    2  504  506  0.61580969476E+02 -0.20560318321E+02  0.46601835541E+02  0.79916666390E+02  0.00000000000E+00 0. -1.
         21    1    1    2  505  501 -0.73565419892E+01  0.32963642585E+02  0.10786741775E+04  0.10792028084E+04  0.00000000000E+00 0.  1.
         21    1    1    2  506  502  0.10652758727E+02 -0.72891275219E+02 -0.13682994551E+03  0.15539965656E+03  0.00000000000E+00 0. -1.
<scales pt_clust_3="14000.00000" pt_clust_4="62.12393" pt_clust_5="33.77455" pt_clust_6="73.54979"></scales>
<clustering>
<clus scale="   33.775">  1  5  2 -1</clus>
<clus scale="   62.124">  1  4  2 -1</clus>
<clus scale="   73.550">  2  6  1 -1</clus>
<clus scale="   33.775">  1  3  2 -1</clus>
</clustering>
</event>
<event>
 6    0  0.1221518E+003  0.8262999E+02  0.7546771E-02  0.1321749E+00
         21   -1    0    0  504  501  0.00000000000E+00  0.00000000000E+00  0.52314340222E+02  0.52314340222E+02  0.00000000000E+00 0. -1.
         21   -1    0    0  505  502 -0.00000000000E+00 -0.00000000000E+00 -0.11722180222E+04  0.11722180222E+04  0.00000000000E+00 0. -1.
         21    1    1    2  503  502  0.24959245082E+01 -0.49304403689E+02 -0.18488225139E+03  0.19135987234E+03  0.00000000000E+00 0. -1.
         21    1    1    2  504  503  0.54325332148E+02  0.81846832638E+02 -0.20281696676E+03  0.22535498160E+03  0.00000000000E+00 0. -1.
         21    1    1    2  505  506 -0.79431390009E+02  0.49860708173E+02 -0.71440507733E+03  0.72053455882E+03  0.00000000000E+00 0. -1.
         21    1    1    2  506  501  0.22610133353E+02 -0.82403137122E+02 -0.17799386465E+02  0.87282949631E+02  0.00000000000E+00 0. -1.
<scales pt_clust_3="49.36754" pt_clust_4="14000.00000" pt_clust_5="78.84918" pt_clust_6="82.62999"></scales>
<clustering>
<clus scale="   49.368">  2  3  1 -1</clus>
<clus scale="   78.849">  2  5  1 -1</clus>
<clus scale="   82.630">  1  6  2 -1</clus>
<clus scale="   82.630">  1  3  2 -1</clus>
</clustering>
</event>
<event>
 6    0  0.1221518E+003  0.9391357E+02  0.7546771E-02  0.1293642E+00
         21   -1    0    0  506  501  0.00000000000E+00  0.00000000000E+00  0.35695678859E+03  0.35695678859E+03  0.00000000000E+00 0.  1.
         21   -1    0    0  505  502 -0.00000000000E+00 -0.00000000000E+00 -0.13339885400E+03  0.13339885400E+03  0.00000000000E+00 0. -1.
         21    1    1    2  503  502 -0.17681105396E+02  0.10549360942E+03 -0.45996890056E+02  0.11643554874E+03  0.00000000000E+00 0. -1.
         21    1    1    2  504  501  0.29159531120E+02 -0.86985148502E+02  0.17369243852E+03  0.19643257753E+03  0.00000000000E+00 0.  1.
         21    1    1    2  505  504  0.79450818215E+01 -0.75899557145E+02  0.17256717437E+02  0.78241046751E+02  0.00000000000E+00 0. -1.
         21    1    1    2  506  503 -0.19423507546E+02  0.57391096231E+02  0.78605668688E+02  0.99246469568E+02  0.00000000000E+00 0.  1.
<scales pt_clust_3="93.91357" pt_clust_4="49.90912" pt_clust_5="14000.00000" pt_clust_6="60.58887"></scales>
<clustering>
<clus scale="   60.589">  1  6  2 -1</clus>
<clus scale="   49.909">  1  4  2 -1</clus>
<clus scale="   93.914">  2  3  1 -1</clus>
<clus scale="   60.589">  1  3  2 -1</clus>
</clustering>
</event>
<event>
 6    0  0.1221518E+003  0.1048485E+03  0.7546771E-02  0.1270418E+00
         21   -1    0    0  505  501  0.00000000000E+00  0.00000000000E+00  0.58243441824E+03  0.58243441824E+03  0.00000000000E+00 0.  1.
         21   -1    0    0  504  502 -0.00000000000E+00 -0.00000000000E+00 -0.18531714794E+03  0.18531714794E+03  0.00000000000E+00 0.  1.
         21    1    1    2  503  502 -0.48963098387E+02  0.85933417764E+02  0.35731962937E+03  0.37075497951E+03  0.00000000000E+00 0.  1.
         21    1    1    2  504  506  0.33680234070E+02 -0.41930469479E+02 -0.12326087414E+03  0.13448332808E+03  0.00000000000E+00 0.  1.
         21    1    1    2  505  503  0.21018335277E+02  0.26224859723E+02  0.18553439314E+03  0.18855377144E+03  0.00000000000E+00 0.  1.
         21    1    1    2  506  501 -0.57354709593E+01 -0.70227808008E+02 -0.22475878085E+02  0.73959487157E+02  0.00000000000E+00 0.  1.
<scales pt_clust_3="14000.00000" pt_clust_4="53.68083" pt_clust_5="33.60824" pt_clust_6="104.84851"></scales>
<clustering>
<clus scale="   33.608">  1  5  2 -1</clus>
<clus scale="   53.681">  2  4  1 -1</clus>
<clus scale="  104.849">  2  6  1 -1</clus>
<clus scale="   33.608">  1  3  2 -1</clus>
</clustering>
</event>
<event>
 6    0  0.1221518E+003  0.2637299E+03  0.7546771E-02  0.1104923E+00
         21   -1    0    0  503  501  0.00000000000E+00  0.00000000000E+00  0.87961127731E+03  0.87961127731E+03  0.00000000000E+00 0.  1.
         21   -1    0    0  505  502 -0.00000000000E+00 -0.00000000000E+00 -0.27850233956E+03  0.27850233956E+03  0.00000000000E+00 0.  1.
         21    1    1    2  503  504 -0.26521350637E+03  0.22189942699E+02  0.63899349582E+03  0.69220176626E+03  0.00000000000E+00 0.  1.
         21    1    1    2  504  502  0.25484818371E+03  0.14100991246E+03 -0.25474584989E+02  0.29237022186E+03  0.00000000000E+00 0.  1.
         21    1    1    2  505  506  0.69085680870E+01 -0.38965282788E+02  0.21064224050E+02  0.44829935430E+02  0.00000000000E+00 0.  1.
         21    1    1    2  506  501  0.34567545786E+01 -0.12423457237E+03 -0.33474197124E+02  0.12871169332E+03  0.00000000000E+00 0. -1.
<scales pt_clust_3="263.72993" pt_clust_4="14000.00000" pt_clust_5="32.02531" pt_clust_6="173.09734"></scales>
<clustering>
<clus scale="   32.025">  5  6 -1 -1</clus>
<clus scale="  173.097">  2  5  1 -1</clus>
<clus scale="  263.730">  1  3  2 -1</clus>
<clus scale="  263.730">  1  3  2 -1</clus>
</clustering>
</event>
<event>
 6    0  0.1221518E+003  0.9414928E+02  0.7546771E-02  0.1293104E+00
         21   -1    0    0  503  501  0.00000000000E+00  0.00000000000E+00  0.18891185992E+04  0.18891185992E+04  0.00000000000E+00 0. -1.
         21   -1    0    0  504  502 -0.00000000000E+00 -0.00000000000E+00 -0.66044551265E+02  0.66044551265E+02  0.00000000000E+00 0. -1.
         21    1    1    2  503  506  0.39298473894E+02 -0.74632490555E+02  0.11839798800E+04  0.11869805116E+04  0.00000000000E+00 0. -1.
         21    1    1    2  504  501 -0.91576349905E+02  0.13389507413E+03  0.62906313409E+03  0.64964185934E+03  0.00000000000E+00 0. -1.
         21    1    1    2  505  502  0.86716783848E+01 -0.38135730375E+02  0.44374761869E+02  0.59149399221E+02  0.00000000000E+00 0. -1.
         21    1    1    2  506  505  0.43606197626E+02 -0.21126853198E+02 -0.34343728029E+02  0.59391380287E+02  0.00000000000E+00 0. -1.
<scales pt_clust_3="14000.00000" pt_clust_4="94.14928" pt_clust_5="39.10923" pt_clust_6="72.22250"></scales>
<clustering>
<clus scale="   39.109">  2  5  1 -1</clus>
<clus scale="   72.222">  2  6  1 -1</clus>
<clus scale="   94.149">  2  4  1 -1</clus>
<clus scale="   94.149">  1  3  2 -1</clus>
</clustering>
</event>
<event>
 6    0  0.1221518E+003  0.1320050E+03  0.7546771E-02  0.1224511E+00
         21   -1    0    0  504  501  0.00000000000E+00  0.00000000000E+00  0.48374429059E+03  0.48374429059E+03  0.00000000000E+00 0.  1.
         21   -1    0    0  506  502 -0.00000000000E+00 -0.00000000000E+00 -0.78654487859E+03  0.78654487859E+03  0.00000000000E+00 0.  1.
         21    1    1    2  503  502 -0.16954004634E+03 -0.75269139749E+00 -0.68808748223E+03  0.70866690135E+03  0.00000000000E+00 0.  1.
         21    1    1    2  504  503  0.48609234443E+02 -0.13502725631E+02  0.52103207729E+02  0.72525344040E+02  0.00000000000E+00 0.  1.
         21    1    1    2  505  501  0.73812860676E+02  0.67702943978E+02  0.38703464441E+03  0.39978474583E+03  0.00000000000E+00 0.  1.
         21    1    1    2  506  505  0.47117951226E+02 -0.53447526950E+02 -0.53850957908E+02  0.89312177963E+02  0.00000000000E+00 0.  1.
<scales pt_clust_3="14000.00000" pt_clust_4="50.44979" pt_clust_5="132.00500" pt_clust_6="73.03899"></scales>
<clustering>
<clus scale="   50.450">  1  4  2 -1</clus>
<clus scale="   73.039">  2  6  1 -1</clus>
<clus scale="  132.005">  1  5  2 -1</clus>
<clus scale="   50.450">  1  3  2 -1</clus>
</clustering>
</event>
<event>
 6    0  0.1221518E+003  0.3732403E+03  0.7546771E-02  0.1053461E+00
         21   -1    0    0  505  501  0.00000000000E+00  0.00000000000E+00  0.77441954628E+03  0.77441954628E+03  0.00000000000E+00 0. -1.
         21   -1    0    0  503  502 -0.00000000000E+00 -0.00000000000E+00 -0.80233484886E+03  0.80233484886E+03  0.00000000000E+00 0.  1.
         21    1    1    2  503  504 -0.18920820551E+02 -0.35912962133E+02 -0.33480903114E+03  0.33726076800E+03  0.00000000000E+00 0.  1.
         21    1    1    2  504  506  0.35522248859E+03 -0.53143212360E+02 -0.67819339215E+02  0.36552247564E+03  0.00000000000E+00 0. -1.
         21    1    1    2  505  502 -0.37736509548E+03  0.94892354200E+02 -0.96528886934E+02  0.40090747085E+03  0.00000000000E+00 0.  1.
         21    1    1    2  506  501  0.41063427433E+02 -0.58361797073E+01  0.47124195472E+03  0.47306368065E+03  0.00000000000E+00 0. -1.
<scales pt_clust_3="40.59234" pt_clust_4="373.24026" pt_clust_5="14000.00000" pt_clust_6="41.44944"></scales>
<clustering>
<clus scale="   40.592">  2  3  1 -1</clus>
<clus scale="   41.449">  1  6  2 -1</clus>
<clus scale="  373.240">  2  4  1 -1</clus>
<clus scale="   41.449">  1  3  2 -1</clus>
</clustering>
</event>
<event>
 6    0  0.1221518E+003  0.1331835E+03  0.7546771E-02  0.1222807E+00
         21   -1    0    0  503  501  0.00000000000E+00  0.00000000000E+00  0.11249545973E+04  0.11249545973E+04  0.00000000000E+00 0. -1.
         21   -1    0    0  506  502 -0.00000000000E+00 -0.00000000000E+00 -0.56390762841E+03  0.56390762841E+03  0.00000000000E+00 0.  1.
         21    1    1    2  503  502 -0.54564474326E+02 -0.51564643692E+02  0.25844291968E+03  0.26912624746E+03  0.00000000000E+00 0.  1.
         21    1    1    2  504  501  0.45786783079E+02 -0.80818840356E+02  0.80096987487E+03  0.80633792848E+03  0.00000000000E+00 0. -1.
         21    1    1    2  505  504  0.36636864256E+02  0.19847801415E+03 -0.13452480623E+03  0.24255454111E+03  0.00000000000E+00 0.  1.
         21    1    1    2  506  505 -0.27859173009E+02 -0.66094530098E+02 -0.36384101948E+03  0.37084350862E+03  0.00000000000E+00 0.  1.
<scales pt_clust_3="76.86250" pt_clust_4="133.18351" pt_clust_5="14000.00000" pt_clust_6="71.72601"></scales>
<clustering>
<clus scale="   71.726">  2  6  1 -1</clus>
<clus scale="   76.863">  1  3  2 -1</clus>
<clus scale="  133.184">  1  4  2 -1</clus>
<clus scale="   76.863">  1  3  2 -1</clus>
</clustering>
</event>
<event>
 6    0  0.1221518E+003  0.1237975E+03  0.7546771E-02  0.1236961E+00
         21   -1    0    0  505  501  0.00000000000E+00  0.00000000000E+00  0.21076189835E+03  0.21076189835E+03  0.00000000000E+00 0.  1.
         21   -1    0    0  506  502 -0.00000000000E+00 -0.00000000000E+00 -0.16673310315E+03  0.16673310315E+03  0.00000000000E+00 0.  1.
         21    1    1    2  503  502  0.44265546825E+02  0.96117922560E+02 -0.25825111381E+02  0.10892671872E+03  0.00000000000E+00 0.  1.
         21    1    1    2  504  501 -0.87319308532E+02 -0.48312639233E+02  0.83056337231E+02  0.12983500262E+03  0.00000000000E+00 0.  1.
         21    1    1    2  505  503  0.57936497221E+02  0.25232187762E+02 -0.11135970516E+02  0.64166275011E+02  0.00000000000E+00 0.  1.
         21    1    1    2  506  504 -0.14882735514E+02 -0.73037471088E+02 -0.20664601379E+01  0.74567005149E+02  0.00000000000E+00 0. -1.
<scales pt_clust_3="45.21797" pt_clust_4="109.09566" pt_clust_5="45.21797" pt_clust_6="74.53837"></scales>
<clustering>
<clus scale="   45.218">  3  5 -1 -1</clus>
<clus scale="   74.538">  2  6  1 -1</clus>
<clus scale="  109.096">  1  4  2 -1</clus>
<clus scale="  109.096">  1  3  2 -1</clus>
</clustering>
</event>
<event>
 6    0  0.1221518E+003  0.7865401E+02  0.7546771E-02  0.1332915E+00
         21   -1    0    0  504  501  0.00000000000E+00  0.00000000000E+00  0.24320259831E+03  0.24320259831E+03  0.00000000000E+00 0. -1.
         21   -1    0    0  505  502 -0.00000000000E+00 -0.00000000000E+00 -0.20059351620E+03  0.20059351620E+03  0.00000000000E+00 0. -1.
         21    1    1    2  503  501  0.21322446693E+00 -0.40482894202E+02  0.55339201248E+02  0.68566299174E+02  0.00000000000E+00 0. -1.
         21    1    1    2  504  506 -0.54202399402E+01  0.11574869634E+03  0.13845785396E+03  0.18054837864E+03  0.00000000000E+00 0. -1.
         21    1    1    2  505  503 -0.35749041463E+02 -0.67010392693E+02 -0.69595378948E+02  0.10301409353E+03  0.00000000000E+00 0. -1.
         21    1    1    2  506  502  0.40956056937E+02 -0.82554094463E+01 -0.81592594147E+02  0.91667343174E+02  0.00000000000E+00 0. -1.
<scales pt_clust_3="40.48346" pt_clust_4="14000.00000" pt_clust_5="78.65401" pt_clust_6="42.02236"></scales>
<clustering>
<clus scale="   40.483">  1  3  2 -1</clus>
<clus scale="   42.022">  2  6  1 -1</clus>
<clus scale="   78.654">  2  5  1 -1</clus>
<clus scale="   40.483">  1  3  2 -1</clus>
</clustering>
</event>
<event>
 6    0  0.1221518E+003  0.1165061E+03  0.7546771E-02  0.1248975E+00
         21   -1    0    0  506  501  0.00000000000E+00  0.00000000000E+00  0.14651786067E+03  0.14651786067E+03  0.00000000000E+00 0. -1.
         21   -1    0    0  503  502 -0.00000000000E+00 -0.00000000000E+00 -0.26240147960E+04  0.26240147960E+04  0.00000000000E+00 0. -1.
         21    1    1    2  503  505  0.18830545665E+02  0.36067000296E+02 -0.21447973677E+04  0.21451832477E+04  0.00000000000E+00 0. -1.
         21    1    1    2  504  502 -0.10093138068E+02  0.43418755743E+02 -0.29214685167E+03  0.29552807435E+03  0.00000000000E+00 0. -1.
         21    1    1    2  505  501  0.97296741897E+02  0.49147522078E+02  0.70225126584E+02  0.12966766487E+03  0.00000000000E+00 0. -1.
         21    1    1    2  506  504 -0.10603414949E+03 -0.12863327812E+03 -0.11077784256E+03  0.20015366972E+03  0.00000000000E+00 0.  1.
<scales pt_clust_3="40.68683" pt_clust_4="65.55875" pt_clust_5="116.50605" pt_clust_6="14000.00000"></scales>
<clustering>
<clus scale="   40.687">  2  3  1 -1</clus>
<clus scale="   65.559">  2  4  1 -1</clus>
<clus scale="  116.506">  1  5  2 -1</clus>
<clus scale="  116.506">  1  3  2 -1</clus>
</clustering>
</event>
<event>
 6    0  0.1221518E+003  0.9108607E+02  0.7546771E-02  0.1300243E+00
         21   -1    0    0  505  501  0.00000000000E+00  0.00000000000E+00  0.21858546075E+03  0.21858546075E+03  0.00000000000E+00 0. -1.
         21   -1    0    0  503  502 -0.00000000000E+00 -0.00000000000E+00 -0.10776143204E+04  0.10776143204E+04  0.00000000000E+00 0.  1.
         21    1    1    2  503  504  0.13199501133E+03  0.18903101408E+02 -0.55042582031E+03  0.56634670823E+03  0.00000000000E+00 0.  1.
         21    1    1    2  504  501  0.63729138658E+02 -0.26071032195E+01 -0.20632413869E+02  0.67036531857E+02  0.00000000000E+00 0. -1.
         21    1    1    2  505  506 -0.13241880157E+03 -0.47715844954E+02  0.15781456723E+03  0.21146389408E+03  0.00000000000E+00 0. -1.
         21    1    1    2  506  502 -0.63305348426E+02  0.31419846766E+02 -0.44578519268E+03  0.45135264697E+03  0.00000000000E+00 0.  1.
<scales pt_clust_3="91.08607" pt_clust_4="63.78244" pt_clust_5="14000.00000" pt_clust_6="69.84487"></scales>
<clustering>
<clus scale="   63.782">  1  4  2 -1</clus>
<clus scale="   69.845">  2  6  1 -1</clus>
<clus scale="   91.086">  2  3  1 -1</clus>
<clus scale="   63.782">  1  3  2 -1</clus>
</clustering>
</event>
<event>
 6    0  0.1221518E+003  0.1220147E+03  0.7546771E-02  0.1239810E+00
         21   -1    0    0  506  501  0.00000000000E+00  0.00000000000E+00  0.48531240549E+02  0.48531240549E+02  0.00000000000E+00 0.  1.
         21   -1    0    0  504  502 -0.00000000000E+00 -0.00000000000E+00 -0.82782700417E+03  0.82782700417E+03  0.00000000000E+00 0.  1.
         21    1    1    2  503  502  0.70746652714E+02 -0.32585090823E+02 -0.21390076066E+03  0.22764097264E+03  0.00000000000E+00 0.  1.
         21    1    1    2  504  501 -0.16605297437E+03 -0.46762700755E+01 -0.47923458339E+03  0.50720927014E+03  0.00000000000E+00 0.  1.
         21    1    1    2  505  503  0.50394057539E+02  0.29173851031E+02 -0.74222061741E+02  0.94337633362E+02  0.00000000000E+00 0.  1.
         21    1    1    2  506  505  0.44912264115E+02  0.80875098668E+01 -0.11938357828E+02  0.47170368575E+02  0.00000000000E+00 0.  1.
<scales pt_clust_3="77.89016" pt_clust_4="112.95310" pt_clust_5="40.84917" pt_clust_6="40.84917"></scales>
<clustering>
<clus scale="   40.849">  5  6 -1 -1</clus>
<clus scale="   77.890">  2  3  1 -1</clus>
<clus scale="  112.953">  2  4  1 -1</clus>
<clus scale="  122.015">  1  3  2 -1</clus>
</clustering>
</event>
<event>
 6    0  0.1221518E+003  0.1123464E+03  0.7546771E-02  0.1256285E+00
         21   -1    0    0  506  501  0.00000000000E+00  0.00000000000E+00  0.63648894208E+02  0.63648894208E+02  0.00000000000E+00 0.  1.
         21   -1    0    0  504  502 -0.00000000000E+00 -0.00000000000E+00 -0.51030253602E+03  0.51030253602E+03  0.00000000000E+00 0.  1.
         21    1    1    2  503  501  0.64405351679E+02  0.92409523228E+01 -0.58830197166E+02  0.87717937865E+02  0.00000000000E+00 0.  1.
         21    1    1    2  504  503 -0.47148005950E+02 -0.10018029018E+03 -0.36716012251E+03  0.38349130442E+03  0.00000000000E+00 0.  1.
         21    1    1    2  505  502  0.21626640098E+01  0.36547332579E+02  0.91628154170E+01  0.37740453371E+02  0.00000000000E+00 0.  1.
         21    1    1    2  506  505 -0.19420009738E+02  0.54392005275E+02 -0.29826137555E+02  0.65001734573E+02  0.00000000000E+00 0.  1.
<scales pt_clust_3="65.06493" pt_clust_4="105.16894" pt_clust_5="31.45886" pt_clust_6="31.45886"></scales>
<clustering>
<clus scale="   31.459">  5  6 -1 -1</clus>
<clus scale="   65.065">  1  3  2 -1</clus>
<clus scale="  105.169">  2  4  1 -1</clus>
<clus scale="   65.065">  1  3  2 -1</clus>
</clustering>
</event>
<event>
 6    0  0.1221518E+003  0.1171416E+03  0.7546771E-02  0.1247888E+00
         21   -1    0    0  503  501  0.00000000000E+00  0.00000000000E+00  0.70443506422E+03  0.70443506422E+03  0.00000000000E+00 0. -1.
         21   -1    0    0  506  502 -0.00000000000E+00 -0.00000000000E+00 -0.44083360918E+02  0.44083360918E+02  0.00000000000E+00 0. -1.
         21    1    1    2  503  504 -0.11297898473E+03  0.33058166820E+02  0.22885515446E+03  0.25735534793E+03  0.00000000000E+00 0. -1.
         21    1    1    2  504  502 -0.24162795178E+02 -0.29234618577E+02  0.29779940970E+02  0.48221867221E+02  0.00000000000E+00 0. -1.
         21    1    1    2  505  501  0.11987861568E+03  0.29504319124E+02  0.38005865574E+03  0.39960726864E+03  0.00000000000E+00 0. -1.
         21    1    1    2  506  505  0.17263164227E+02 -0.33327867368E+02  0.21657952131E+02  0.43333941350E+02  0.00000000000E+00 0. -1.
<scales pt_clust_3="14000.00000" pt_clust_4="43.08097" pt_clust_5="117.14157" pt_clust_6="37.53350"></scales>
<clustering>
<clus scale="   37.533">  2  6  1 -1</clus>
<clus scale="   43.081">  2  4  1 -1</clus>
<clus scale="  117.142">  1  5  2 -1</clus>
<clus scale="  117.142">  1  3  2 -1</clus>
</clustering>
</event>
<event>
 6    0  0.1221518E+003  0.1109528E+03  0.7546771E-02  0.1258816E+00
         21   -1    0    0  503  501  0.00000000000E+00  0.00000000000E+00  0.12340220131E+03  0.12340220131E+03  0.00000000000E+00 0.  1.
         21   -1    0    0  504  502 -0.00000000000E+00 -0.00000000000E+00 -0.37218761631E+03  0.37218761631E+03  0.00000000000E+00 0.  1.
         21    1    1    2  503  505  0.86491028944E+02  0.64045732438E+02  0.42557818673E+02  0.11573124842E+03  0.00000000000E+00 0.  1.
         21    1    1    2  504  506  0.22306554555E+02 -0.22257723886E+02 -0.87508843495E+02  0.93009603475E+02  0.00000000000E+00 0.  1.
         21    1    1    2  505  502 -0.84373506476E+02 -0.72902256551E+02 -0.21797642393E+03  0.24484147728E+03  0.00000000000E+00 0.  1.
         21    1    1    2  506  501 -0.24424077023E+02  0.31114248000E+02  0.14142033755E+02  0.42007488449E+02  0.00000000000E+00 0.  1.
<scales pt_clust_3="110.95282" pt_clust_4="31.51172" pt_clust_5="14000.00000" pt_clust_6="38.00999"></scales>
<clustering>
<clus scale="   31.512">  2  4  1 -1</clus>
<clus scale="   38.010">  1  6  2 -1</clus>
<clus scale="  110.953">  1  3  2 -1</clus>
<clus scale="   38.010">  1  3  2 -1</clus>
</clustering>
</event>
<event>
 6    0  0.1423472E+003  0.1548824E+03  0.7546771E-02  0.1194599E+00
         21   -1    0    0  506  501  0.00000000000E+00  0.00000000000E+00  0.59501678965E+03  0.59501678965E+03  0.00000000000E+00 0.  1.
         21   -1    0    0  501  502 -0.00000000000E+00 -0.00000000000E+00 -0.17085680032E+04  0.17085680032E+04  0.00000000000E+00 0.  1.
         21    1    1    2  503  502 -0.47313380250E+02 -0.28328918193E+02 -0.15933423995E+04  0.15942964234E+04  0.00000000000E+00 0.  1.
         21    1    1    2  504  505 -0.31446337767E+02  0.14473549850E+03  0.43901763309E+03  0.46332895318E+03  0.00000000000E+00 0.  1.
         21    1    1    2  505  503  0.48311843347E+02 -0.13187258152E+03 -0.49918005554E+02  0.14905106254E+03  0.00000000000E+00 0.  1.
         21    1    1    2  506  504  0.30447874670E+02  0.15466001219E+02  0.90691558399E+02  0.96908353770E+02  0.00000000000E+00 0.  1.
<scales pt_clust_3="55.11360" pt_clust_4="154.88244" pt_clust_5="14000.00000" pt_clust_6="34.15070"></scales>
<clustering>
<clus scale="   34.151">  1  6  2 -1</clus>
<clus scale="   55.114">  2  3  1 -1</clus>
<clus scale="  154.882">  1  4  2 -1</clus>
<clus scale="   34.151">  1  3  2 -1</clus>
</clustering>
</event>
<event>
 6    0  0.1221518E+003  0.1068366E+03  0.7546771E-02  0.1266543E+00
         21   -1    0    0  503  501  0.00000000000E+00  0.00000000000E+00  0.41651588029E+03  0.41651588029E+03  0.00000000000E+00 0.  1.
         21   -1    0    0  506  502 -0.00000000000E+00 -0.00000000000E+00 -0.31171331915E+03  0.31171331915E+03  0.00000000000E+00 0.  1.
         21    1    1    2  503  502  0.62437388550E+01 -0.29361400955E+02  0.47728280449E+02  0.56383196925E+02  0.00000000000E+00 0. -1.
         21    1    1    2  504  501  0.13840099031E+02  0.75785544197E+02  0.25641904002E+03  0.26774189276E+03  0.00000000000E+00 0.  1.
         21    1    1    2  505  504 -0.18259489748E+02  0.65307322963E+02  0.79031411858E+02  0.10413654238E+03  0.00000000000E+00 0.  1.
         21    1    1    2  506  505 -0.18243481380E+01 -0.11173146620E+03 -0.27837617119E+03  0.29996756737E+03  0.00000000000E+00 0.  1.
<scales pt_clust_3="30.01793" pt_clust_4="57.66292" pt_clust_5="14000.00000" pt_clust_6="106.83655"></scales>
<clustering>
<clus scale="   30.018">  1  3  2 -1</clus>
<clus scale="   57.663">  1  4  2 -1</clus>
<clus scale="  106.837">  2  6  1 -1</clus>
<clus scale="   30.018">  1  3  2 -1</clus>
</clustering>
</event>
<event>
 6    0  0.1221518E+003  0.9372285E+02  0.7546771E-02  0.1294079E+00
         21   -1    0    0  506  501  0.00000000000E+00  0.00000000000E+00  0.49156657954E+03  0.49156657954E+03  0.00000000000E+00 0. -1.
         21   -1    0    0  503  502 -0.00000000000E+00 -0.00000000000E+00 -0.94836880807E+02  0.94836880807E+02  0.00000000000E+00 0.  1.
         21    1    1    2  503  504 -0.15490834564E+02  0.26474525921E+02 -0.11310127392E+02  0.32692284409E+02  0.00000000000E+00 0.  1.
         21    1    1    2  504  501  0.30702663020E+02  0.58584759683E+02  0.27211744290E+03  0.28004058690E+03  0.00000000000E+00 0. -1.
         21    1    1    2  505  502  0.31866370745E+02 -0.12852375903E+03  0.10502183900E+02  0.13283116384E+03  0.00000000000E+00 0.  1.
         21    1    1    2  506  505 -0.47078199201E+02  0.43464473426E+02  0.12542019932E+03  0.14083942519E+03  0.00000000000E+00 0. -1.
<scales pt_clust_3="30.67355" pt_clust_4="67.04173" pt_clust_5="93.72285" pt_clust_6="14000.00000"></scales>
<clustering>
<clus scale="   30.674">  2  3  1 -1</clus>
<clus scale="   67.042">  1  4  2 -1</clus>
<clus scale="   93.723">  2  5  1 -1</clus>
<clus scale="   67.042">  1  3  2 -1</clus>
</clustering>
</event>
<event>
 6    0  0.1221518E+003  0.1576424E+03  0.7546771E-02  0.1191384E+00
         21   -1    0    0  506  501  0.00000000000E+00  0.00000000000E+00  0.22369437332E+03  0.22369437332E+03  0.00000000000E+00 0.  1.
         21   -1    0    0  505  502 -0.00000000000E+00 -0.00000000000E+00 -0.35139489490E+03  0.35139489490E+03  0.00000000000E+00 0.  1.
         21    1    1    2  503  504 -0.62091440512E+02 -0.53494469450E+01 -0.70690112929E+01  0.62721084877E+02  0.00000000000E+00 0.  1.
         21    1    1    2  504  502 -0.63670869292E+02 -0.40090198020E+02 -0.88952462455E+02  0.11650641249E+03  0.00000000000E+00 0.  1.
         21    1    1    2  505  501  0.14452620272E+03  0.21598874858E+02 -0.18715827203E+03  0.23745010730E+03  0.00000000000E+00 0.  1.
         21    1    1    2  506  503 -0.18763892917E+02  0.23840770107E+02  0.15547922420E+03  0.15841166357E+03  0.00000000000E+00 0.  1.
<scales pt_clust_3="67.97095" pt_clust_4="67.97095" pt_clust_5="140.81793" pt_clust_6="30.33918"></scales>
<clustering>
<clus scale="   30.339">  1  6  2 -1</clus>
<clus scale="   67.971">  3  4 -1 -1</clus>
<clus scale="  140.818">  2  5  1 -1</clus>
<clus scale="   30.339">  1  3  2 -1</clus>
</clustering>
</event>
<event>
 6    0  0.1221518E+003  0.9670730E+02  0.7546771E-02  0.1287376E+00
         21   -1    0    0  506  501  0.00000000000E+00  0.00000000000E+00  0.25476591558E+03  0.25476591558E+03  0.00000000000E+00 0.  1.
         21   -1    0    0  505  502 -0.00000000000E+00 -0.00000000000E+00 -0.30009784311E+03  0.30009784311E+03  0.00000000000E+00 0.  1.
         21    1    1    2  503  502 -0.46263636327E+02 -0.16887990945E+02 -0.93376509506E+02  0.10556846504E+03  0.00000000000E+00 0.  1.
         21    1    1    2  504  503  0.70382332381E+02 -0.70047409097E+02 -0.13131344514E+03  0.16463150703E+03  0.00000000000E+00 0.  1.
         21    1    1    2  505  501  0.39675664183E+02 -0.51860445717E+02  0.33213642755E+02  0.73258516388E+02  0.00000000000E+00 0. -1.
         21    1    1    2  506  504 -0.63794360237E+02  0.13879584576E+03  0.14614438437E+03  0.21140527023E+03  0.00000000000E+00 0.  1.
<scales pt_clust_3="49.24965" pt_clust_4="14000.00000" pt_clust_5="64.00205" pt_clust_6="96.70730"></scales>
<clustering>
<clus scale="   49.250">  2  3  1 -1</clus>
<clus scale="   64.002">  1  5  2 -1</clus>
<clus scale="   96.707">  1  6  2 -1</clus>
<clus scale="   64.002">  1  3  2 -1</clus>
</clustering>
</event>
<event>
 6    0  0.1221518E+003  0.9090355E+02  0.7546771E-02  0.1300678E+00
         21   -1    0    0  505  501  0.00000000000E+00  0.00000000000E+00  0.59473440367E+03  0.59473440367E+03  0.00000000000E+00 0. -1.
         21   -1    0    0  506  502 -0.00000000000E+00 -0.00000000000E+00 -0.19589004399E+03  0.19589004399E+03  0.00000000000E+00 0. -1.
         21    1    1    2  503  502 -0.14744974747E+03 -0.40231204371E+02 -0.92770697846E+02  0.17879144334E+03  0.00000000000E+00 0. -1.
         21    1    1    2  504  501  0.40159425514E+02  0.99749445781E+02  0.37732491708E+03  0.39234783604E+03  0.00000000000E+00 0. -1.
         21    1    1    2  505  503  0.40247408928E+02 -0.76714904360E+02  0.12223079037E+03  0.14981787807E+03  0.00000000000E+00 0. -1.
         21    1    1    2  506  504  0.67042913028E+02  0.17196662950E+02 -0.79406499257E+01  0.69667290209E+02  0.00000000000E+00 0. -1.
<scales pt_clust_3="90.90355" pt_clust_4="14000.00000" pt_clust_5="88.22786" pt_clust_6="69.21327"></scales>
<clustering>
<clus scale="   69.213">  2  6  1 -1</clus>
<clus scale="   88.228">  1  5  2 -1</clus>
<clus scale="   90.904">  2  3  1 -1</clus>
<clus scale="   88.228">  1  3  2 -1</clus>
</clustering>
</event>
<event>
 6    0  0.1221518E+003  0.9988616E+02  0.7546771E-02  0.1280536E+00
         21   -1    0    0  504  501  0.00000000000E+00  0.00000000000E+00  0.12878836136E+03  0.12878836136E+03  0.00000000000E+00 0. -1.
         21   -1    0    0  505  502 -0.00000000000E+00 -0.00000000000E+00 -0.34966893842E+03  0.34966893842E+03  0.00000000000E+00 0. -1.
         21    1    1    2  503  502 -0.18625144411E+02  0.33857481557E+02 -0.16030074328E+03  0.16489255095E+03  0.00000000000E+00 0. -1.
         21    1    1    2  504  503 -0.10581791698E+03 -0.66439395648E+02 -0.12067100674E+02  0.12552784459E+03  0.00000000000E+00 0. -1.
         21    1    1    2  505  506  0.59876560067E+02 -0.27359449434E+02 -0.71293018360E+02  0.97038324314E+02  0.00000000000E+00 0. -1.
         21    1    1    2  506  501  0.64566501322E+02  0.59941363525E+02  0.22780285246E+02  0.90998579934E+02  0.00000000000E+00 0. -1.
<scales pt_clust_3="38.64227" pt_clust_4="99.88616" pt_clust_5="52.90547" pt_clust_6="14000.00000"></scales>
<clustering>
<clus scale="   38.642">  2  3  1 -1</clus>
<clus scale="   52.905">  2  5  1 -1</clus>
<clus scale="   99.886">  2  4  1 -1</clus>
<clus scale="   99.886">  1  3  2 -1</clus>
</clustering>
</event>
<event>
 6    0  0.1221518E+003  0.8415921E+02  0.7546771E-02  0.1317646E+00
         21   -1    0    0  503  501  0.00000000000E+00  0.00000000000E+00  0.54862635007E+02  0.54862635007E+02  0.00000000000E+00 0. -1.
         21   -1    0    0  506  502 -0.00000000000E+00 -0.00000000000E+00 -0.62104765077E+03  0.62104765077E+03  0.00000000000E+00 0. -1.
         21    1    1    2  503  505 -0.16907175167E+02 -0.30677354805E+02  0.14519474693E+02  0.37917908900E+02  0.00000000000E+00 0. -1.
         21    1    1    2  504  501 -0.49564687879E+02  0.21277308285E+02 -0.38896198707E+02  0.66500348918E+02  0.00000000000E+00 0. -1.
         21    1    1    2  505  502  0.27008789412E+02 -0.78566744249E+02 -0.20614112545E+03  0.22225294511E+03  0.00000000000E+00 0. -1.
         21    1    1    2  506  504  0.39463073634E+02  0.87966790769E+02 -0.33566716630E+03  0.34923908285E+03  0.00000000000E+00 0. -1.
<scales pt_clust_3="35.02788" pt_clust_4="58.07579" pt_clust_5="14000.00000" pt_clust_6="84.15921"></scales>
<clustering>
<clus scale="   35.028">  1  3  2 -1</clus>
<clus scale="   58.076">  1  4  2 -1</clus>
<clus scale="   84.159">  2  6  1 -1</clus>
<clus scale="   35.028">  1  3  2 -1</clus>
</clustering>
</event>
<event>
 6    0  0.1221518E+003  0.8039872E+02  0.7546771E-02  0.1327924E+00
         21   -1    0    0  505  501  0.00000000000E+00  0.00000000000E+00  0.16429524271E+04  0.16429524271E+04  0.00000000000E+00 0. -1.
         21   -1    0    0  504  502 -0.00000000000E+00 -0.00000000000E+00 -0.67387042085E+02  0.67387042085E+02  0.00000000000E+00 0.  1.
         21    1    1    2  503  501 -0.51389748639E+02  0.77124893091E+02  0.71112679684E+03  0.71714048594E+03  0.00000000000E+00 0.  1.
         21    1    1    2  504  506  0.26949082550E+01  0.50397979420E+02 -0.43363163251E+02  0.66540084064E+02  0.00000000000E+00 0.  1.
         21    1    1    2  505  502  0.34248891899E+02 -0.65058195144E+02  0.78212634983E+03  0.78557442833E+03  0.00000000000E+00 0. -1.
         21    1    1    2  506  503  0.14445948486E+02 -0.62464677367E+02  0.12567540158E+03  0.14108447083E+03  0.00000000000E+00 0. -1.
<scales pt_clust_3="80.39872" pt_clust_4="50.46998" pt_clust_5="14000.00000" pt_clust_6="35.15175"></scales>
<clustering>
<clus scale="   50.470">  2  4  1 -1</clus>
<clus scale="   35.152">  2  6  1 -1</clus>
<clus scale="   80.399">  2  3  1 -1</clus>
<clus scale="   80.399">  1  3  2 -1</clus>
</clustering>
</event>
<event>
 6    0  0.1221518E+003  0.8750844E+02  0.7546771E-02  0.1309000E+00
         21   -1    0    0  506  501  0.00000000000E+00  0.00000000000E+00  0.21031610945E+02  0.21031610945E+02  0.00000000000E+00 0. -1.
         21   -1    0    0  503  502 -0.00000000000E+00 -0.00000000000E+00 -0.10062377650E+04  0.10062377650E+04  0.00000000000E+00 0. -1.
         21    1    1    2  503  504  0.53041747451E+02  0.52696820670E+02 -0.31856965047E+03  0.32722622768E+03  0.00000000000E+00 0. -1.
         21    1    1    2  504  501 -0.26847009928E+02  0.31167292345E+02 -0.13025984071E+03  0.13660083513E+03  0.00000000000E+00 0.  1.
         21    1    1    2  505  502 -0.75916627563E+02 -0.72515388045E+02 -0.45839831391E+03  0.47026676476E+03  0.00000000000E+00 0. -1.
         21    1    1    2  506  505  0.49721890039E+02 -0.11348724969E+02 -0.77978348914E+02  0.93175548332E+02  0.00000000000E+00 0. -1.
<scales pt_clust_3="87.50844" pt_clust_4="41.13590" pt_clust_5="14000.00000" pt_clust_6="38.34808"></scales>
<clustering>
<clus scale="   41.136">  1  4  2 -1</clus>
<clus scale="   38.348">  1  6  2 -1</clus>
<clus scale="   87.508">  2  3  1 -1</clus>
<clus scale="   41.136">  1  3  2 -1</clus>
</clustering>
</event>
<event>
 6    0  0.1221518E+003  0.7488659E+02  0.7546771E-02  0.1344223E+00
         21   -1    0    0  506  501  0.00000000000E+00  0.00000000000E+00  0.47741471658E+03  0.47741471658E+03  0.00000000000E+00 0. -1.
         21   -1    0    0  505  502 -0.00000000000E+00 -0.00000000000E+00 -0.28678638910E+03  0.28678638910E+03  0.00000000000E+00 0. -1.
         21    1    1    2  503  502  0.56015811973E+02 -0.79022809444E+02 -0.87793944712E+01  0.97259721214E+02  0.00000000000E+00 0. -1.
         21    1    1    2  504  503 -0.64658146251E+02  0.38905328263E+02  0.99567759391E+01  0.76114636115E+02  0.00000000000E+00 0. -1.
         21    1    1    2  505  501 -0.27015819037E+02  0.36573602876E+02 -0.19727341674E+03  0.20244575535E+03  0.00000000000E+00 0. -1.
         21    1    1    2  506  504  0.35658153315E+02  0.35438783055E+01  0.38672436276E+03  0.38838099300E+03  0.00000000000E+00 0. -1.
<scales pt_clust_3="74.88659" pt_clust_4="14000.00000" pt_clust_5="44.95062" pt_clust_6="35.83382"></scales>
<clustering>
<clus scale="   35.834">  1  6  2 -1</clus>
<clus scale="   44.951">  2  5  1 -1</clus>
<clus scale="   74.887">  2  3  1 -1</clus>
<clus scale="   35.834">  1  3  2 -1</clus>
</clustering>
</event>
<event>
 6    0  0.1221518E+003  0.1103737E+03  0.7546771E-02  0.1259879E+00
         21   -1    0    0  505  501  0.00000000000E+00  0.00000000000E+00  0.42156530621E+03  0.42156530621E+03  0.00000000000E+00 0. -1.
         21   -1    0    0  506  502 -0.00000000000E+00 -0.00000000000E+00 -0.44882694129E+03  0.44882694129E+03  0.00000000000E+00 0.  1.
         21    1    1    2  503  504 -0.76246756536E+02  0.70565458316E+02 -0.22890638564E+03  0.25137856945E+03  0.00000000000E+00 0.  1.
         21    1    1    2  504  501 -0.19329785795E+02 -0.57943536405E+02  0.32797162781E+03  0.33361127481E+03  0.00000000000E+00 0. -1.
         21    1    1    2  505  502  0.12889353067E+03  0.26414846712E+02  0.17464845426E+02  0.13272643746E+03  0.00000000000E+00 0.  1.
         21    1    1    2  506  503 -0.33316988343E+02 -0.39036768623E+02 -0.14379172268E+03  0.15267596578E+03  0.00000000000E+00 0.  1.
<scales pt_clust_3="14000.00000" pt_clust_4="61.52923" pt_clust_5="110.37375" pt_clust_6="51.32145"></scales>
<clustering>
<clus scale="   51.321">  2  6  1 -1</clus>
<clus scale="   61.529">  1  4  2 -1</clus>
<clus scale="  110.374">  1  5  2 -1</clus>
<clus scale="   61.529">  1  3  2 -1</clus>
</clustering>
</event>
<event>
 6    0  0.1221518E+003  0.1134017E+03  0.7546771E-02  0.1254397E+00
         21   -1    0    0  505  501  0.00000000000E+00  0.00000000000E+00  0.19470913315E+03  0.19470913315E+03  0.00000000000E+00 0. -1.
         21   -1    0    0  503  502 -0.00000000000E+00 -0.00000000000E+00 -0.88096764865E+03  0.88096764865E+03  0.00000000000E+00 0. -1.
         21    1    1    2  503  504 -0.46003236155E+02 -0.59331225354E+02 -0.67276574903E+03  0.67694183288E+03  0.00000000000E+00 0. -1.
         21    1    1    2  504  506 -0.74306053472E+02  0.51091485916E+02 -0.12075579284E+03  0.15071062013E+03  0.00000000000E+00 0. -1.
         21    1    1    2  505  502  0.14523505540E+03 -0.23804691256E+02  0.15877370860E+02  0.14802694197E+03  0.00000000000E+00 0. -1.
         21    1    1    2  506  501 -0.24925765772E+02  0.32044430694E+02  0.91385655513E+02  0.99997386822E+02  0.00000000000E+00 0. -1.
<scales pt_clust_3="74.86923" pt_clust_4="113.40167" pt_clust_5="14000.00000" pt_clust_6="40.59728"></scales>
<clustering>
<clus scale="   40.597">  1  6  2 -1</clus>
<clus scale="   74.869">  2  3  1 -1</clus>
<clus scale="  113.402">  2  4  1 -1</clus>
<clus scale="   40.597">  1  3  2 -1</clus>
</clustering>
</event>
<event>
 6    0  0.1221518E+003  0.6378489E+02  0.7546771E-02  0.1382601E+00
         21   -1    0    0  506  501  0.00000000000E+00  0.00000000000E+00  0.73924483361E+02  0.73924483361E+02  0.00000000000E+00 0. -1.
         21   -1    0    0  503  502 -0.00000000000E+00 -0.00000000000E+00 -0.49544189981E+03  0.49544189981E+03  0.00000000000E+00 0. -1.
         21    1    1    2  503  504 -0.39042288336E+02 -0.11059495159E+02 -0.10360372756E+03  0.11126699905E+03  0.00000000000E+00 0. -1.
         21    1    1    2  504  505 -0.60630952691E+02  0.43101415245E+02 -0.34717937321E+02  0.82092506310E+02  0.00000000000E+00 0. -1.
         21    1    1    2  505  501  0.50753353554E+01 -0.48941861301E+02  0.23558308603E+02  0.54553264988E+02  0.00000000000E+00 0. -1.
         21    1    1    2  506  502  0.94597905672E+02  0.16899941214E+02 -0.30675406017E+03  0.32145361283E+03  0.00000000000E+00 0. -1.
<scales pt_clust_3="40.57848" pt_clust_4="14000.00000" pt_clust_5="49.50859" pt_clust_6="63.78489"></scales>
<clustering>
<clus scale="   40.578">  2  3  1 -1</clus>
<clus scale="   49.509">  1  5  2 -1</clus>
<clus scale="   63.785">  2  6  1 -1</clus>
<clus scale="   49.509">  1  3  2 -1</clus>
</clustering>
</event>
<event>
 6    0  0.1221518E+003  0.1607061E+03  0.7546771E-02  0.1187902E+00
         21   -1    0    0  506  501  0.00000000000E+00  0.00000000000E+00  0.65924953516E+03  0.65924953516E+03  0.00000000000E+00 0. -1.
         21   -1    0    0  505  502 -0.00000000000E+00 -0.00000000000E+00 -0.11196344243E+04  0.11196344243E+04  0.00000000000E+00 0. -1.
         21    1    1    2  503  501 -0.37866896146E+02 -0.54358496260E+02  0.47982355043E+02  0.81798865120E+02  0.00000000000E+00 0.  1.
         21    1    1    2  504  502 -0.90827972548E+02  0.97107008328E+02 -0.42567176413E+03  0.44595509016E+03  0.00000000000E+00 0. -1.
         21    1    1    2  505  503  0.24361134445E+03 -0.13498234126E+03 -0.62761721987E+03  0.68663679939E+03  0.00000000000E+00 0. -1.
         21    1    1    2  506  504 -0.11491647576E+03  0.92233829194E+02  0.54492173985E+03  0.56449320476E+03  0.00000000000E+00 0. -1.
<scales pt_clust_3="66.24763" pt_clust_4="132.73283" pt_clust_5="160.70609" pt_clust_6="14000.00000"></scales>
<clustering>
<clus scale="   66.248">  1  3  2 -1</clus>
<clus scale="  132.733">  2  4  1 -1</clus>
<clus scale="  160.706">  2  5  1 -1</clus>
<clus scale="   66.248">  1  3  2 -1</clus>
</clustering>
</event>
<event>
 6    0  0.1221518E+003  0.1210120E+03  0.7546771E-02  0.1241437E+00
         21   -1    0    0  505  501  0.00000000000E+00  0.00000000000E+00  0.14788931655E+03  0.14788931655E+03  0.00000000000E+00 0. -1.
         21   -1    0    0  504  502 -0.00000000000E+00 -0.00000000000E+00 -0.12605635545E+04  0.12605635545E+04  0.00000000000E+00 0. -1.
         21    1    1    2  503  506  0.16163176049E+02  0.61199662875E+02 -0.80049711778E+02  0.10205196398E+03  0.00000000000E+00 0. -1.
         21    1    1    2  504  501 -0.11612501291E+03 -0.44954532871E+02 -0.10406973782E+04  0.10481206808E+04  0.00000000000E+00 0. -1.
         21    1    1    2  505  503  0.78946531161E+02 -0.42284489659E+02  0.11527589475E+03  0.14597624724E+03  0.00000000000E+00 0. -1.
         21    1    1    2  506  502  0.21015305703E+02  0.26039359656E+02 -0.10720304279E+03  0.11230397904E+03  0.00000000000E+00 0. -1.
<scales pt_clust_3="31.62559" pt_clust_4="112.92442" pt_clust_5="89.55743" pt_clust_6="31.62559"></scales>
<clustering>
<clus scale="   31.626">  3  6 -1 -1</clus>
<clus scale="   89.557">  1  5  2 -1</clus>
<clus scale="  112.924">  2  4  1 -1</clus>
<clus scale="   89.557">  1  3  2 -1</clus>
</clustering>
</event>
<event>
 6    0  0.1221518E+003  0.9293278E+02  0.7546771E-02  0.1295901E+00
         21   -1    0    0  505  501  0.00000000000E+00  0.00000000000E+00  0.37642837533E+03  0.37642837533E+03  0.00000000000E+00 0.  1.
         21   -1    0    0  503  502 -0.00000000000E+00 -0.00000000000E+00 -0.23907481924E+03  0.23907481924E+03  0.00000000000E+00 0. -1.
         21    1    1    2  503  506  0.62071982015E+01  0.29771401929E+02 -0.12523591970E+03  0.12887552625E+03  0.00000000000E+00 0. -1.
         21    1    1    2  504  502  0.78530254074E+02 -0.85762588654E+02 -0.55465443128E+02  0.12883570079E+03  0.00000000000E+00 0. -1.
         21    1    1    2  505  504 -0.21215932790E+02  0.28038957882E+02  0.27253940910E+03  0.27479815952E+03  0.00000000000E+00 0.  1.
         21    1    1    2  506  501 -0.63521519486E+02  0.27952228843E+02  0.45515509818E+02  0.82993808016E+02  0.00000000000E+00 0. -1.
<scales pt_clust_3="30.41160" pt_clust_4="92.93278" pt_clust_5="35.36339" pt_clust_6="14000.00000"></scales>
<clustering>
<clus scale="   30.412">  2  3  1 -1</clus>
<clus scale="   35.363">  1  5  2 -1</clus>
<clus scale="   92.933">  2  4  1 -1</clus>
<clus scale="   35.363">  1  3  2 -1</clus>
</clustering>
</event>
<event>
 6    0  0.1221518E+003  0.1169886E+03  0.7546771E-02  0.1248149E+00
         21   -1    0    0  505  501  0.00000000000E+00  0.00000000000E+00  0.15840643616E+03  0.15840643616E+03  0.00000000000E+00 0.  1.
         21   -1    0    0  503  502 -0.00000000000E+00 -0.00000000000E+00 -0.58800163186E+03  0.58800163186E+03  0.00000000000E+00 0. -1.
         21    1    1    2  503  506  0.30684020312E+02 -0.14173234574E+02 -0.30956137941E+03  0.31140108751E+03  0.00000000000E+00 0. -1.
         21    1    1    2  504  502 -0.11432493640E+03  0.88910695611E+02  0.85711222203E+02  0.16829057160E+03  0.00000000000E+00 0.  1.
         21    1    1    2  505  504  0.10496079642E+02 -0.28197947460E+02  0.11964802243E+02  0.32379753265E+02  0.00000000000E+00 0.  1.
         21    1    1    2  506  501  0.73144836447E+02 -0.46539513577E+02 -0.21770984075E+03  0.23433665565E+03  0.00000000000E+00 0. -1.
<scales pt_clust_3="33.94373" pt_clust_4="14000.00000" pt_clust_5="30.08807" pt_clust_6="116.98860"></scales>
<clustering>
<clus scale="   30.088">  1  5  2 -1</clus>
<clus scale="   33.944">  2  3  1 -1</clus>
<clus scale="  116.989">  2  6  1 -1</clus>
<clus scale="   30.088">  1  3  2 -1</clus>
</clustering>
</event>
<event>
 6    0  0.1221518E+003  0.7100699E+02  0.7546771E-02  0.1356702E+00
         21   -1    0    0  505  501  0.00000000000E+00  0.00000000000E+00  0.29489362140E+02  0.29489362140E+02  0.00000000000E+00 0. -1.
         21   -1    0    0  506  502 -0.00000000000E+00 -0.00000000000E+00 -0.18095569536E+04  0.18095569536E+04  0.00000000000E+00 0. -1.
         21    1    1    2  503  501 -0.15193663163E+02  0.48253390488E+02 -0.56518248215E+02  0.75852155376E+02  0.00000000000E+00 0.  1.
         21    1    1    2  504  502 -0.21078941853E+02  0.45396917714E+02 -0.12745877401E+04  0.12755701114E+04  0.00000000000E+00 0. -1.
         21    1    1    2  505  504 -0.26134535394E+01 -0.11551179816E+03 -0.17271476377E+03  0.20779844869E+03  0.00000000000E+00 0. -1.
         21    1    1    2  506  503  0.38886058556E+02  0.21861489962E+02 -0.27624683934E+03  0.27982560022E+03  0.00000000000E+00 0. -1.
<scales pt_clust_3="51.02023" pt_clust_4="71.00699" pt_clust_5="14000.00000" pt_clust_6="44.60998"></scales>
<clustering>
<clus scale="   44.610">  2  6  1 -1</clus>
<clus scale="   51.020">  1  3  2 -1</clus>
<clus scale="   71.007">  2  4  1 -1</clus>
<clus scale="   51.020">  1  3  2 -1</clus>
</clustering>
</event>
<event>
 6    0  0.1221518E+003  0.1113482E+03  0.7546771E-02  0.1258093E+00
         21   -1    0    0  503  501  0.00000000000E+00  0.00000000000E+00  0.67004480896E+02  0.67004480896E+02  0.00000000000E+00 0.  1.
         21   -1    0    0  506  502 -0.00000000000E+00 -0.00000000000E+00 -0.11858241905E+04  0.11858241905E+04  0.00000000000E+00 0.  1.
         21    1    1    2  503  505 -0.59922773530E+02 -0.72829969374E+01 -0.15055295911E+01  0.60382509481E+02  0.00000000000E+00 0.  1.
         21    1    1    2  504  502  0.23961991265E+02 -0.52863614306E+02 -0.68528457198E+03  0.68773809211E+03  0.00000000000E+00 0. -1.
         21    1    1    2  505  504  0.43677264037E+00 -0.88263101957E+02 -0.72814934055E+02  0.11442281485E+03  0.00000000000E+00 0.  1.
         21    1    1    2  506  501  0.35524009624E+02  0.14840971320E+03 -0.35921467395E+03  0.39028525493E+03  0.00000000000E+00 0.  1.
<scales pt_clust_3="59.38407" pt_clust_4="58.04084" pt_clust_5="14000.00000" pt_clust_6="111.34816"></scales>
<clustering>
<clus scale="   58.041">  2  4  1 -1</clus>
<clus scale="   59.384">  1  3  2 -1</clus>
<clus scale="  111.348">  2  6  1 -1</clus>
<clus scale="   59.384">  1  3  2 -1</clus>
</clustering>
</event>
<event>
 6    0  0.1221518E+003  0.1752596E+03  0.7546771E-02  0.1172471E+00
         21   -1    0    0  505  501  0.00000000000E+00  0.00000000000E+00  0.53266699129E+03  0.53266699129E+03  0.00000000000E+00 0.  1.
         21   -1    0    0  506  502 -0.00000000000E+00 -0.00000000000E+00 -0.85371686333E+02  0.85371686333E+02  0.00000000000E+00 0.  1.
         21    1    1    2  503  501  0.10473693596E+03  0.75333859496E+02  0.22195920772E+03  0.25673119412E+03  0.00000000000E+00 0.  1.
         21    1    1    2  504  502 -0.33488618901E+02  0.25213626219E+02  0.97209772137E+01  0.43031522643E+02  0.00000000000E+00 0.  1.
         21    1    1    2  505  504 -0.11964646375E+03 -0.10181663901E+03  0.84241867320E+02  0.17826552240E+03  0.00000000000E+00 0.  1.
         21    1    1    2  506  503  0.48398146688E+02  0.12691532920E+01  0.13137325271E+03  0.14001043847E+03  0.00000000000E+00 0.  1.
<scales pt_clust_3="34.87833" pt_clust_4="41.91914" pt_clust_5="165.75341" pt_clust_6="34.87833"></scales>
<clustering>
<clus scale="   34.878">  3  6 -1 -1</clus>
<clus scale="   41.919">  2  4  1 -1</clus>
<clus scale="  165.753">  2  5  1 -1</clus>
<clus scale="  175.260">  1  3  2 -1</clus>
</clustering>
</event>
<event>
 6    0  0.1221518E+003  0.9480858E+02  0.7546771E-02  0.1291608E+00
         21   -1    0    0  506  501  0.00000000000E+00  0.00000000000E+00  0.22646921860E+04  0.22646921860E+04  0.00000000000E+00 0. -1.
         21   -1    0    0  503  502 -0.00000000000E+00 -0.00000000000E+00 -0.17331184708E+03  0.17331184708E+03  0.00000000000E+00 0.  1.
         21    1    1    2  503  504  0.48178434742E+02 -0.91970731881E-02 -0.34820273908E+02  0.59444201852E+02  0.00000000000E+00 0. -1.
         21    1    1    2  504  505 -0.14318295208E+03 -0.30413439302E+02  0.76804777596E+03  0.78187193402E+03  0.00000000000E+00 0. -1.
         21    1    1    2  505  501  0.54336531718E+02 -0.40014086821E+01  0.14709400528E+04  0.14719487454E+04  0.00000000000E+00 0. -1.
         21    1    1    2  506  502  0.40667985620E+02  0.34424045057E+02 -0.11278721593E+03  0.12473915187E+03  0.00000000000E+00 0.  1.
<scales pt_clust_3="48.17844" pt_clust_4="94.80858" pt_clust_5="54.67572" pt_clust_6="14000.00000"></scales>
<clustering>
<clus scale="   48.178">  2  3  1 -1</clus>
<clus scale="   54.676">  1  5  2 -1</clus>
<clus scale="   94.809">  1  4  2 -1</clus>
<clus scale="   54.676">  1  3  2 -1</clus>
</clustering>
</event>
<event>
 6    0  0.1221518E+003  0.1225097E+03  0.7546771E-02  0.1239013E+00
         21   -1    0    0  503  501  0.00000000000E+00  0.00000000000E+00  0.28726279971E+03  0.28726279971E+03  0.00000000000E+00 0.  1.
         21   -1    0    0  505  502 -0.00000000000E+00 -0.00000000000E+00 -0.95707053733E+03  0.95707053733E+03  0.00000000000E+00 0. -1.
         21    1    1    2  503  504  0.54299095059E+02  0.19040560058E+02  0.18716508386E+03  0.19581037579E+03  0.00000000000E+00 0.  1.
         21    1    1    2  504  502 -0.76687142806E+02 -0.95196423511E+02 -0.10579149467E+02  0.12269961420E+03  0.00000000000E+00 0.  1.
         21    1    1    2  505  506 -0.17294437624E+02  0.12428487286E+03 -0.85383137277E+03  0.86300280435E+03  0.00000000000E+00 0. -1.
         21    1    1    2  506  501  0.39682485371E+02 -0.48129009407E+02  0.74377007486E+01  0.62820542692E+02  0.00000000000E+00 0.  1.
<scales pt_clust_3="57.54072" pt_clust_4="122.50972" pt_clust_5="14000.00000" pt_clust_6="72.42191"></scales>
<clustering>
<clus scale="   57.541">  1  3  2 -1</clus>
<clus scale="   72.422">  1  6  2 -1</clus>
<clus scale="  122.510">  1  4  2 -1</clus>
<clus scale="   57.541">  1  3  2 -1</clus>
</clustering>
</event>
<event>
 6    0  0.1221518E+003  0.9090172E+02  0.7546771E-02  0.1300683E+00
         21   -1    0    0  506  501  0.00000000000E+00  0.00000000000E+00  0.11304792797E+03  0.11304792797E+03  0.00000000000E+00 0.  1.
         21   -1    0    0  505  502 -0.00000000000E+00 -0.00000000000E+00 -0.34918570331E+03  0.34918570331E+03  0.00000000000E+00 0.  1.
         21    1    1    2  503  501  0.32794024096E+02 -0.17466736526E+02  0.17203199596E+02  0.40944901729E+02  0.00000000000E+00 0.  1.
         21    1    1    2  504  503 -0.32964610463E+02 -0.30622490735E+02 -0.49434135150E+01  0.45264111821E+02  0.00000000000E+00 0.  1.
         21    1    1    2  505  504 -0.50020224743E+02 -0.70042365631E+02 -0.23098190361E+03  0.24649664432E+03  0.00000000000E+00 0.  1.
         21    1    1    2  506  502  0.50190811110E+02  0.11813159289E+03 -0.17415657812E+02  0.12952797341E+03  0.00000000000E+00 0.  1.
<scales pt_clust_3="37.15555" pt_clust_4="42.91535" pt_clust_5="90.90172" pt_clust_6="14000.00000"></scales>
<clustering>
<clus scale="   37.156">  1  3  2 -1</clus>
<clus scale="   42.915">  1  4  2 -1</clus>
<clus scale="   90.902">  2  5  1 -1</clus>
<clus scale="   37.156">  1  3  2 -1</clus>
</clustering>
</event>
<event>
 6    0  0.1221518E+003  0.8734749E+02  0.7546771E-02  0.1309405E+00
         21   -1    0    0  506  501  0.00000000000E+00  0.00000000000E+00  0.65774552092E+02  0.65774552092E+02  0.00000000000E+00 0.  1.
         21   -1    0    0  504  502 -0.00000000000E+00 -0.00000000000E+00 -0.69226981832E+03  0.69226981832E+03  0.00000000000E+00 0. -1.
         21    1    1    2  503  502  0.62583144447E+02  0.32063045957E+02 -0.47649511075E+03  0.48165576863E+03  0.00000000000E+00 0. -1.
         21    1    1    2  504  505 -0.54957668397E+02  0.61005160088E+02 -0.10275324343E+03  0.13153023952E+03  0.00000000000E+00 0.  1.
         21    1    1    2  505  501 -0.30359997608E+02  0.68278865195E+01  0.20075255865E+01  0.31183002550E+02  0.00000000000E+00 0.  1.
         21    1    1    2  506  503  0.22734521557E+02 -0.99896092564E+02 -0.49254437644E+02  0.11367535972E+03  0.00000000000E+00 0.  1.
<scales pt_clust_3="69.07204" pt_clust_4="87.34749" pt_clust_5="31.11831" pt_clust_6="14000.00000"></scales>
<clustering>
<clus scale="   31.118">  1  5  2 -1</clus>
<clus scale="   69.072">  2  3  1 -1</clus>
<clus scale="   87.347">  2  4  1 -1</clus>
<clus scale="   31.118">  1  3  2 -1</clus>
</clustering>
</event>
<event>
 6    0  0.1221518E+003  0.1077885E+03  0.7546771E-02  0.1264721E+00
         21   -1    0    0  505  501  0.00000000000E+00  0.00000000000E+00  0.69236358496E+03  0.69236358496E+03  0.00000000000E+00 0.  1.
         21   -1    0    0  503  502 -0.00000000000E+00 -0.00000000000E+00 -0.75456602121E+03  0.75456602121E+03  0.00000000000E+00 0.  1.
         21    1    1    2  503  504 -0.72517110189E+02  0.10163102498E+03 -0.42188375079E+03  0.43996988044E+03  0.00000000000E+00 0.  1.
         21    1    1    2  504  506  0.51158561139E+02 -0.74408791156E+02 -0.20974785652E+03  0.22835943137E+03  0.00000000000E+00 0.  1.
         21    1    1    2  505  502 -0.31405490843E+02 -0.17173888843E+02 -0.10041605563E+03  0.10660502588E+03  0.00000000000E+00 0. -1.
         21    1    1    2  506  501  0.52764039893E+02 -0.10048344984E+02  0.66984522669E+03  0.67199526849E+03  0.00000000000E+00 0.  1.
<scales pt_clust_3="14000.00000" pt_clust_4="107.78851" pt_clust_5="35.79452" pt_clust_6="53.66670"></scales>
<clustering>
<clus scale="   35.795">  2  5  1 -1</clus>
<clus scale="   53.667">  1  6  2 -1</clus>
<clus scale="  107.789">  1  4  2 -1</clus>
<clus scale="   53.667">  1  3  2 -1</clus>
</clustering>
</event>
<event>
 6    0  0.1221518E+003  0.7545925E+02  0.7546771E-02  0.1342455E+00
         21   -1    0    0  504  501  0.00000000000E+00  0.00000000000E+00  0.30082615032E+03  0.30082615032E+03  0.00000000000E+00 0. -1.
         21   -1    0    0  505  502 -0.00000000000E+00 -0.00000000000E+00 -0.53853194401E+03  0.53853194401E+03  0.00000000000E+00 0.  1.
         21    1    1    2  503  502  0.10699442971E+03  0.79450565620E+01  0.66464548990E+02  0.12620803534E+03  0.00000000000E+00 0. -1.
         21    1    1    2  504  503 -0.56392655372E+02 -0.44049777246E+02  0.19090689170E+03  0.20387730564E+03  0.00000000000E+00 0. -1.
         21    1    1    2  505  506 -0.28350469266E+02 -0.13171741614E+02 -0.38859288828E+03  0.38984827396E+03  0.00000000000E+00 0.  1.
         21    1    1    2  506  501 -0.22251305070E+02  0.49276462298E+02 -0.10648434610E+03  0.11942447939E+03  0.00000000000E+00 0.  1.
<scales pt_clust_3="14000.00000" pt_clust_4="75.45925" pt_clust_5="31.26090" pt_clust_6="58.77919"></scales>
<clustering>
<clus scale="   31.261">  2  5  1 -1</clus>
<clus scale="   58.779">  2  6  1 -1</clus>
<clus scale="   75.459">  1  4  2 -1</clus>
<clus scale="   75.459">  1  3  2 -1</clus>
</clustering>
</event>
<event>
 6    0  0.1221518E+003  0.9307478E+02  0.7546771E-02  0.1295572E+00
         21   -1    0    0  506  501  0.00000000000E+00  0.00000000000E+00  0.60811263554E+03  0.60811263554E+03  0.00000000000E+00 0.  1.
         21   -1    0    0  504  502 -0.00000000000E+00 -0.00000000000E+00 -0.10266845157E+03  0.10266845157E+03  0.00000000000E+00 0.  1.
         21    1    1    2  503  505  0.15683477718E+02 -0.10716543165E+03  0.41988599854E+02  0.11616128327E+03  0.00000000000E+00 0.  1.
         21    1    1    2  504  501  0.34263945395E+02 -0.45516996565E+01  0.17483491843E+03  0.17821892331E+03  0.00000000000E+00 0.  1.
         21    1    1    2  505  502 -0.41909631205E+02  0.78259802696E+02 -0.31679177977E+02  0.94258072456E+02  0.00000000000E+00 0.  1.
         21    1    1    2  506  503 -0.80377919084E+01  0.33457328608E+02  0.32029984367E+03  0.32214280807E+03  0.00000000000E+00 0.  1.
<scales pt_clust_3="93.07478" pt_clust_4="33.41670" pt_clust_5="14000.00000" pt_clust_6="34.40929"></scales>
<clustering>
<clus scale="   34.409">  1  6  2 -1</clus>
<clus scale="   33.417">  1  4  2 -1</clus>
<clus scale="   93.075">  1  3  2 -1</clus>
<clus scale="   34.409">  1  3  2 -1</clus>
</clustering>
</event>
<event>
 6    0  0.1221518E+003  0.1614323E+03  0.7546771E-02  0.1187089E+00
         21   -1    0    0  505  501  0.00000000000E+00  0.00000000000E+00  0.28066960259E+03  0.28066960259E+03  0.00000000000E+00 0. -1.
         21   -1    0    0  503  502 -0.00000000000E+00 -0.00000000000E+00 -0.63722478519E+03  0.63722478519E+03  0.00000000000E+00 0. -1.
         21    1    1    2  503  506 -0.15876429010E+03  0.90716345696E+02 -0.21316207650E+03  0.28084448730E+03  0.00000000000E+00 0. -1.
         21    1    1    2  504  502  0.31370688087E+02  0.38980970288E+02 -0.34543081491E+03  0.34903593512E+03  0.00000000000E+00 0. -1.
         21    1    1    2  505  504  0.37164417495E+02 -0.64142323395E+02  0.14475826179E+03  0.16263574618E+03  0.00000000000E+00 0. -1.
         21    1    1    2  506  501  0.90229184515E+02 -0.65554992588E+02  0.57279447026E+02  0.12537821917E+03  0.00000000000E+00 0. -1.
<scales pt_clust_3="161.43226" pt_clust_4="50.03635" pt_clust_5="73.59038" pt_clust_6="14000.00000"></scales>
<clustering>
<clus scale="   50.036">  2  4  1 -1</clus>
<clus scale="   73.590">  1  5  2 -1</clus>
<clus scale="  161.432">  2  3  1 -1</clus>
<clus scale="   73.590">  1  3  2 -1</clus>
</clustering>
</event>
<event>
 6    0  0.1221518E+003  0.1007884E+03  0.7546771E-02  0.1278647E+00
         21   -1    0    0  504  501  0.00000000000E+00  0.00000000000E+00  0.38074253009E+03  0.38074253009E+03  0.00000000000E+00 0.  1.
         21   -1    0    0  506  502 -0.00000000000E+00 -0.00000000000E+00 -0.43816250950E+03  0.43816250950E+03  0.00000000000E+00 0. -1.
         21    1    1    2  503  501 -0.64102509411E+02 -0.11156069222E+03 -0.12332860518E+03  0.17822700305E+03  0.00000000000E+00 0. -1.
         21    1    1    2  504  505 -0.11154113001E+02  0.99923438672E+02  0.29791123029E+03  0.31442043344E+03  0.00000000000E+00 0.  1.
         21    1    1    2  505  502  0.73765541703E+02 -0.52829121972E+02 -0.56594936583E+01  0.90908201718E+02  0.00000000000E+00 0. -1.
         21    1    1    2  506  503  0.14910807092E+01  0.64466375521E+02 -0.22634311086E+03  0.23534940138E+03  0.00000000000E+00 0. -1.
<scales pt_clust_3="100.78842" pt_clust_4="14000.00000" pt_clust_5="83.20264" pt_clust_6="64.48362"></scales>
<clustering>
<clus scale="   64.484">  2  6  1 -1</clus>
<clus scale="   83.203">  2  5  1 -1</clus>
<clus scale="  100.788">  2  3  1 -1</clus>
<clus scale="  100.788">  1  3  2 -1</clus>
</clustering>
</event>
<event>
 6    0  0.1221518E+003  0.8433202E+02  0.7546771E-02  0.1317189E+00
         21   -1    0    0  506  501  0.00000000000E+00  0.00000000000E+00  0.19354536302E+04  0.19354536302E+04  0.00000000000E+00 0.  1.
         21   -1    0    0  504  502 -0.00000000000E+00 -0.00000000000E+00 -0.31009712060E+03  0.31009712060E+03  0.00000000000E+00 0.  1.
         21    1    1    2  503  501 -0.76384421914E+02 -0.19476078973E+02  0.13802860198E+04  0.13825351330E+04  0.00000000000E+00 0.  1.
         21    1    1    2  504  503  0.13428587173E+02 -0.70552861688E+02 -0.70203034241E+02  0.10043156507E+03  0.00000000000E+00 0. -1.
         21    1    1    2  505  502  0.32465787498E+02 -0.26930658528E+01 -0.21801563768E+03  0.22043615455E+03  0.00000000000E+00 0.  1.
         21    1    1    2  506  505  0.30490047243E+02  0.92722006514E+02  0.53328916175E+03  0.54214789819E+03  0.00000000000E+00 0. -1.
<scales pt_clust_3="78.44731" pt_clust_4="84.33202" pt_clust_5="32.57729" pt_clust_6="14000.00000"></scales>
<clustering>
<clus scale="   32.577">  2  5  1 -1</clus>
<clus scale="   78.447">  1  3  2 -1</clus>
<clus scale="   84.332">  2  4  1 -1</clus>
<clus scale="   78.447">  1  3  2 -1</clus>
</clustering>
</event>
<event>
 6    0  0.1221518E+003  0.9321089E+02  0.7546771E-02  0.1295257E+00
         21   -1    0    0  503  501  0.00000000000E+00  0.00000000000E+00  0.90094394970E+03  0.90094394970E+03  0.00000000000E+00 0. -1.
         21   -1    0    0  506  502 -0.00000000000E+00 -0.00000000000E+00 -0.44218163830E+02  0.44218163830E+02  0.00000000000E+00 0. -1.
         21    1    1    2  503  505 -0.69240374042E+02 -0.37976121364E+02  0.21789011720E+03  0.23175961332E+03  0.00000000000E+00 0. -1.
         21    1    1    2  504  502  0.14181071751E+02 -0.33455802320E+02 -0.70751532702E+01  0.37019606949E+02  0.00000000000E+00 0. -1.
         21    1    1    2  505  504  0.57800591490E+02  0.10182813132E+03  0.21859977656E+03  0.24798334423E+03  0.00000000000E+00 0. -1.
         21    1    1    2  506  501 -0.27412891984E+01 -0.30396207641E+02  0.42731104538E+03  0.42839954903E+03  0.00000000000E+00 0. -1.
<scales pt_clust_3="14000.00000" pt_clust_4="37.19184" pt_clust_5="93.21089" pt_clust_6="30.51957"></scales>
<clustering>
<clus scale="   30.520">  1  6  2 -1</clus>
<clus scale="   37.192">  2  4  1 -1</clus>
<clus scale="   93.211">  2  5  1 -1</clus>
<clus scale="   30.520">  1  3  2 -1</clus>
</clustering>
</event>
<event>
 6    0  0.1221518E+003  0.7001758E+02  0.7546771E-02  0.1360033E+00
         21   -1    0    0  506  501  0.00000000000E+00  0.00000000000E+00  0.27510272184E+03  0.27510272184E+03  0.00000000000E+00 0. -1.
         21   -1    0    0  504  502 -0.00000000000E+00 -0.00000000000E+00 -0.18062296258E+03  0.18062296258E+03  0.00000000000E+00 0. -1.
         21    1    1    2  503  505 -0.46064392141E+02 -0.47442141601E+02  0.20814860028E+02  0.69324911979E+02  0.00000000000E+00 0. -1.
         21    1    1    2  504  501 -0.65719469510E+02  0.21906591337E+02 -0.55513228173E+02  0.88773114843E+02  0.00000000000E+00 0. -1.
         21    1    1    2  505  502  0.71474369207E+02  0.53410142327E+02 -0.56487089914E+02  0.10560312535E+03  0.00000000000E+00 0. -1.
         21    1    1    2  506  503  0.40309492444E+02 -0.27874592064E+02  0.18566521732E+03  0.19202453225E+03  0.00000000000E+00 0. -1.
<scales pt_clust_3="14000.00000" pt_clust_4="60.26030" pt_clust_5="70.01758" pt_clust_6="49.00865"></scales>
<clustering>
<clus scale="   49.009">  1  6  2 -1</clus>
<clus scale="   60.260">  2  4  1 -1</clus>
<clus scale="   70.018">  2  5  1 -1</clus>
<clus scale="   49.009">  1  3  2 -1</clus>
</clustering>
</event>
<event>
 6    0  0.1221518E+003  0.1095591E+03  0.7546771E-02  0.1261388E+00
         21   -1    0    0  506  501  0.00000000000E+00  0.00000000000E+00  0.28082201818E+03  0.28082201818E+03  0.00000000000E+00 0. -1.
         21   -1    0    0  504  502 -0.00000000000E+00 -0.00000000000E+00 -0.15155549971E+04  0.15155549971E+04  0.00000000000E+00 0. -1.
         21    1    1    2  503  501 -0.11175052387E+03 -0.33943097966E+02  0.20890981794E+03  0.23933997894E+03  0.00000000000E+00 0. -1.
         21    1    1    2  504  505  0.30811380455E+02  0.62556821418E+02 -0.11777185914E+03  0.13686821354E+03  0.00000000000E+00 0. -1.
         21    1    1    2  505  503  0.85576702836E+02  0.25332321528E+02  0.38649373155E+01  0.89331049041E+02  0.00000000000E+00 0. -1.
         21    1    1    2  506  502 -0.46375594247E+01 -0.53946044980E+02 -0.13297358750E+04  0.13308377738E+04  0.00000000000E+00 0. -1.
<scales pt_clust_3="14000.00000" pt_clust_4="37.58377" pt_clust_5="109.55914" pt_clust_6="54.14502"></scales>
<clustering>
<clus scale="   54.145">  2  6  1 -1</clus>
<clus scale="   37.584">  2  4  1 -1</clus>
<clus scale="  109.559">  2  5  1 -1</clus>
<clus scale="  109.559">  1  3  2 -1</clus>
</clustering>
</event>
<event>
 6    0  0.1221518E+003  0.9313446E+02  0.7546771E-02  0.1295434E+00
         21   -1    0    0  503  501  0.00000000000E+00  0.00000000000E+00  0.17785245682E+04  0.17785245682E+04  0.00000000000E+00 0. -1.
         21   -1    0    0  504  502 -0.00000000000E+00 -0.00000000000E+00 -0.28325070873E+02  0.28325070873E+02  0.00000000000E+00 0.  1.
         21    1    1    2  503  506  0.75148174965E+00 -0.43357002680E+02  0.20658640257E+03  0.21108845570E+03  0.00000000000E+00 0. -1.
         21    1    1    2  504  505  0.25194530425E+02 -0.24370755532E+02  0.24542803224E+02  0.42790738234E+02  0.00000000000E+00 0.  1.
         21    1    1    2  505  501  0.16306509788E+02 -0.49667308906E+02  0.12985437575E+04  0.12995955655E+04  0.00000000000E+00 0. -1.
         21    1    1    2  506  502 -0.42252521963E+02  0.11739506712E+03  0.22052653406E+03  0.25337487962E+03  0.00000000000E+00 0.  1.
<scales pt_clust_3="46.36238" pt_clust_4="35.05279" pt_clust_5="93.13446" pt_clust_6="14000.00000"></scales>
<clustering>
<clus scale="   35.053">  2  4  1 -1</clus>
<clus scale="   46.362">  1  3  2 -1</clus>
<clus scale="   93.134">  1  5  2 -1</clus>
<clus scale="   46.362">  1  3  2 -1</clus>
</clustering>
</event>
<event>
 6    0  0.1221518E+003  0.1232267E+03  0.7546771E-02  0.1237867E+00
         21   -1    0    0  504  501  0.00000000000E+00  0.00000000000E+00  0.21722470060E+03  0.21722470060E+03  0.00000000000E+00 0. -1.
         21   -1    0    0  506  502 -0.00000000000E+00 -0.00000000000E+00 -0.20306868041E+03  0.20306868041E+03  0.00000000000E+00 0. -1.
         21    1    1    2  503  502 -0.23502706934E+02 -0.43362674194E+02 -0.29802096339E+02  0.57626935479E+02  0.00000000000E+00 0. -1.
         21    1    1    2  504  503 -0.26416808844E+02 -0.10708182236E+03  0.91519520562E+02  0.14331848141E+03  0.00000000000E+00 0. -1.
         21    1    1    2  505  501  0.20590138917E+02  0.16824465608E+03 -0.11983767592E+02  0.16992300846E+03  0.00000000000E+00 0. -1.
         21    1    1    2  506  505  0.29329376861E+02 -0.17800159522E+02 -0.35577636441E+02  0.49424955648E+02  0.00000000000E+00 0.  1.
<scales pt_clust_3="50.64471" pt_clust_4="123.22673" pt_clust_5="14000.00000" pt_clust_6="34.30828"></scales>
<clustering>
<clus scale="   34.308">  2  6  1 -1</clus>
<clus scale="   50.645">  2  3  1 -1</clus>
<clus scale="  123.227">  1  4  2 -1</clus>
<clus scale="  123.227">  1  3  2 -1</clus>
</clustering>
</event>
<event>
 6    0  0.1221518E+003  0.1061392E+03  0.7546771E-02  0.1267891E+00
         21   -1    0    0  504  501  0.00000000000E+00  0.00000000000E+00  0.18203028519E+03  0.18203028519E+03  0.00000000000E+00 0.  1.
         21   -1    0    0  503  502 -0.00000000000E+00 -0.00000000000E+00 -0.23910196338E+04  0.23910196338E+04  0.00000000000E+00 0.  1.
         21    1    1    2  503  505 -0.13035432028E+02  0.37715111551E+02 -0.21390383540E+04  0.21394105338E+04  0.00000000000E+00 0.  1.
         21    1    1    2  504  502  0.76667392972E+02  0.53746867427E+02  0.17981923649E+02  0.95341305222E+02  0.00000000000E+00 0.  1.
         21    1    1    2  505  506 -0.48683963054E+02 -0.12402214500E+03 -0.18890175789E+03  0.23116118801E+03  0.00000000000E+00 0.  1.
         21    1    1    2  506  501 -0.14947997890E+02  0.32560166018E+02  0.10096883963E+03  0.10713689200E+03  0.00000000000E+00 0.  1.
<scales pt_clust_3="39.98938" pt_clust_4="14000.00000" pt_clust_5="106.13918" pt_clust_6="35.82746"></scales>
<clustering>
<clus scale="   35.827">  1  6  2 -1</clus>
<clus scale="   39.989">  2  3  1 -1</clus>
<clus scale="  106.139">  2  5  1 -1</clus>
<clus scale="   35.827">  1  3  2 -1</clus>
</clustering>
</event>
<event>
 6    0  0.1221518E+003  0.9338726E+02  0.7546771E-02  0.1294850E+00
         21   -1    0    0  503  501  0.00000000000E+00  0.00000000000E+00  0.84277472780E+03  0.84277472780E+03  0.00000000000E+00 0.  1.
         21   -1    0    0  505  502 -0.00000000000E+00 -0.00000000000E+00 -0.38041799365E+02  0.38041799365E+02  0.00000000000E+00 0.  1.
         21    1    1    2  503  506 -0.76612037977E+02 -0.38561223679E+02  0.35416290758E+03  0.36440051789E+03  0.00000000000E+00 0.  1.
         21    1    1    2  504  502  0.34355152672E+02 -0.30139594858E+02  0.10276692223E+02  0.46843164885E+02  0.00000000000E+00 0.  1.
         21    1    1    2  505  501  0.91485675394E+02  0.51405014228E+02  0.34882989066E+03  0.36427242128E+03  0.00000000000E+00 0.  1.
         21    1    1    2  506  504 -0.49228790090E+02  0.17295804310E+02  0.91463437974E+02  0.10530042311E+03  0.00000000000E+00 0.  1.
<scales pt_clust_3="93.38726" pt_clust_4="45.70199" pt_clust_5="14000.00000" pt_clust_6="37.80537"></scales>
<clustering>
<clus scale="   45.702">  2  4  1 -1</clus>
<clus scale="   37.805">  2  6  1 -1</clus>
<clus scale="   93.387">  1  3  2 -1</clus>
<clus scale="   93.387">  1  3  2 -1</clus>
</clustering>
</event>
<event>
 6    0  0.1221518E+003  0.1783923E+03  0.7546771E-02  0.1169368E+00
         21   -1    0    0  505  501  0.00000000000E+00  0.00000000000E+00  0.16060177691E+04  0.16060177691E+04  0.00000000000E+00 0. -1.
         21   -1    0    0  504  502 -0.00000000000E+00 -0.00000000000E+00 -0.31974733488E+02  0.31974733488E+02  0.00000000000E+00 0. -1.
         21    1    1    2  503  506  0.48133370058E+02  0.31085744049E+02  0.20019786279E+03  0.20823623379E+03  0.00000000000E+00 0. -1.
         21    1    1    2  504  501  0.36041271355E+02  0.43401102882E+02  0.84022502523E+02  0.10120479189E+03  0.00000000000E+00 0. -1.
         21    1    1    2  505  503  0.56632738023E+02  0.78973847114E+02  0.60511596958E+03  0.61286986562E+03  0.00000000000E+00 0. -1.
         21    1    1    2  506  502 -0.14080737944E+03 -0.15346069405E+03  0.68470670067E+03  0.71568161124E+03  0.00000000000E+00 0. -1.
<scales pt_clust_3="39.12174" pt_clust_4="56.41479" pt_clust_5="39.12174" pt_clust_6="170.96204"></scales>
<clustering>
<clus scale="   39.122">  3  5 -1 -1</clus>
<clus scale="   56.415">  2  4  1 -1</clus>
<clus scale="  170.962">  2  6  1 -1</clus>
<clus scale="  178.392">  1  3  2 -1</clus>
</clustering>
</event>
<event>
 6    0  0.1221518E+003  0.8076987E+02  0.7546771E-02  0.1326881E+00
         21   -1    0    0  506  501  0.00000000000E+00  0.00000000000E+00  0.23822059181E+03  0.23822059181E+03  0.00000000000E+00 0. -1.
         21   -1    0    0  503  502 -0.00000000000E+00 -0.00000000000E+00 -0.46647461916E+03  0.46647461916E+03  0.00000000000E+00 0.  1.
         21    1    1    2  503  504 -0.15652098517E+02  0.61733856736E+02 -0.12746100106E+03  0.14248636442E+03  0.00000000000E+00 0.  1.
         21    1    1    2  504  501  0.25337607167E+02  0.75352384574E+02  0.19243825704E+03  0.20821253317E+03  0.00000000000E+00 0. -1.
         21    1    1    2  505  502  0.24791081532E+02 -0.13703856907E+03 -0.28694133015E+03  0.31895061387E+03  0.00000000000E+00 0.  1.
         21    1    1    2  506  505 -0.34476590182E+02 -0.47672240744E-01 -0.62899531745E+01  0.35045699510E+02  0.00000000000E+00 0.  1.
<scales pt_clust_3="63.97985" pt_clust_4="80.76987" pt_clust_5="14000.00000" pt_clust_6="34.47662"></scales>
<clustering>
<clus scale="   34.477">  1  6  2 -1</clus>
<clus scale="   63.980">  2  3  1 -1</clus>
<clus scale="   80.770">  1  4  2 -1</clus>
<clus scale="   34.477">  1  3  2 -1</clus>
</clustering>
</event>
