<event>
 5    0  0.5720942E-005  0.3631859E+03  0.7546771E-02  0.1057329E+00
         21   -1    0    0  502  501  0.00000000000E+00  0.00000000000E+00  0.11420050682E+04  0.11420050682E+04  0.00000000000E+00 0.  1.
         21   -1    0    0  501  502 -0.00000000000E+00 -0.00000000000E+00 -0.11550212375E+03  0.11550212375E+03  0.00000000000E+00 0.  1.
         25    1    1    2    0    0  0.17117889900E+03  0.24659159179E+01  0.74819351574E+03  0.77764184121E+03  0.12500000000E+03 0.  0.
         25    1    1    2    0    0 -0.15966686742E+03 -0.93105958312E+02  0.10235375326E+03  0.24548629052E+03  0.12500000000E+03 0.  0.
         25    1    1    2    0    0 -0.11512031577E+02  0.90640042394E+02  0.17595567547E+03  0.23437906026E+03  0.12500000000E+03 0.  0.
</event>
<event>
 5    0  0.5720942E-005  0.2530035E+03  0.7546771E-02  0.1111421E+00
         21   -1    0    0  502  501  0.00000000000E+00  0.00000000000E+00  0.13627797354E+03  0.13627797354E+03  0.00000000000E+00 0. -1.
         21   -1    0    0  501  502 -0.00000000000E+00 -0.00000000000E+00 -0.46970721574E+03  0.46970721574E+03  0.00000000000E+00 0. -1.
         25    1    1    2    0    0  0.73965252640E+02 -0.12181467671E+03 -0.20835484364E+03  0.28168495687E+03  0.12500000000E+03 0.  0.
         25    1    1    2    0    0 -0.50339427305E+02  0.20021803695E+02 -0.54019323026E+02  0.14655380522E+03  0.12500000000E+03 0.  0.
         25    1    1    2    0    0 -0.23625825336E+02  0.10179287301E+03 -0.71055075529E+02  0.17774642718E+03  0.12500000000E+03 0.  0.
</event>
<event>
 5    0  0.5720942E-005  0.2372284E+03  0.7546771E-02  0.1121653E+00
         21   -1    0    0  502  501  0.00000000000E+00  0.00000000000E+00  0.35687720912E+03  0.35687720912E+03  0.00000000000E+00 0.  1.
         21   -1    0    0  501  502 -0.00000000000E+00 -0.00000000000E+00 -0.15769374141E+03  0.15769374141E+03  0.00000000000E+00 0.  1.
         25    1    1    2    0    0  0.19332878000E+02 -0.75178629426E+02  0.79157177630E+02  0.16708215124E+03  0.12500000000E+03 0.  0.
         25    1    1    2    0    0  0.11524834757E+02  0.35435498362E+02  0.16047793275E+03  0.20680102335E+03  0.12500000000E+03 0.  0.
         25    1    1    2    0    0 -0.30857712757E+02  0.39743131064E+02 -0.40451642671E+02  0.14068777594E+03  0.12500000000E+03 0.  0.
</event>
<event>
 5    0  0.6200671E-005  0.4423139E+03  0.7546771E-02  0.1030039E+00
         21   -1    0    0  502  501  0.00000000000E+00  0.00000000000E+00  0.67933476132E+03  0.67933476132E+03  0.00000000000E+00 0. -1.
         21   -1    0    0  501  502 -0.00000000000E+00 -0.00000000000E+00 -0.28798990824E+03  0.28798990824E+03  0.00000000000E+00 0. -1.
         25    1    1    2    0    0  0.91288894284E+02 -0.19292895432E+03  0.39999541630E+03  0.47029413849E+03  0.12500000000E+03 0.  0.
         25    1    1    2    0    0 -0.62056662141E+02 -0.87935098907E+02 -0.74954926074E+02  0.18118181995E+03  0.12500000000E+03 0.  0.
         25    1    1    2    0    0 -0.29232232143E+02  0.28086405322E+03  0.66304362852E+02  0.31584871113E+03  0.12500000000E+03 0.  0.
</event>
<event>
 5    0  0.5720942E-005  0.3042317E+03  0.7546771E-02  0.1083144E+00
         21   -1    0    0  502  501  0.00000000000E+00  0.00000000000E+00  0.60215710606E+03  0.60215710606E+03  0.00000000000E+00 0.  1.
         21   -1    0    0  501  502 -0.00000000000E+00 -0.00000000000E+00 -0.15370895572E+03  0.15370895572E+03  0.00000000000E+00 0.  1.
         25    1    1    2    0    0 -0.46530752751E+02  0.55908264562E+01  0.33068423560E+03  0.35661384152E+03  0.12500000000E+03 0.  0.
         25    1    1    2    0    0  0.14380168169E+03  0.63405853513E+02  0.10346936752E+03  0.22589850803E+03  0.12500000000E+03 0.  0.
         25    1    1    2    0    0 -0.97270928938E+02 -0.68996679969E+02  0.14294547226E+02  0.17335371223E+03  0.12500000000E+03 0.  0.
</event>
<event>
 5    0  0.5720942E-005  0.4459211E+03  0.7546771E-02  0.1028945E+00
         21   -1    0    0  502  501  0.00000000000E+00  0.00000000000E+00  0.26393528431E+03  0.26393528431E+03  0.00000000000E+00 0. -1.
         21   -1    0    0  501  502 -0.00000000000E+00 -0.00000000000E+00 -0.75338797362E+03  0.75338797362E+03  0.00000000000E+00 0. -1.
         25    1    1    2    0    0  0.19904065210E+03  0.12013022856E+03  0.64711226371E+02  0.27177379532E+03  0.12500000000E+03 0.  0.
         25    1    1    2    0    0  0.12904072738E+02 -0.43615460856E+00 -0.42458368490E+03  0.44279003015E+03  0.12500000000E+03 0.  0.
         25    1    1    2    0    0 -0.21194472484E+03 -0.11969407395E+03 -0.12958023079E+03  0.30275943245E+03  0.12500000000E+03 0.  0.
</event>
<event>
 5    0  0.5720942E-005  0.3235020E+03  0.7546771E-02  0.1074049E+00
         21   -1    0    0  502  501  0.00000000000E+00  0.00000000000E+00  0.49452105021E+03  0.49452105021E+03  0.00000000000E+00 0.  1.
         21   -1    0    0  501  502 -0.00000000000E+00 -0.00000000000E+00 -0.21162605706E+03  0.21162605706E+03  0.00000000000E+00 0.  1.
         25    1    1    2    0    0 -0.12576875134E+03  0.34805355919E+02 -0.57306268883E+02  0.18957373254E+03  0.12500000000E+03 0.  0.
         25    1    1    2    0    0  0.18143197146E+03  0.42683207414E+02  0.24722048091E+03  0.33388977619E+03  0.12500000000E+03 0.  0.
         25    1    1    2    0    0 -0.55663220121E+02 -0.77488563332E+02  0.92980781122E+02  0.18268359855E+03  0.12500000000E+03 0.  0.
</event>
<event>
 5    0  0.5720942E-005  0.3287547E+03  0.7546771E-02  0.1071689E+00
         21   -1    0    0  502  501  0.00000000000E+00  0.00000000000E+00  0.76884155930E+03  0.76884155930E+03  0.00000000000E+00 0.  1.
         21   -1    0    0  501  502 -0.00000000000E+00 -0.00000000000E+00 -0.14057466230E+03  0.14057466230E+03  0.00000000000E+00 0.  1.
         25    1    1    2    0    0 -0.18073659471E+02 -0.60332824904E+02 -0.53423878957E+01  0.14007229575E+03  0.12500000000E+03 0.  0.
         25    1    1    2    0    0  0.12120226781E+03 -0.16014931759E+02  0.89332710193E+02  0.19634612517E+03  0.12500000000E+03 0.  0.
         25    1    1    2    0    0 -0.10312860834E+03  0.76347756664E+02  0.54427657471E+03  0.57299780068E+03  0.12500000000E+03 0.  0.
</event>
<event>
 5    0  0.5720942E-005  0.2792927E+03  0.7546771E-02  0.1096076E+00
         21   -1    0    0  502  501  0.00000000000E+00  0.00000000000E+00  0.25540794237E+03  0.25540794237E+03  0.00000000000E+00 0. -1.
         21   -1    0    0  501  502 -0.00000000000E+00 -0.00000000000E+00 -0.30541096585E+03  0.30541096585E+03  0.00000000000E+00 0. -1.
         25    1    1    2    0    0  0.13330128058E+03  0.11069327355E+03  0.22767306607E+02  0.21486177525E+03  0.12500000000E+03 0.  0.
         25    1    1    2    0    0 -0.12920015472E+03 -0.96517499001E+02 -0.75190813258E+01  0.20418091042E+03  0.12500000000E+03 0.  0.
         25    1    1    2    0    0 -0.41011258545E+01 -0.14175774544E+02 -0.65251248768E+02  0.14177622256E+03  0.12500000000E+03 0.  0.
</event>
<event>
 5    0  0.5720942E-005  0.3789725E+03  0.7546771E-02  0.1051314E+00
         21   -1    0    0  502  501  0.00000000000E+00  0.00000000000E+00  0.13406458190E+03  0.13406458190E+03  0.00000000000E+00 0.  1.
         21   -1    0    0  501  502 -0.00000000000E+00 -0.00000000000E+00 -0.10712760046E+04  0.10712760046E+04  0.00000000000E+00 0.  1.
         25    1    1    2    0    0  0.87322740311E+02  0.61831610154E+02 -0.72436584558E+02  0.17977894140E+03  0.12500000000E+03 0.  0.
         25    1    1    2    0    0  0.30378614957E+02  0.11409390321E+03 -0.72006188661E+03  0.74030696305E+03  0.12500000000E+03 0.  0.
         25    1    1    2    0    0 -0.11770135527E+03 -0.17592551336E+03 -0.14471295151E+03  0.28525468203E+03  0.12500000000E+03 0.  0.
</event>
<event>
 5    0  0.5720942E-005  0.3604863E+03  0.7546771E-02  0.1058391E+00
         21   -1    0    0  502  501  0.00000000000E+00  0.00000000000E+00  0.11887255632E+03  0.11887255632E+03  0.00000000000E+00 0. -1.
         21   -1    0    0  501  502 -0.00000000000E+00 -0.00000000000E+00 -0.10931907024E+04  0.10931907024E+04  0.00000000000E+00 0. -1.
         25    1    1    2    0    0 -0.23148221904E+03  0.41637743491E+02 -0.38511183880E+03  0.46824549950E+03  0.12500000000E+03 0.  0.
         25    1    1    2    0    0  0.65536065143E+02 -0.77794251833E+02 -0.48001350055E+03  0.50634462786E+03  0.12500000000E+03 0.  0.
         25    1    1    2    0    0  0.16594615390E+03  0.36156508342E+02 -0.10919280676E+03  0.23747313140E+03  0.12500000000E+03 0.  0.
</event>
<event>
 5    0  0.6539614E-005  0.3334834E+03  0.7546771E-02  0.1069606E+00
         21   -1    0    0  502  501  0.00000000000E+00  0.00000000000E+00  0.49781474480E+03  0.49781474480E+03  0.00000000000E+00 0. -1.
         21   -1    0    0  501  502 -0.00000000000E+00 -0.00000000000E+00 -0.22339866430E+03  0.22339866430E+03  0.00000000000E+00 0. -1.
         25    1    1    2    0    0 -0.79137478316E+02 -0.53868054641E+02  0.27111623626E+03  0.31351797612E+03  0.12500000000E+03 0.  0.
         25    1    1    2    0    0 -0.10218050284E+03 -0.55476169169E+01 -0.57760657615E+02  0.17156026575E+03  0.12500000000E+03 0.  0.
         25    1    1    2    0    0  0.18131798116E+03  0.59415671558E+02  0.61060501853E+02  0.23613516723E+03  0.12500000000E+03 0.  0.
</event>
<event>
 5    0  0.5720942E-005  0.5333033E+03  0.7546771E-02  0.1005434E+00
         21   -1    0    0  502  501  0.00000000000E+00  0.00000000000E+00  0.42692214162E+03  0.42692214162E+03  0.00000000000E+00 0.  1.
         21   -1    0    0  501  502 -0.00000000000E+00 -0.00000000000E+00 -0.66619257642E+03  0.66619257642E+03  0.00000000000E+00 0.  1.
         25    1    1    2    0    0 -0.10726669118E+03  0.12237476516E+03 -0.26356957348E+02  0.20688502939E+03  0.12500000000E+03 0.  0.
         25    1    1    2    0    0  0.18966112857E+03 -0.50974910018E+02 -0.50176697427E+03  0.55314092382E+03  0.12500000000E+03 0.  0.
         25    1    1    2    0    0 -0.82394437392E+02 -0.71399855146E+02  0.28885349682E+03  0.33308876482E+03  0.12500000000E+03 0.  0.
</event>
<event>
 5    0  0.5720942E-005  0.3055042E+03  0.7546771E-02  0.1082521E+00
         21   -1    0    0  502  501  0.00000000000E+00  0.00000000000E+00  0.39076779647E+03  0.39076779647E+03  0.00000000000E+00 0. -1.
         21   -1    0    0  501  502 -0.00000000000E+00 -0.00000000000E+00 -0.23884476882E+03  0.23884476882E+03  0.00000000000E+00 0. -1.
         25    1    1    2    0    0  0.23777108477E+02  0.57331411297E+02  0.10704990992E+03  0.17588895594E+03  0.12500000000E+03 0.  0.
         25    1    1    2    0    0 -0.13584753082E+03 -0.24726339106E+02  0.16166384301E+03  0.24662956354E+03  0.12500000000E+03 0.  0.
         25    1    1    2    0    0  0.11207042235E+03 -0.32605072191E+02 -0.11679072528E+03  0.20709404580E+03  0.12500000000E+03 0.  0.
</event>
<event>
 5    0  0.5720942E-005  0.3338915E+03  0.7546771E-02  0.1069428E+00
         21   -1    0    0  502  501  0.00000000000E+00  0.00000000000E+00  0.16885135398E+04  0.16885135398E+04  0.00000000000E+00 0.  1.
         21   -1    0    0  501  502 -0.00000000000E+00 -0.00000000000E+00 -0.66024672935E+02  0.66024672935E+02  0.00000000000E+00 0.  1.
         25    1    1    2    0    0 -0.16544518561E+02  0.90910261496E+01  0.23128881024E+02  0.12851580832E+03  0.12500000000E+03 0.  0.
         25    1    1    2    0    0 -0.46904577927E+02  0.39277665607E+02  0.93600353438E+03  0.94629297304E+03  0.12500000000E+03 0.  0.
         25    1    1    2    0    0  0.63449096488E+02 -0.48368691756E+02  0.66335645146E+03  0.67972943137E+03  0.12500000000E+03 0.  0.
</event>
<event>
 5    0  0.5720942E-005  0.3885604E+03  0.7546771E-02  0.1047814E+00
         21   -1    0    0  502  501  0.00000000000E+00  0.00000000000E+00  0.56153935490E+03  0.56153935490E+03  0.00000000000E+00 0.  1.
         21   -1    0    0  501  502 -0.00000000000E+00 -0.00000000000E+00 -0.26886657288E+03  0.26886657288E+03  0.00000000000E+00 0.  1.
         25    1    1    2    0    0 -0.56283294945E+01 -0.41057996557E+02  0.27392211468E+03  0.30393381201E+03  0.12500000000E+03 0.  0.
         25    1    1    2    0    0  0.15569978702E+03  0.16278622154E+03 -0.88732315371E+02  0.27247055142E+03  0.12500000000E+03 0.  0.
         25    1    1    2    0    0 -0.15007145752E+03 -0.12172822498E+03  0.10748298272E+03  0.25400156435E+03  0.12500000000E+03 0.  0.
</event>
<event>
 5    0  0.5720942E-005  0.3192538E+03  0.7546771E-02  0.1075993E+00
         21   -1    0    0  502  501  0.00000000000E+00  0.00000000000E+00  0.50441115470E+03  0.50441115470E+03  0.00000000000E+00 0. -1.
         21   -1    0    0  501  502 -0.00000000000E+00 -0.00000000000E+00 -0.20206333276E+03  0.20206333276E+03  0.00000000000E+00 0. -1.
         25    1    1    2    0    0  0.99029518242E+02  0.17615751948E+03  0.14487688163E+03  0.27830312248E+03  0.12500000000E+03 0.  0.
         25    1    1    2    0    0  0.20345580854E+02 -0.28770749507E+02  0.15338547201E+03  0.20098209301E+03  0.12500000000E+03 0.  0.
         25    1    1    2    0    0 -0.11937509910E+03 -0.14738676997E+03  0.40854682947E+01  0.22718927197E+03  0.12500000000E+03 0.  0.
</event>
<event>
 5    0  0.5720942E-005  0.3193568E+03  0.7546771E-02  0.1075946E+00
         21   -1    0    0  502  501  0.00000000000E+00  0.00000000000E+00  0.18221592770E+03  0.18221592770E+03  0.00000000000E+00 0.  1.
         21   -1    0    0  501  502 -0.00000000000E+00 -0.00000000000E+00 -0.55971390160E+03  0.55971390160E+03  0.00000000000E+00 0.  1.
         25    1    1    2    0    0  0.14779387438E+03 -0.91103524931E+02 -0.26642261013E+03  0.34168536513E+03  0.12500000000E+03 0.  0.
         25    1    1    2    0    0 -0.17983473523E+03  0.11473404545E+02 -0.13077124255E+02  0.21970020980E+03  0.12500000000E+03 0.  0.
         25    1    1    2    0    0  0.32040860850E+02  0.79630120386E+02 -0.97998239515E+02  0.18054425437E+03  0.12500000000E+03 0.  0.
</event>
<event>
 5    0  0.5720942E-005  0.4356357E+03  0.7546771E-02  0.1032094E+00
         21   -1    0    0  502  501  0.00000000000E+00  0.00000000000E+00  0.24835415296E+03  0.24835415296E+03  0.00000000000E+00 0. -1.
         21   -1    0    0  501  502 -0.00000000000E+00 -0.00000000000E+00 -0.76414448601E+03  0.76414448601E+03  0.00000000000E+00 0. -1.
         25    1    1    2    0    0  0.44102323229E+02 -0.18286653062E+03 -0.12322273990E+02  0.22619023270E+03  0.12500000000E+03 0.  0.
         25    1    1    2    0    0  0.12398757478E+03 -0.11909112426E+03 -0.29561265442E+03  0.36409814066E+03  0.12500000000E+03 0.  0.
         25    1    1    2    0    0 -0.16808989801E+03  0.30195765488E+03 -0.20785540463E+03  0.42221026561E+03  0.12500000000E+03 0.  0.
</event>
<event>
 5    0  0.5720942E-005  0.3130169E+03  0.7546771E-02  0.1078909E+00
         21   -1    0    0  502  501  0.00000000000E+00  0.00000000000E+00  0.15557243928E+03  0.15557243928E+03  0.00000000000E+00 0.  1.
         21   -1    0    0  501  502 -0.00000000000E+00 -0.00000000000E+00 -0.62980025376E+03  0.62980025376E+03  0.00000000000E+00 0.  1.
         25    1    1    2    0    0 -0.15886322446E+03 -0.28586451206E+02 -0.33329018124E+03  0.39084786579E+03  0.12500000000E+03 0.  0.
         25    1    1    2    0    0  0.28186468031E+01 -0.26475574549E+02 -0.13664710422E+03  0.18709979131E+03  0.12500000000E+03 0.  0.
         25    1    1    2    0    0  0.15604457765E+03  0.55062025756E+02 -0.42905290182E+01  0.20742503594E+03  0.12500000000E+03 0.  0.
</event>
<event>
 5    0  0.9654038E-005  0.4811931E+03  0.7546771E-02  0.1018808E+00
         21   -1    0    0  502  501  0.00000000000E+00  0.00000000000E+00  0.67207359253E+03  0.67207359253E+03  0.00000000000E+00 0. -1.
         21   -1    0    0  501  502 -0.00000000000E+00 -0.00000000000E+00 -0.34452593962E+03  0.34452593962E+03  0.00000000000E+00 0.  1.
         25    1    1    2    0    0  0.29081368920E+03  0.16285336802E+03  0.22278519991E+03  0.41994293256E+03  0.12500000000E+03 0.  0.
         25    1    1    2    0    0 -0.18150142233E+03 -0.82493523901E+02  0.26350552398E+03  0.35328191146E+03  0.12500000000E+03 0.  0.
         25    1    1    2    0    0 -0.10931226687E+03 -0.80359844120E+02 -0.15874307099E+03  0.24337468813E+03  0.12500000000E+03 0.  0.
</event>
<event>
 5    0  0.5720942E-005  0.3284997E+03  0.7546771E-02  0.1071803E+00
         21   -1    0    0  502  501  0.00000000000E+00  0.00000000000E+00  0.79861495740E+03  0.79861495740E+03  0.00000000000E+00 0. -1.
         21   -1    0    0  501  502 -0.00000000000E+00 -0.00000000000E+00 -0.13512400908E+03  0.13512400908E+03  0.00000000000E+00 0. -1.
         25    1    1    2    0    0  0.22322651733E+02 -0.15285191290E+01  0.27445410281E+03  0.30240815415E+03  0.12500000000E+03 0.  0.
         25    1    1    2    0    0  0.10361553562E+03 -0.39192368062E+02  0.41507921460E+03  0.44742370895E+03  0.12500000000E+03 0.  0.
         25    1    1    2    0    0 -0.12593818735E+03  0.40720887192E+02 -0.26042369085E+02  0.18390710338E+03  0.12500000000E+03 0.  0.
</event>
<event>
 5    0  0.5720942E-005  0.3531428E+03  0.7546771E-02  0.1061332E+00
         21   -1    0    0  502  501  0.00000000000E+00  0.00000000000E+00  0.19090234517E+03  0.19090234517E+03  0.00000000000E+00 0. -1.
         21   -1    0    0  501  502 -0.00000000000E+00 -0.00000000000E+00 -0.65326497879E+03  0.65326497879E+03  0.00000000000E+00 0. -1.
         25    1    1    2    0    0 -0.11724795884E+02  0.13983072531E+03 -0.17363654443E+03  0.25586080618E+03  0.12500000000E+03 0.  0.
         25    1    1    2    0    0 -0.36979532902E+02 -0.27121686181E+03 -0.88174194622E+02  0.31356938719E+03  0.12500000000E+03 0.  0.
         25    1    1    2    0    0  0.48704328786E+02  0.13138613651E+03 -0.20055189458E+03  0.27473713059E+03  0.12500000000E+03 0.  0.
</event>
<event>
 5    0  0.5720942E-005  0.2853720E+03  0.7546771E-02  0.1092791E+00
         21   -1    0    0  502  501  0.00000000000E+00  0.00000000000E+00  0.10647975038E+04  0.10647975038E+04  0.00000000000E+00 0. -1.
         21   -1    0    0  501  502 -0.00000000000E+00 -0.00000000000E+00 -0.76481373442E+02  0.76481373442E+02  0.00000000000E+00 0. -1.
         25    1    1    2    0    0 -0.54066160326E+02  0.10655959925E+03  0.42150094864E+03  0.45559427959E+03  0.12500000000E+03 0.  0.
         25    1    1    2    0    0  0.26916225249E+02  0.86420281809E+02  0.22701693989E+03  0.27450799494E+03  0.12500000000E+03 0.  0.
         25    1    1    2    0    0  0.27149935076E+02 -0.19297988106E+03  0.33979824178E+03  0.41117660267E+03  0.12500000000E+03 0.  0.
</event>
<event>
 5    0  0.5720942E-005  0.1995534E+03  0.7546771E-02  0.1150116E+00
         21   -1    0    0  502  501  0.00000000000E+00  0.00000000000E+00  0.12317086423E+03  0.12317086423E+03  0.00000000000E+00 0.  1.
         21   -1    0    0  501  502 -0.00000000000E+00 -0.00000000000E+00 -0.32330325076E+03  0.32330325076E+03  0.00000000000E+00 0.  1.
         25    1    1    2    0    0  0.64243667164E+01  0.58960780145E+02 -0.82837209049E+02  0.16125957115E+03  0.12500000000E+03 0.  0.
         25    1    1    2    0    0 -0.12489408370E+02 -0.17006469995E+02 -0.71263529785E+02  0.14542591248E+03  0.12500000000E+03 0.  0.
         25    1    1    2    0    0  0.60650416534E+01 -0.41954310150E+02 -0.46031647700E+02  0.13978863137E+03  0.12500000000E+03 0.  0.
</event>
<event>
 5    0  0.5720942E-005  0.3849904E+03  0.7546771E-02  0.1049105E+00
         21   -1    0    0  502  501  0.00000000000E+00  0.00000000000E+00  0.12000561922E+03  0.12000561922E+03  0.00000000000E+00 0. -1.
         21   -1    0    0  501  502 -0.00000000000E+00 -0.00000000000E+00 -0.12350887991E+04  0.12350887991E+04  0.00000000000E+00 0. -1.
         25    1    1    2    0    0  0.21297598455E+03 -0.82639054488E+02 -0.80125853596E+03  0.84251304130E+03  0.12500000000E+03 0.  0.
         25    1    1    2    0    0 -0.41596174368E+02  0.91849075303E+02 -0.38950057670E+02  0.16525314323E+03  0.12500000000E+03 0.  0.
         25    1    1    2    0    0 -0.17137981019E+03 -0.92100208154E+01 -0.27487458627E+03  0.34732823380E+03  0.12500000000E+03 0.  0.
</event>
<event>
 5    0  0.5720942E-005  0.2796732E+03  0.7546771E-02  0.1095868E+00
         21   -1    0    0  502  501  0.00000000000E+00  0.00000000000E+00  0.90582978717E+03  0.90582978717E+03  0.00000000000E+00 0. -1.
         21   -1    0    0  501  502 -0.00000000000E+00 -0.00000000000E+00 -0.86348534935E+02  0.86348534935E+02  0.00000000000E+00 0. -1.
         25    1    1    2    0    0 -0.58180765112E+02  0.13625419491E+03  0.40625943939E+03  0.45013546756E+03  0.12500000000E+03 0.  0.
         25    1    1    2    0    0 -0.43543153969E+02 -0.12780782194E+03  0.17238893074E+03  0.25213843231E+03  0.12500000000E+03 0.  0.
         25    1    1    2    0    0  0.10172391908E+03 -0.84463729650E+01  0.24083288210E+03  0.28990442224E+03  0.12500000000E+03 0.  0.
</event>
<event>
 5    0  0.5720942E-005  0.3397247E+03  0.7546771E-02  0.1066913E+00
         21   -1    0    0  502  501  0.00000000000E+00  0.00000000000E+00  0.10557883161E+04  0.10557883161E+04  0.00000000000E+00 0.  1.
         21   -1    0    0  501  502 -0.00000000000E+00 -0.00000000000E+00 -0.10931443391E+03  0.10931443391E+03  0.00000000000E+00 0.  1.
         25    1    1    2    0    0 -0.19022226484E+02 -0.68514376338E+02  0.11608331945E+03  0.18481450679E+03  0.12500000000E+03 0.  0.
         25    1    1    2    0    0 -0.49261112371E+01  0.16429335927E+03  0.78919132532E+03  0.81576008877E+03  0.12500000000E+03 0.  0.
         25    1    1    2    0    0  0.23948337721E+02 -0.95778982932E+02  0.41199237456E+02  0.16452815448E+03  0.12500000000E+03 0.  0.
</event>
<event>
 5    0  0.5720942E-005  0.3760888E+03  0.7546771E-02  0.1052389E+00
         21   -1    0    0  502  501  0.00000000000E+00  0.00000000000E+00  0.10410513588E+04  0.10410513588E+04  0.00000000000E+00 0.  1.
         21   -1    0    0  501  502 -0.00000000000E+00 -0.00000000000E+00 -0.13586535526E+03  0.13586535526E+03  0.00000000000E+00 0.  1.
         25    1    1    2    0    0 -0.18906628684E+03 -0.10923756188E+03  0.74164582371E+03  0.78316181825E+03  0.12500000000E+03 0.  0.
         25    1    1    2    0    0  0.13054794693E+03  0.12414839425E+03  0.95808956816E+02  0.23929050639E+03  0.12500000000E+03 0.  0.
         25    1    1    2    0    0  0.58518339915E+02 -0.14910832362E+02  0.67731223007E+02  0.15446438942E+03  0.12500000000E+03 0.  0.
</event>
<event>
 5    0  0.5720942E-005  0.2978149E+03  0.7546771E-02  0.1086338E+00
         21   -1    0    0  502  501  0.00000000000E+00  0.00000000000E+00  0.37653318008E+03  0.37653318008E+03  0.00000000000E+00 0.  1.
         21   -1    0    0  501  502 -0.00000000000E+00 -0.00000000000E+00 -0.23555346617E+03  0.23555346617E+03  0.00000000000E+00 0.  1.
         25    1    1    2    0    0  0.14907608114E+03  0.69178638089E+02  0.12474931803E+03  0.24124003458E+03  0.12500000000E+03 0.  0.
         25    1    1    2    0    0 -0.76088221097E+02 -0.91552306438E+01  0.11436767644E+03  0.18595214721E+03  0.12500000000E+03 0.  0.
         25    1    1    2    0    0 -0.72987860040E+02 -0.60023407445E+02 -0.98137280562E+02  0.18489446447E+03  0.12500000000E+03 0.  0.
</event>
<event>
 5    0  0.5720942E-005  0.2507453E+03  0.7546771E-02  0.1112835E+00
         21   -1    0    0  502  501  0.00000000000E+00  0.00000000000E+00  0.15677702168E+03  0.15677702168E+03  0.00000000000E+00 0.  1.
         21   -1    0    0  501  502 -0.00000000000E+00 -0.00000000000E+00 -0.40103591857E+03  0.40103591857E+03  0.00000000000E+00 0.  1.
         25    1    1    2    0    0 -0.36583714340E+02  0.47741771883E+02 -0.10503763586E+03  0.17399870656E+03  0.12500000000E+03 0.  0.
         25    1    1    2    0    0  0.10838862430E+03 -0.10479582273E+03 -0.40420382784E+02  0.19997266234E+03  0.12500000000E+03 0.  0.
         25    1    1    2    0    0 -0.71804909959E+02  0.57054050846E+02 -0.98800878240E+02  0.18384157134E+03  0.12500000000E+03 0.  0.
</event>
<event>
 5    0  0.5720942E-005  0.6502362E+03  0.7546771E-02  0.9806336E-01
         21   -1    0    0  502  501  0.00000000000E+00  0.00000000000E+00  0.11079219647E+04  0.11079219647E+04  0.00000000000E+00 0. -1.
         21   -1    0    0  501  502 -0.00000000000E+00 -0.00000000000E+00 -0.38162170527E+03  0.38162170527E+03  0.00000000000E+00 0. -1.
         25    1    1    2    0    0 -0.37382532829E+02 -0.44837692253E+03  0.73012926705E+03  0.86669087051E+03  0.12500000000E+03 0.  0.
         25    1    1    2    0    0 -0.13333057795E+03  0.32096910855E+03 -0.46295848539E+02  0.37224523805E+03  0.12500000000E+03 0.  0.
         25    1    1    2    0    0  0.17071311078E+03  0.12740781398E+03  0.42466840908E+02  0.25060756141E+03  0.12500000000E+03 0.  0.
</event>
<event>
 5    0  0.5720942E-005  0.2567140E+03  0.7546771E-02  0.1109134E+00
         21   -1    0    0  502  501  0.00000000000E+00  0.00000000000E+00  0.40801380797E+03  0.40801380797E+03  0.00000000000E+00 0. -1.
         21   -1    0    0  501  502 -0.00000000000E+00 -0.00000000000E+00 -0.16151928444E+03  0.16151928444E+03  0.00000000000E+00 0. -1.
         25    1    1    2    0    0  0.32351124601E+02  0.11074383081E+03  0.22047991107E+03  0.27847294754E+03  0.12500000000E+03 0.  0.
         25    1    1    2    0    0 -0.29492358340E+01 -0.10148897767E+03  0.10447585871E+02  0.16137801161E+03  0.12500000000E+03 0.  0.
         25    1    1    2    0    0 -0.29401888767E+02 -0.92548531440E+01  0.15567026584E+02  0.12968213326E+03  0.12500000000E+03 0.  0.
</event>
<event>
 5    0  0.5720942E-005  0.2654373E+03  0.7546771E-02  0.1103920E+00
         21   -1    0    0  502  501  0.00000000000E+00  0.00000000000E+00  0.12520520219E+03  0.12520520219E+03  0.00000000000E+00 0. -1.
         21   -1    0    0  501  502 -0.00000000000E+00 -0.00000000000E+00 -0.56273194155E+03  0.56273194155E+03  0.00000000000E+00 0. -1.
         25    1    1    2    0    0  0.13626819718E+03  0.65871591788E+02 -0.18511014273E+03  0.26981262592E+03  0.12500000000E+03 0.  0.
         25    1    1    2    0    0 -0.10435126286E+03 -0.88167657200E+02 -0.21117294125E+03  0.28085892002E+03  0.12500000000E+03 0.  0.
         25    1    1    2    0    0 -0.31916934314E+02  0.22296065412E+02 -0.41243655383E+02  0.13726559780E+03  0.12500000000E+03 0.  0.
</event>
<event>
 5    0  0.5720942E-005  0.5128714E+03  0.7546771E-02  0.1010473E+00
         21   -1    0    0  502  501  0.00000000000E+00  0.00000000000E+00  0.39326882302E+03  0.39326882302E+03  0.00000000000E+00 0.  1.
         21   -1    0    0  501  502 -0.00000000000E+00 -0.00000000000E+00 -0.66884799393E+03  0.66884799393E+03  0.00000000000E+00 0.  1.
         25    1    1    2    0    0 -0.77884269402E+02 -0.63833304590E+02  0.34142486433E+03  0.37727521543E+03  0.12500000000E+03 0.  0.
         25    1    1    2    0    0  0.94339739960E+02  0.43081800264E+01 -0.29709397687E+03  0.33586958488E+03  0.12500000000E+03 0.  0.
         25    1    1    2    0    0 -0.16455470558E+02  0.59525124563E+02 -0.31991005836E+03  0.34897201665E+03  0.12500000000E+03 0.  0.
</event>
<event>
 5    0  0.5720942E-005  0.2197893E+03  0.7546771E-02  0.1134040E+00
         21   -1    0    0  502  501  0.00000000000E+00  0.00000000000E+00  0.12283483768E+03  0.12283483768E+03  0.00000000000E+00 0. -1.
         21   -1    0    0  501  502 -0.00000000000E+00 -0.00000000000E+00 -0.39327080079E+03  0.39327080079E+03  0.00000000000E+00 0. -1.
         25    1    1    2    0    0  0.14219469186E+02  0.26004161635E+02 -0.11619020238E+03  0.17321539440E+03  0.12500000000E+03 0.  0.
         25    1    1    2    0    0  0.81361252688E+01  0.35610179002E+02  0.47132153164E+01  0.13031306835E+03  0.12500000000E+03 0.  0.
         25    1    1    2    0    0 -0.22355594455E+02 -0.61614340637E+02 -0.15895897604E+03  0.21257717573E+03  0.12500000000E+03 0.  0.
</event>
<event>
 5    0  0.5720942E-005  0.4875373E+03  0.7546771E-02  0.1017084E+00
         21   -1    0    0  502  501  0.00000000000E+00  0.00000000000E+00  0.32920028806E+04  0.32920028806E+04  0.00000000000E+00 0. -1.
         21   -1    0    0  501  502 -0.00000000000E+00 -0.00000000000E+00 -0.72203051613E+02  0.72203051613E+02  0.00000000000E+00 0. -1.
         25    1    1    2    0    0 -0.19224683273E+03  0.13535484993E+03  0.59013394438E+03  0.64742787429E+03  0.12500000000E+03 0.  0.
         25    1    1    2    0    0 -0.71186070130E+02  0.19467743861E+03  0.92798352643E+03  0.95903346501E+03  0.12500000000E+03 0.  0.
         25    1    1    2    0    0  0.26343290286E+03 -0.33003228854E+03  0.17016823582E+04  0.17577445929E+04  0.12500000000E+03 0.  0.
</event>
<event>
 5    0  0.5720942E-005  0.3407130E+03  0.7546771E-02  0.1066493E+00
         21   -1    0    0  502  501  0.00000000000E+00  0.00000000000E+00  0.43347826583E+03  0.43347826583E+03  0.00000000000E+00 0.  1.
         21   -1    0    0  501  502 -0.00000000000E+00 -0.00000000000E+00 -0.26779973818E+03  0.26779973818E+03  0.00000000000E+00 0.  1.
         25    1    1    2    0    0  0.10851839425E+03  0.43060430747E+02 -0.14415157864E+03  0.22368531514E+03  0.12500000000E+03 0.  0.
         25    1    1    2    0    0 -0.16321124270E+03 -0.31197988301E+02  0.25751746623E+03  0.33098560336E+03  0.12500000000E+03 0.  0.
         25    1    1    2    0    0  0.54692848449E+02 -0.11862442446E+02  0.52312640055E+02  0.14660708551E+03  0.12500000000E+03 0.  0.
</event>
<event>
 5    0  0.5769375E-005  0.2809464E+03  0.7546771E-02  0.1095173E+00
         21   -1    0    0  502  501  0.00000000000E+00  0.00000000000E+00  0.13960163823E+03  0.13960163823E+03  0.00000000000E+00 0. -1.
         21   -1    0    0  501  502 -0.00000000000E+00 -0.00000000000E+00 -0.56540091643E+03  0.56540091643E+03  0.00000000000E+00 0. -1.
         25    1    1    2    0    0 -0.13104821267E+03  0.62965918331E+02 -0.15534381598E+03  0.24676920813E+03  0.12500000000E+03 0.  0.
         25    1    1    2    0    0  0.16412363246E+03 -0.24708858076E+02 -0.24459300504E+03  0.32093275388E+03  0.12500000000E+03 0.  0.
         25    1    1    2    0    0 -0.33075419787E+02 -0.38257060255E+02 -0.25862457176E+02  0.13730059266E+03  0.12500000000E+03 0.  0.
</event>
<event>
 5    0  0.5720942E-005  0.4082330E+03  0.7546771E-02  0.1040966E+00
         21   -1    0    0  502  501  0.00000000000E+00  0.00000000000E+00  0.25072136224E+03  0.25072136224E+03  0.00000000000E+00 0. -1.
         21   -1    0    0  501  502 -0.00000000000E+00 -0.00000000000E+00 -0.66469864079E+03  0.66469864079E+03  0.00000000000E+00 0. -1.
         25    1    1    2    0    0  0.12117129843E+03 -0.18932975685E+03 -0.26377907152E+03  0.36841910776E+03  0.12500000000E+03 0.  0.
         25    1    1    2    0    0  0.14103215752E+02  0.79548180304E+02 -0.26488540959E+03  0.30383563632E+03  0.12500000000E+03 0.  0.
         25    1    1    2    0    0 -0.13527451418E+03  0.10978157655E+03  0.11468720255E+03  0.24316525896E+03  0.12500000000E+03 0.  0.
</event>
<event>
 5    0  0.5720942E-005  0.3500112E+03  0.7546771E-02  0.1062610E+00
         21   -1    0    0  502  501  0.00000000000E+00  0.00000000000E+00  0.80295211098E+03  0.80295211098E+03  0.00000000000E+00 0. -1.
         21   -1    0    0  501  502 -0.00000000000E+00 -0.00000000000E+00 -0.15257182209E+03  0.15257182209E+03  0.00000000000E+00 0. -1.
         25    1    1    2    0    0  0.50226438608E+02 -0.19299992467E+02  0.35004896149E+02  0.14051878024E+03  0.12500000000E+03 0.  0.
         25    1    1    2    0    0  0.18291354382E+03  0.97808567869E+02  0.38836882737E+03  0.45768900635E+03  0.12500000000E+03 0.  0.
         25    1    1    2    0    0 -0.23313998243E+03 -0.78508575403E+02  0.22700656537E+03  0.35731614649E+03  0.12500000000E+03 0.  0.
</event>
<event>
 5    0  0.5720942E-005  0.4496422E+03  0.7546771E-02  0.1027829E+00
         21   -1    0    0  502  501  0.00000000000E+00  0.00000000000E+00  0.18943582678E+04  0.18943582678E+04  0.00000000000E+00 0.  1.
         21   -1    0    0  501  502 -0.00000000000E+00 -0.00000000000E+00 -0.10672646047E+03  0.10672646047E+03  0.00000000000E+00 0.  1.
         25    1    1    2    0    0  0.34328842630E+02 -0.34558172277E+03  0.48154628342E+03  0.60672647843E+03  0.12500000000E+03 0.  0.
         25    1    1    2    0    0  0.13895919852E+02  0.23936711775E+03  0.48145531905E+03  0.55219012839E+03  0.12500000000E+03 0.  0.
         25    1    1    2    0    0 -0.48224762482E+02  0.10621460502E+03  0.82463020481E+03  0.84216812141E+03  0.12500000000E+03 0.  0.
</event>
<event>
 5    0  0.5860727E-005  0.3798840E+03  0.7546771E-02  0.1050977E+00
         21   -1    0    0  502  501  0.00000000000E+00  0.00000000000E+00  0.73607298632E+03  0.73607298632E+03  0.00000000000E+00 0. -1.
         21   -1    0    0  501  502 -0.00000000000E+00 -0.00000000000E+00 -0.19605641371E+03  0.19605641371E+03  0.00000000000E+00 0. -1.
         25    1    1    2    0    0 -0.11059706402E+03 -0.19169328289E+02  0.36268393101E+03  0.39970465038E+03  0.12500000000E+03 0.  0.
         25    1    1    2    0    0 -0.12109625773E+03  0.11972113991E+03  0.12603701668E+03  0.24598330136E+03  0.12500000000E+03 0.  0.
         25    1    1    2    0    0  0.23169332175E+03 -0.10055181162E+03  0.51295624911E+02  0.28644144829E+03  0.12500000000E+03 0.  0.
</event>
<event>
 5    0  0.5720942E-005  0.3080511E+03  0.7546771E-02  0.1081284E+00
         21   -1    0    0  502  501  0.00000000000E+00  0.00000000000E+00  0.43677147773E+02  0.43677147773E+02  0.00000000000E+00 0.  1.
         21   -1    0    0  501  502 -0.00000000000E+00 -0.00000000000E+00 -0.21726567801E+04  0.21726567801E+04  0.00000000000E+00 0.  1.
         25    1    1    2    0    0 -0.12661060925E+02  0.41398464409E+02 -0.95533517098E+03  0.96445032232E+03  0.12500000000E+03 0.  0.
         25    1    1    2    0    0  0.88428377372E+02 -0.17849755206E+03 -0.64320117671E+03  0.68484575470E+03  0.12500000000E+03 0.  0.
         25    1    1    2    0    0 -0.75767316447E+02  0.13709908765E+03 -0.53044328465E+03  0.56703785086E+03  0.12500000000E+03 0.  0.
</event>
<event>
 5    0  0.5720942E-005  0.4301664E+03  0.7546771E-02  0.1033807E+00
         21   -1    0    0  502  501  0.00000000000E+00  0.00000000000E+00  0.11580375086E+03  0.11580375086E+03  0.00000000000E+00 0.  1.
         21   -1    0    0  501  502 -0.00000000000E+00 -0.00000000000E+00 -0.15979027622E+04  0.15979027622E+04  0.00000000000E+00 0.  1.
         25    1    1    2    0    0 -0.17995053413E+03  0.53031974277E+02 -0.40532863224E+03  0.46380047989E+03  0.12500000000E+03 0.  0.
         25    1    1    2    0    0  0.46983021862E+02  0.75343246974E+02 -0.31645157968E+01  0.15335913200E+03  0.12500000000E+03 0.  0.
         25    1    1    2    0    0  0.13296751227E+03 -0.12837522125E+03 -0.10736058633E+04  0.10965469011E+04  0.12500000000E+03 0.  0.
</event>
<event>
 5    0  0.5720942E-005  0.3475000E+03  0.7546771E-02  0.1063646E+00
         21   -1    0    0  502  501  0.00000000000E+00  0.00000000000E+00  0.13067757084E+03  0.13067757084E+03  0.00000000000E+00 0. -1.
         21   -1    0    0  501  502 -0.00000000000E+00 -0.00000000000E+00 -0.92407791942E+03  0.92407791942E+03  0.00000000000E+00 0. -1.
         25    1    1    2    0    0  0.39988757483E+01 -0.62419396870E+02 -0.59624146806E+03  0.61240596041E+03  0.12500000000E+03 0.  0.
         25    1    1    2    0    0 -0.10324536073E+03  0.55003222305E+02 -0.22232029373E+03  0.28059984316E+03  0.12500000000E+03 0.  0.
         25    1    1    2    0    0  0.99246484985E+02  0.74161745654E+01  0.25161413218E+02  0.16174968668E+03  0.12500000000E+03 0.  0.
</event>
<event>
 5    0  0.5720942E-005  0.2398325E+03  0.7546771E-02  0.1119904E+00
         21   -1    0    0  502  501  0.00000000000E+00  0.00000000000E+00  0.11023431677E+03  0.11023431677E+03  0.00000000000E+00 0.  1.
         21   -1    0    0  501  502 -0.00000000000E+00 -0.00000000000E+00 -0.52179409305E+03  0.52179409305E+03  0.00000000000E+00 0.  1.
         25    1    1    2    0    0  0.39602248509E+02 -0.14953953893E+02 -0.25221002989E+03  0.28465217020E+03  0.12500000000E+03 0.  0.
         25    1    1    2    0    0 -0.10707912473E+03 -0.20642245456E+01 -0.99148876485E+02  0.19216060909E+03  0.12500000000E+03 0.  0.
         25    1    1    2    0    0  0.67476876226E+02  0.17018178439E+02 -0.60200869902E+02  0.15521563053E+03  0.12500000000E+03 0.  0.
</event>
<event>
 5    0  0.5720942E-005  0.2031719E+03  0.7546771E-02  0.1147090E+00
         21   -1    0    0  502  501  0.00000000000E+00  0.00000000000E+00  0.76281663503E+02  0.76281663503E+02  0.00000000000E+00 0. -1.
         21   -1    0    0  501  502 -0.00000000000E+00 -0.00000000000E+00 -0.54113681899E+03  0.54113681899E+03  0.00000000000E+00 0. -1.
         25    1    1    2    0    0  0.36640605145E+02 -0.25628529641E+02 -0.19018992088E+03  0.23194085773E+03  0.12500000000E+03 0.  0.
         25    1    1    2    0    0 -0.43292555104E+02  0.47259453685E+02 -0.11567586539E+03  0.18197144590E+03  0.12500000000E+03 0.  0.
         25    1    1    2    0    0  0.66519499592E+01 -0.21630924044E+02 -0.15898936922E+03  0.20350617887E+03  0.12500000000E+03 0.  0.
</event>
<event>
 5    0  0.5720942E-005  0.2923819E+03  0.7546771E-02  0.1089112E+00
         21   -1    0    0  502  501  0.00000000000E+00  0.00000000000E+00  0.24955416955E+03  0.24955416955E+03  0.00000000000E+00 0. -1.
         21   -1    0    0  501  502 -0.00000000000E+00 -0.00000000000E+00 -0.34255956619E+03  0.34255956619E+03  0.00000000000E+00 0. -1.
         25    1    1    2    0    0  0.13714249894E+03  0.92284295904E+01 -0.99430218469E+02  0.21072398362E+03  0.12500000000E+03 0.  0.
         25    1    1    2    0    0 -0.16110480434E+03  0.75763975606E+02 -0.40589492902E+02  0.22128588955E+03  0.12500000000E+03 0.  0.
         25    1    1    2    0    0  0.23962305396E+02 -0.84992405196E+02  0.47014314734E+02  0.16010386257E+03  0.12500000000E+03 0.  0.
</event>
<event>
 5    0  0.6075812E-005  0.3501430E+03  0.7546771E-02  0.1062556E+00
         21   -1    0    0  502  501  0.00000000000E+00  0.00000000000E+00  0.54773032571E+03  0.54773032571E+03  0.00000000000E+00 0.  1.
         21   -1    0    0  501  502 -0.00000000000E+00 -0.00000000000E+00 -0.22383298162E+03  0.22383298162E+03  0.00000000000E+00 0.  1.
         25    1    1    2    0    0  0.91431497015E+02 -0.98596481328E+02  0.25741488601E+03  0.31617781123E+03  0.12500000000E+03 0.  0.
         25    1    1    2    0    0  0.10557532209E+03 -0.51543927197E+02  0.73474809247E+01  0.17170297185E+03  0.12500000000E+03 0.  0.
         25    1    1    2    0    0 -0.19700681910E+03  0.15014040852E+03  0.59134977158E+02  0.28368252426E+03  0.12500000000E+03 0.  0.
</event>
<event>
 5    0  0.5720942E-005  0.3187192E+03  0.7546771E-02  0.1076240E+00
         21   -1    0    0  502  501  0.00000000000E+00  0.00000000000E+00  0.11825540597E+04  0.11825540597E+04  0.00000000000E+00 0.  1.
         21   -1    0    0  501  502 -0.00000000000E+00 -0.00000000000E+00 -0.85900462503E+02  0.85900462503E+02  0.00000000000E+00 0.  1.
         25    1    1    2    0    0 -0.43327259157E+01 -0.64645431291E+02  0.12875625587E+03  0.19079040261E+03  0.12500000000E+03 0.  0.
         25    1    1    2    0    0  0.42984865829E+02 -0.15979265791E+03  0.52077851291E+03  0.56055031150E+03  0.12500000000E+03 0.  0.
         25    1    1    2    0    0 -0.38652139913E+02  0.22443808920E+03  0.44711882841E+03  0.51711380810E+03  0.12500000000E+03 0.  0.
</event>
<event>
 5    0  0.5720942E-005  0.2434229E+03  0.7546771E-02  0.1117533E+00
         21   -1    0    0  502  501  0.00000000000E+00  0.00000000000E+00  0.40054249283E+03  0.40054249283E+03  0.00000000000E+00 0.  1.
         21   -1    0    0  501  502 -0.00000000000E+00 -0.00000000000E+00 -0.14793614117E+03  0.14793614117E+03  0.00000000000E+00 0.  1.
         25    1    1    2    0    0 -0.55641376487E+02  0.94293139000E+02  0.79692672773E+01  0.16636005548E+03  0.12500000000E+03 0.  0.
         25    1    1    2    0    0  0.36741463143E+02 -0.16341158118E+02  0.57867791068E+02  0.14349442430E+03  0.12500000000E+03 0.  0.
         25    1    1    2    0    0  0.18899913344E+02 -0.77951980882E+02  0.18676929331E+03  0.23862415421E+03  0.12500000000E+03 0.  0.
</event>
<event>
 5    0  0.5720942E-005  0.3401378E+03  0.7546771E-02  0.1066737E+00
         21   -1    0    0  502  501  0.00000000000E+00  0.00000000000E+00  0.60417469064E+03  0.60417469064E+03  0.00000000000E+00 0.  1.
         21   -1    0    0  501  502 -0.00000000000E+00 -0.00000000000E+00 -0.19149053814E+03  0.19149053814E+03  0.00000000000E+00 0.  1.
         25    1    1    2    0    0  0.37967439582E+02 -0.36291638081E+01  0.18752209496E+03  0.22856997483E+03  0.12500000000E+03 0.  0.
         25    1    1    2    0    0 -0.57890459988E+02 -0.21295783862E+03  0.18290119690E+03  0.31269824786E+03  0.12500000000E+03 0.  0.
         25    1    1    2    0    0  0.19923020406E+02  0.21658700243E+03  0.42260860644E+02  0.25439700608E+03  0.12500000000E+03 0.  0.
</event>
<event>
 5    0  0.5720942E-005  0.3048617E+03  0.7546771E-02  0.1082835E+00
         21   -1    0    0  502  501  0.00000000000E+00  0.00000000000E+00  0.11067641690E+03  0.11067641690E+03  0.00000000000E+00 0.  1.
         21   -1    0    0  501  502 -0.00000000000E+00 -0.00000000000E+00 -0.83975119345E+03  0.83975119345E+03  0.00000000000E+00 0.  1.
         25    1    1    2    0    0  0.51166861961E+02  0.10467816876E+03 -0.23840754761E+03  0.29332358503E+03  0.12500000000E+03 0.  0.
         25    1    1    2    0    0 -0.15768359635E+03 -0.61489946743E+02 -0.42649498809E+03  0.47557134583E+03  0.12500000000E+03 0.  0.
         25    1    1    2    0    0  0.10651673439E+03 -0.43188222014E+02 -0.64172240847E+02  0.18153267949E+03  0.12500000000E+03 0.  0.
</event>
<event>
 5    0  0.5720942E-005  0.1984565E+03  0.7546771E-02  0.1151048E+00
         21   -1    0    0  502  501  0.00000000000E+00  0.00000000000E+00  0.36916035017E+03  0.36916035017E+03  0.00000000000E+00 0.  1.
         21   -1    0    0  501  502 -0.00000000000E+00 -0.00000000000E+00 -0.10668804378E+03  0.10668804378E+03  0.00000000000E+00 0.  1.
         25    1    1    2    0    0  0.27212024681E+01  0.28916423071E+02  0.80552559468E+02  0.15151659745E+03  0.12500000000E+03 0.  0.
         25    1    1    2    0    0 -0.28388180717E+02  0.10358432353E+02  0.54168556158E+02  0.13954360753E+03  0.12500000000E+03 0.  0.
         25    1    1    2    0    0  0.25666978249E+02 -0.39274855424E+02  0.12775119076E+03  0.18478818897E+03  0.12500000000E+03 0.  0.
</event>
<event>
 5    0  0.5915820E-005  0.3431673E+03  0.7546771E-02  0.1065455E+00
         21   -1    0    0  502  501  0.00000000000E+00  0.00000000000E+00  0.50786365975E+03  0.50786365975E+03  0.00000000000E+00 0. -1.
         21   -1    0    0  501  502 -0.00000000000E+00 -0.00000000000E+00 -0.23188069143E+03  0.23188069143E+03  0.00000000000E+00 0. -1.
         25    1    1    2    0    0  0.84015796144E+02  0.57960132474E+02 -0.26323836587E+02  0.16351139205E+03  0.12500000000E+03 0.  0.
         25    1    1    2    0    0 -0.76074232182E+02  0.88491380248E+02 -0.46954420467E+02  0.17733508052E+03  0.12500000000E+03 0.  0.
         25    1    1    2    0    0 -0.79415639619E+01 -0.14645151272E+03  0.34926122537E+03  0.39889787861E+03  0.12500000000E+03 0.  0.
</event>
<event>
 5    0  0.5720942E-005  0.3466157E+03  0.7546771E-02  0.1064013E+00
         21   -1    0    0  502  501  0.00000000000E+00  0.00000000000E+00  0.33232224608E+02  0.33232224608E+02  0.00000000000E+00 0. -1.
         21   -1    0    0  501  502 -0.00000000000E+00 -0.00000000000E+00 -0.36152394801E+04  0.36152394801E+04  0.00000000000E+00 0. -1.
         25    1    1    2    0    0 -0.94784831690E+00  0.18932702445E+03 -0.12325066530E+04  0.12532131783E+04  0.12500000000E+03 0.  0.
         25    1    1    2    0    0 -0.89419632024E+02 -0.19964372495E+03 -0.81663623761E+03  0.85461876418E+03  0.12500000000E+03 0.  0.
         25    1    1    2    0    0  0.90367480341E+02  0.10316700507E+02 -0.15328643648E+04  0.15406397622E+04  0.12500000000E+03 0.  0.
</event>
<event>
 5    0  0.5720942E-005  0.2567109E+03  0.7546771E-02  0.1109136E+00
         21   -1    0    0  502  501  0.00000000000E+00  0.00000000000E+00  0.30768230340E+03  0.30768230340E+03  0.00000000000E+00 0. -1.
         21   -1    0    0  501  502 -0.00000000000E+00 -0.00000000000E+00 -0.21418351957E+03  0.21418351957E+03  0.00000000000E+00 0. -1.
         25    1    1    2    0    0 -0.44152819511E+02 -0.77989915665E+01  0.42089671297E+02  0.13930842103E+03  0.12500000000E+03 0.  0.
         25    1    1    2    0    0  0.49599216866E+02  0.13120949598E+03  0.80536787673E+02  0.20441914861E+03  0.12500000000E+03 0.  0.
         25    1    1    2    0    0 -0.54463973542E+01 -0.12341050441E+03 -0.29127675131E+02  0.17813825333E+03  0.12500000000E+03 0.  0.
</event>
<event>
 5    0  0.5720942E-005  0.2328166E+03  0.7546771E-02  0.1124673E+00
         21   -1    0    0  502  501  0.00000000000E+00  0.00000000000E+00  0.24900036119E+03  0.24900036119E+03  0.00000000000E+00 0.  1.
         21   -1    0    0  501  502 -0.00000000000E+00 -0.00000000000E+00 -0.21768475431E+03  0.21768475431E+03  0.00000000000E+00 0.  1.
         25    1    1    2    0    0  0.64021985516E+02  0.43425850265E+02 -0.34079427092E+02  0.15090071720E+03  0.12500000000E+03 0.  0.
         25    1    1    2    0    0 -0.63594112020E+02 -0.80985597685E+02 -0.14750121042E+02  0.16262055278E+03  0.12500000000E+03 0.  0.
         25    1    1    2    0    0 -0.42787349530E+00  0.37559747420E+02  0.80145155010E+02  0.15316384552E+03  0.12500000000E+03 0.  0.
</event>
<event>
 5    0  0.5720942E-005  0.3189073E+03  0.7546771E-02  0.1076153E+00
         21   -1    0    0  502  501  0.00000000000E+00  0.00000000000E+00  0.25121341203E+04  0.25121341203E+04  0.00000000000E+00 0. -1.
         21   -1    0    0  501  502 -0.00000000000E+00 -0.00000000000E+00 -0.40484257902E+02  0.40484257902E+02  0.00000000000E+00 0. -1.
         25    1    1    2    0    0 -0.11236216741E+03  0.11654980244E+03  0.50055269330E+03  0.54072831615E+03  0.12500000000E+03 0.  0.
         25    1    1    2    0    0 -0.66221768506E+02 -0.24855146468E+02  0.44568303524E+03  0.46825363729E+03  0.12500000000E+03 0.  0.
         25    1    1    2    0    0  0.17858393592E+03 -0.91694655976E+02  0.15254141339E+04  0.15436364248E+04  0.12500000000E+03 0.  0.
</event>
<event>
 5    0  0.5738825E-005  0.3233874E+03  0.7546771E-02  0.1074101E+00
         21   -1    0    0  502  501  0.00000000000E+00  0.00000000000E+00  0.35305906983E+03  0.35305906983E+03  0.00000000000E+00 0. -1.
         21   -1    0    0  501  502 -0.00000000000E+00 -0.00000000000E+00 -0.29620942498E+03  0.29620942498E+03  0.00000000000E+00 0. -1.
         25    1    1    2    0    0 -0.33127422931E+02  0.69263421997E+01 -0.19771762799E+03  0.23635283113E+03  0.12500000000E+03 0.  0.
         25    1    1    2    0    0 -0.45585139937E+02 -0.79172948184E+02  0.16253204277E+03  0.22447277259E+03  0.12500000000E+03 0.  0.
         25    1    1    2    0    0  0.78712562868E+02  0.72246605985E+02  0.92035230066E+02  0.18844289109E+03  0.12500000000E+03 0.  0.
</event>
<event>
 5    0  0.5720942E-005  0.3278498E+03  0.7546771E-02  0.1072092E+00
         21   -1    0    0  502  501  0.00000000000E+00  0.00000000000E+00  0.11505913708E+04  0.11505913708E+04  0.00000000000E+00 0. -1.
         21   -1    0    0  501  502 -0.00000000000E+00 -0.00000000000E+00 -0.93417596916E+02  0.93417596916E+02  0.00000000000E+00 0. -1.
         25    1    1    2    0    0 -0.32510414664E+02 -0.19727635031E+03  0.42854566333E+03  0.48913318330E+03  0.12500000000E+03 0.  0.
         25    1    1    2    0    0 -0.90485081448E+02  0.14972536693E+03  0.21973815905E+03  0.30743307241E+03  0.12500000000E+03 0.  0.
         25    1    1    2    0    0  0.12299549611E+03  0.47550983379E+02  0.40888995152E+03  0.44744271201E+03  0.12500000000E+03 0.  0.
</event>
<event>
 5    0  0.5720942E-005  0.3147274E+03  0.7546771E-02  0.1078102E+00
         21   -1    0    0  502  501  0.00000000000E+00  0.00000000000E+00  0.47882492230E+02  0.47882492230E+02  0.00000000000E+00 0. -1.
         21   -1    0    0  501  502 -0.00000000000E+00 -0.00000000000E+00 -0.20686748989E+04  0.20686748989E+04  0.00000000000E+00 0. -1.
         25    1    1    2    0    0  0.12442383905E+03  0.13773290150E+03 -0.56998741253E+03  0.61234164836E+03  0.12500000000E+03 0.  0.
         25    1    1    2    0    0 -0.11894440336E+03 -0.17504917901E+03 -0.11551995987E+04  0.11810593122E+04  0.12500000000E+03 0.  0.
         25    1    1    2    0    0 -0.54794356889E+01  0.37316277509E+02 -0.29560539540E+03  0.32315643050E+03  0.12500000000E+03 0.  0.
</event>
<event>
 5    0  0.5720942E-005  0.2224157E+03  0.7546771E-02  0.1132095E+00
         21   -1    0    0  502  501  0.00000000000E+00  0.00000000000E+00  0.18285374157E+03  0.18285374157E+03  0.00000000000E+00 0. -1.
         21   -1    0    0  501  502 -0.00000000000E+00 -0.00000000000E+00 -0.27053728387E+03  0.27053728387E+03  0.00000000000E+00 0. -1.
         25    1    1    2    0    0  0.66548033028E+02 -0.55251888286E+02 -0.18167466977E+02  0.15308974073E+03  0.12500000000E+03 0.  0.
         25    1    1    2    0    0 -0.17231908256E+02  0.24868984161E+02  0.27861332832E+02  0.13159277679E+03  0.12500000000E+03 0.  0.
         25    1    1    2    0    0 -0.49316124772E+02  0.30382904125E+02 -0.97377408159E+02  0.16870850792E+03  0.12500000000E+03 0.  0.
</event>
<event>
 5    0  0.5720942E-005  0.2537398E+03  0.7546771E-02  0.1110964E+00
         21   -1    0    0  502  501  0.00000000000E+00  0.00000000000E+00  0.18684903939E+03  0.18684903939E+03  0.00000000000E+00 0.  1.
         21   -1    0    0  501  502 -0.00000000000E+00 -0.00000000000E+00 -0.34457697078E+03  0.34457697078E+03  0.00000000000E+00 0.  1.
         25    1    1    2    0    0  0.12791989110E+03 -0.56468927760E+02 -0.47981998677E+02  0.19359625652E+03  0.12500000000E+03 0.  0.
         25    1    1    2    0    0 -0.23198012751E+02  0.15988580511E+02 -0.11141874245E+03  0.16980258736E+03  0.12500000000E+03 0.  0.
         25    1    1    2    0    0 -0.10472187835E+03  0.40480347249E+02  0.16728097428E+01  0.16802716629E+03  0.12500000000E+03 0.  0.
</event>
<event>
 5    0  0.5720942E-005  0.3384978E+03  0.7546771E-02  0.1067438E+00
         21   -1    0    0  502  501  0.00000000000E+00  0.00000000000E+00  0.16997245315E+03  0.16997245315E+03  0.00000000000E+00 0.  1.
         21   -1    0    0  501  502 -0.00000000000E+00 -0.00000000000E+00 -0.67411386624E+03  0.67411386624E+03  0.00000000000E+00 0.  1.
         25    1    1    2    0    0 -0.27747325419E+02 -0.33896585761E+02 -0.59779926864E+00  0.13245470908E+03  0.12500000000E+03 0.  0.
         25    1    1    2    0    0  0.34721960433E+02  0.16755760091E+03 -0.48288125562E+03  0.52733335869E+03  0.12500000000E+03 0.  0.
         25    1    1    2    0    0 -0.69746350141E+01 -0.13366101515E+03 -0.20662358201E+02  0.18429825162E+03  0.12500000000E+03 0.  0.
</event>
<event>
 5    0  0.5720942E-005  0.2691218E+03  0.7546771E-02  0.1101783E+00
         21   -1    0    0  502  501  0.00000000000E+00  0.00000000000E+00  0.25114249919E+03  0.25114249919E+03  0.00000000000E+00 0. -1.
         21   -1    0    0  501  502 -0.00000000000E+00 -0.00000000000E+00 -0.28838821735E+03  0.28838821735E+03  0.00000000000E+00 0. -1.
         25    1    1    2    0    0  0.12310074829E+03  0.13377815513E+03 -0.26945217805E+02  0.22226433313E+03  0.12500000000E+03 0.  0.
         25    1    1    2    0    0 -0.77273107631E+02 -0.36236492902E+02 -0.15431799174E+02  0.15214255488E+03  0.12500000000E+03 0.  0.
         25    1    1    2    0    0 -0.45827640655E+02 -0.97541662232E+02  0.51312988165E+01  0.16512382852E+03  0.12500000000E+03 0.  0.
</event>
<event>
 5    0  0.5720942E-005  0.3257981E+03  0.7546771E-02  0.1073011E+00
         21   -1    0    0  502  501  0.00000000000E+00  0.00000000000E+00  0.52253203407E+02  0.52253203407E+02  0.00000000000E+00 0. -1.
         21   -1    0    0  501  502 -0.00000000000E+00 -0.00000000000E+00 -0.20313470235E+04  0.20313470235E+04  0.00000000000E+00 0. -1.
         25    1    1    2    0    0 -0.10995929361E+03 -0.11281884760E+03 -0.86190460297E+03  0.88505575149E+03  0.12500000000E+03 0.  0.
         25    1    1    2    0    0  0.66858029735E+01  0.16410780924E+02 -0.90851140634E+03  0.91724151081E+03  0.12500000000E+03 0.  0.
         25    1    1    2    0    0  0.10327349064E+03  0.96408066672E+02 -0.20867781079E+03  0.28130296462E+03  0.12500000000E+03 0.  0.
</event>
<event>
 5    0  0.5720942E-005  0.3814405E+03  0.7546771E-02  0.1050403E+00
         21   -1    0    0  502  501  0.00000000000E+00  0.00000000000E+00  0.93047746894E+03  0.93047746894E+03  0.00000000000E+00 0. -1.
         21   -1    0    0  501  502 -0.00000000000E+00 -0.00000000000E+00 -0.15636797577E+03  0.15636797577E+03  0.00000000000E+00 0. -1.
         25    1    1    2    0    0  0.32845576843E+02 -0.15406580364E+03  0.54371357219E+03  0.57971074887E+03  0.12500000000E+03 0.  0.
         25    1    1    2    0    0 -0.73625083606E+02  0.26352778108E+02 -0.63680923195E+02  0.16060940766E+03  0.12500000000E+03 0.  0.
         25    1    1    2    0    0  0.40779506763E+02  0.12771302553E+03  0.29407684418E+03  0.34652528818E+03  0.12500000000E+03 0.  0.
</event>
<event>
 5    0  0.5746383E-005  0.2903739E+03  0.7546771E-02  0.1090154E+00
         21   -1    0    0  502  501  0.00000000000E+00  0.00000000000E+00  0.58779149262E+02  0.58779149262E+02  0.00000000000E+00 0. -1.
         21   -1    0    0  501  502 -0.00000000000E+00 -0.00000000000E+00 -0.14344714160E+04  0.14344714160E+04  0.00000000000E+00 0. -1.
         25    1    1    2    0    0  0.73781763019E+02 -0.10897297461E+03 -0.38607033048E+03  0.42660773297E+03  0.12500000000E+03 0.  0.
         25    1    1    2    0    0  0.54514397366E+02 -0.22888339710E+02 -0.62021320216E+03  0.63544087982E+03  0.12500000000E+03 0.  0.
         25    1    1    2    0    0 -0.12829616039E+03  0.13186131432E+03 -0.36940873406E+03  0.43120195243E+03  0.12500000000E+03 0.  0.
</event>
<event>
 5    0  0.5720942E-005  0.2789737E+03  0.7546771E-02  0.1096251E+00
         21   -1    0    0  502  501  0.00000000000E+00  0.00000000000E+00  0.64582857865E+02  0.64582857865E+02  0.00000000000E+00 0. -1.
         21   -1    0    0  501  502 -0.00000000000E+00 -0.00000000000E+00 -0.12050619535E+04  0.12050619535E+04  0.00000000000E+00 0. -1.
         25    1    1    2    0    0  0.66983152849E+01  0.79538018281E+02 -0.32305066836E+03  0.35546856135E+03  0.12500000000E+03 0.  0.
         25    1    1    2    0    0 -0.14941535779E+03 -0.44367072031E+02 -0.54394132943E+03  0.57947437914E+03  0.12500000000E+03 0.  0.
         25    1    1    2    0    0  0.14271704250E+03 -0.35170946250E+02 -0.27348709788E+03  0.33470187091E+03  0.12500000000E+03 0.  0.
</event>
<event>
 5    0  0.5720942E-005  0.2965826E+03  0.7546771E-02  0.1086962E+00
         21   -1    0    0  502  501  0.00000000000E+00  0.00000000000E+00  0.29182845342E+03  0.29182845342E+03  0.00000000000E+00 0.  1.
         21   -1    0    0  501  502 -0.00000000000E+00 -0.00000000000E+00 -0.30141423408E+03  0.30141423408E+03  0.00000000000E+00 0.  1.
         25    1    1    2    0    0  0.62100393143E+02  0.10265370663E+03  0.14145769424E+03  0.22367280025E+03  0.12500000000E+03 0.  0.
         25    1    1    2    0    0 -0.27454803809E+02  0.38053360048E+02 -0.14128386325E+02  0.13426256278E+03  0.12500000000E+03 0.  0.
         25    1    1    2    0    0 -0.34645589334E+02 -0.14070706667E+03 -0.13691508857E+03  0.23530732447E+03  0.12500000000E+03 0.  0.
</event>
<event>
 5    0  0.5720942E-005  0.2711192E+03  0.7546771E-02  0.1100641E+00
         21   -1    0    0  502  501  0.00000000000E+00  0.00000000000E+00  0.98296058870E+03  0.98296058870E+03  0.00000000000E+00 0.  1.
         21   -1    0    0  501  502 -0.00000000000E+00 -0.00000000000E+00 -0.74779820382E+02  0.74779820382E+02  0.00000000000E+00 0.  1.
         25    1    1    2    0    0 -0.14889073392E+02 -0.13183911054E+02  0.22739610854E+03  0.26024890047E+03  0.12500000000E+03 0.  0.
         25    1    1    2    0    0  0.12300597841E+03 -0.10976918777E+03  0.38462380600E+03  0.43673815663E+03  0.12500000000E+03 0.  0.
         25    1    1    2    0    0 -0.10811690501E+03  0.12295309883E+03  0.29616085377E+03  0.36075335198E+03  0.12500000000E+03 0.  0.
</event>
<event>
 5    0  0.5720942E-005  0.2704213E+03  0.7546771E-02  0.1101039E+00
         21   -1    0    0  502  501  0.00000000000E+00  0.00000000000E+00  0.32518769241E+03  0.32518769241E+03  0.00000000000E+00 0. -1.
         21   -1    0    0  501  502 -0.00000000000E+00 -0.00000000000E+00 -0.22487836914E+03  0.22487836914E+03  0.00000000000E+00 0. -1.
         25    1    1    2    0    0  0.49441155256E+02 -0.11989354751E+03  0.17901811433E+03  0.25395152259E+03  0.12500000000E+03 0.  0.
         25    1    1    2    0    0 -0.66611030637E+01  0.74863670438E+02 -0.38238242807E+02  0.15078495501E+03  0.12500000000E+03 0.  0.
         25    1    1    2    0    0 -0.42780052192E+02  0.45029877073E+02 -0.40470548253E+02  0.14532958395E+03  0.12500000000E+03 0.  0.
</event>
<event>
 5    0  0.5720942E-005  0.3405729E+03  0.7546771E-02  0.1066552E+00
         21   -1    0    0  502  501  0.00000000000E+00  0.00000000000E+00  0.22425167563E+04  0.22425167563E+04  0.00000000000E+00 0. -1.
         21   -1    0    0  501  502 -0.00000000000E+00 -0.00000000000E+00 -0.51723095320E+02  0.51723095320E+02  0.00000000000E+00 0. -1.
         25    1    1    2    0    0 -0.12655950668E+03  0.88671302347E+02  0.87488152441E+03  0.89717478249E+03  0.12500000000E+03 0.  0.
         25    1    1    2    0    0 -0.24494305745E+01 -0.16368826453E+03  0.10349866704E+04  0.10552830216E+04  0.12500000000E+03 0.  0.
         25    1    1    2    0    0  0.12900893725E+03  0.75016962180E+02  0.28092546615E+03  0.34178204757E+03  0.12500000000E+03 0.  0.
</event>
<event>
 5    0  0.5720942E-005  0.3850672E+03  0.7546771E-02  0.1049077E+00
         21   -1    0    0  502  501  0.00000000000E+00  0.00000000000E+00  0.10625789603E+04  0.10625789603E+04  0.00000000000E+00 0.  1.
         21   -1    0    0  501  502 -0.00000000000E+00 -0.00000000000E+00 -0.13954421708E+03  0.13954421708E+03  0.00000000000E+00 0.  1.
         25    1    1    2    0    0 -0.21338035563E+02  0.11523043508E+03  0.71530664571E+03  0.73554195143E+03  0.12500000000E+03 0.  0.
         25    1    1    2    0    0  0.30006823322E+02  0.71501539487E+02  0.19100814485E+03  0.24108502855E+03  0.12500000000E+03 0.  0.
         25    1    1    2    0    0 -0.86687877589E+01 -0.18673197456E+03  0.16719952622E+02  0.22549619735E+03  0.12500000000E+03 0.  0.
</event>
<event>
 5    0  0.5720942E-005  0.3732222E+03  0.7546771E-02  0.1053468E+00
         21   -1    0    0  502  501  0.00000000000E+00  0.00000000000E+00  0.10444131545E+04  0.10444131545E+04  0.00000000000E+00 0.  1.
         21   -1    0    0  501  502 -0.00000000000E+00 -0.00000000000E+00 -0.13337136581E+03  0.13337136581E+03  0.00000000000E+00 0.  1.
         25    1    1    2    0    0  0.87142753335E+02 -0.16145490184E+03  0.22440107308E+03  0.31566182282E+03  0.12500000000E+03 0.  0.
         25    1    1    2    0    0  0.83000487901E+02  0.30383811267E+02  0.56513830936E+03  0.58550710131E+03  0.12500000000E+03 0.  0.
         25    1    1    2    0    0 -0.17014324124E+03  0.13107109057E+03  0.12150240622E+03  0.27661559616E+03  0.12500000000E+03 0.  0.
</event>
<event>
 5    0  0.5720942E-005  0.2357404E+03  0.7546771E-02  0.1122663E+00
         21   -1    0    0  502  501  0.00000000000E+00  0.00000000000E+00  0.54742783335E+03  0.54742783335E+03  0.00000000000E+00 0.  1.
         21   -1    0    0  501  502 -0.00000000000E+00 -0.00000000000E+00 -0.10151757901E+03  0.10151757901E+03  0.00000000000E+00 0.  1.
         25    1    1    2    0    0 -0.11989168357E+01  0.63235027783E+02  0.14114844731E+03  0.19886676524E+03  0.12500000000E+03 0.  0.
         25    1    1    2    0    0 -0.84359146692E+02 -0.90185839245E+02  0.14014997240E+03  0.22475979622E+03  0.12500000000E+03 0.  0.
         25    1    1    2    0    0  0.85558063528E+02  0.26950811462E+02  0.16461183462E+03  0.22531885090E+03  0.12500000000E+03 0.  0.
</event>
<event>
 5    0  0.5720942E-005  0.3277815E+03  0.7546771E-02  0.1072123E+00
         21   -1    0    0  502  501  0.00000000000E+00  0.00000000000E+00  0.21507585596E+04  0.21507585596E+04  0.00000000000E+00 0. -1.
         21   -1    0    0  501  502 -0.00000000000E+00 -0.00000000000E+00 -0.49954784215E+02  0.49954784215E+02  0.00000000000E+00 0.  1.
         25    1    1    2    0    0 -0.23641669612E+02 -0.93702628550E+02  0.51546579346E+03  0.53913736224E+03  0.12500000000E+03 0.  0.
         25    1    1    2    0    0  0.20725891918E+03  0.94983352609E+02  0.64666695129E+03  0.69698008776E+03  0.12500000000E+03 0.  0.
         25    1    1    2    0    0 -0.18361724957E+03 -0.12807240592E+01  0.93867103064E+03  0.96459589381E+03  0.12500000000E+03 0.  0.
</event>
<event>
 5    0  0.5720942E-005  0.2591956E+03  0.7546771E-02  0.1107628E+00
         21   -1    0    0  502  501  0.00000000000E+00  0.00000000000E+00  0.94184612507E+03  0.94184612507E+03  0.00000000000E+00 0. -1.
         21   -1    0    0  501  502 -0.00000000000E+00 -0.00000000000E+00 -0.71330482290E+02  0.71330482290E+02  0.00000000000E+00 0. -1.
         25    1    1    2    0    0  0.18626478612E+02  0.42986020654E+02  0.37333503032E+03  0.39648302428E+03  0.12500000000E+03 0.  0.
         25    1    1    2    0    0  0.98127330925E+02  0.22551160087E+02  0.13071345348E+03  0.20699887636E+03  0.12500000000E+03 0.  0.
         25    1    1    2    0    0 -0.11675380954E+03 -0.65537180741E+02  0.36646715898E+03  0.40969470672E+03  0.12500000000E+03 0.  0.
</event>
<event>
 5    0  0.5720942E-005  0.3572986E+03  0.7546771E-02  0.1059659E+00
         21   -1    0    0  502  501  0.00000000000E+00  0.00000000000E+00  0.17291343224E+03  0.17291343224E+03  0.00000000000E+00 0.  1.
         21   -1    0    0  501  502 -0.00000000000E+00 -0.00000000000E+00 -0.73830193537E+03  0.73830193537E+03  0.00000000000E+00 0.  1.
         25    1    1    2    0    0 -0.62805376417E+02  0.17041409208E+03 -0.92026538132E+02  0.23891287493E+03  0.12500000000E+03 0.  0.
         25    1    1    2    0    0  0.10851306427E+03 -0.24353994906E+03 -0.41663550748E+03  0.51019303993E+03  0.12500000000E+03 0.  0.
         25    1    1    2    0    0 -0.45707687852E+02  0.73125856984E+02 -0.56726457522E+02  0.16210945275E+03  0.12500000000E+03 0.  0.
</event>
<event>
 5    0  0.5720942E-005  0.3671427E+03  0.7546771E-02  0.1055791E+00
         21   -1    0    0  502  501  0.00000000000E+00  0.00000000000E+00  0.17432687872E+03  0.17432687872E+03  0.00000000000E+00 0.  1.
         21   -1    0    0  501  502 -0.00000000000E+00 -0.00000000000E+00 -0.77322418902E+03  0.77322418902E+03  0.00000000000E+00 0.  1.
         25    1    1    2    0    0  0.88401712141E+02 -0.12615473418E+03 -0.10099961015E+03  0.22261132252E+03  0.12500000000E+03 0.  0.
         25    1    1    2    0    0 -0.18883210748E+03  0.10769296449E+03 -0.50451598852E+03  0.56339748143E+03  0.12500000000E+03 0.  0.
         25    1    1    2    0    0  0.10043039534E+03  0.18461769687E+02  0.66182883670E+01  0.16154226379E+03  0.12500000000E+03 0.  0.
</event>
<event>
 5    0  0.5720942E-005  0.3780233E+03  0.7546771E-02  0.1051667E+00
         21   -1    0    0  502  501  0.00000000000E+00  0.00000000000E+00  0.19169154864E+04  0.19169154864E+04  0.00000000000E+00 0.  1.
         21   -1    0    0  501  502 -0.00000000000E+00 -0.00000000000E+00 -0.74547696546E+02  0.74547696546E+02  0.00000000000E+00 0.  1.
         25    1    1    2    0    0  0.23392421061E+02 -0.20026714265E+03  0.48358119753E+03  0.53863708412E+03  0.12500000000E+03 0.  0.
         25    1    1    2    0    0 -0.12607576692E+03  0.14248940142E+03  0.28197427308E+03  0.36239870199E+03  0.12500000000E+03 0.  0.
         25    1    1    2    0    0  0.10268334586E+03  0.57777741222E+02  0.10768123192E+04  0.10904273968E+04  0.12500000000E+03 0.  0.
</event>
<event>
 5    0  0.5720942E-005  0.2348707E+03  0.7546771E-02  0.1123258E+00
         21   -1    0    0  502  501  0.00000000000E+00  0.00000000000E+00  0.68529935056E+03  0.68529935056E+03  0.00000000000E+00 0.  1.
         21   -1    0    0  501  502 -0.00000000000E+00 -0.00000000000E+00 -0.80496565888E+02  0.80496565888E+02  0.00000000000E+00 0.  1.
         25    1    1    2    0    0 -0.53434938425E+01  0.36416047856E+02  0.26732326046E+03  0.29739100028E+03  0.12500000000E+03 0.  0.
         25    1    1    2    0    0 -0.57038919811E+02  0.39627757369E+02  0.74950132953E+02  0.16145067345E+03  0.12500000000E+03 0.  0.
         25    1    1    2    0    0  0.62382413653E+02 -0.76043805225E+02  0.26252939126E+03  0.30695424272E+03  0.12500000000E+03 0.  0.
</event>
<event>
 5    0  0.5720942E-005  0.4518774E+03  0.7546771E-02  0.1027164E+00
         21   -1    0    0  502  501  0.00000000000E+00  0.00000000000E+00  0.15687987375E+03  0.15687987375E+03  0.00000000000E+00 0.  1.
         21   -1    0    0  501  502 -0.00000000000E+00 -0.00000000000E+00 -0.13015894257E+04  0.13015894257E+04  0.00000000000E+00 0.  1.
         25    1    1    2    0    0  0.20567186528E+03 -0.19416907834E+03 -0.74393933012E+03  0.80565083879E+03  0.12500000000E+03 0.  0.
         25    1    1    2    0    0 -0.14152117230E+03  0.25075264854E+03 -0.39047909340E+03  0.50100304924E+03  0.12500000000E+03 0.  0.
         25    1    1    2    0    0 -0.64150692974E+02 -0.56583570203E+02 -0.10291128454E+02  0.15181541144E+03  0.12500000000E+03 0.  0.
</event>
<event>
 5    0  0.5720942E-005  0.3039351E+03  0.7546771E-02  0.1083290E+00
         21   -1    0    0  502  501  0.00000000000E+00  0.00000000000E+00  0.83329183365E+03  0.83329183365E+03  0.00000000000E+00 0. -1.
         21   -1    0    0  501  502 -0.00000000000E+00 -0.00000000000E+00 -0.11085736213E+03  0.11085736213E+03  0.00000000000E+00 0. -1.
         25    1    1    2    0    0  0.10044427065E+03  0.16781784304E+03  0.21958779304E+03  0.31952414431E+03  0.12500000000E+03 0.  0.
         25    1    1    2    0    0  0.48510798757E+02 -0.61860886442E+02  0.17470470825E+03  0.22875052339E+03  0.12500000000E+03 0.  0.
         25    1    1    2    0    0 -0.14895506940E+03 -0.10595695659E+03  0.32814197023E+03  0.39587452807E+03  0.12500000000E+03 0.  0.
</event>
<event>
 5    0  0.5720942E-005  0.2243465E+03  0.7546771E-02  0.1130683E+00
         21   -1    0    0  502  501  0.00000000000E+00  0.00000000000E+00  0.15042896514E+03  0.15042896514E+03  0.00000000000E+00 0. -1.
         21   -1    0    0  501  502 -0.00000000000E+00 -0.00000000000E+00 -0.33458565461E+03  0.33458565461E+03  0.00000000000E+00 0. -1.
         25    1    1    2    0    0  0.11548273041E+02 -0.92533828176E+01 -0.11074239276E+03  0.16765400460E+03  0.12500000000E+03 0.  0.
         25    1    1    2    0    0 -0.38128363518E+02  0.44082436796E+02 -0.11388212630E+03  0.17886076157E+03  0.12500000000E+03 0.  0.
         25    1    1    2    0    0  0.26580090477E+02 -0.34829053978E+02  0.40467829581E+02  0.13849985358E+03  0.12500000000E+03 0.  0.
</event>
<event>
 5    0  0.5720942E-005  0.4306180E+03  0.7546771E-02  0.1033665E+00
         21   -1    0    0  502  501  0.00000000000E+00  0.00000000000E+00  0.20806140293E+03  0.20806140293E+03  0.00000000000E+00 0. -1.
         21   -1    0    0  501  502 -0.00000000000E+00 -0.00000000000E+00 -0.89123639941E+03  0.89123639941E+03  0.00000000000E+00 0. -1.
         25    1    1    2    0    0 -0.20873252654E+03 -0.18998911209E+03 -0.93431122013E+02  0.32252054959E+03  0.12500000000E+03 0.  0.
         25    1    1    2    0    0 -0.37194810777E+02  0.13754349399E+02 -0.40277326095E+02  0.13718563727E+03  0.12500000000E+03 0.  0.
         25    1    1    2    0    0  0.24592733731E+03  0.17623476269E+03 -0.54946654836E+03  0.63959161548E+03  0.12500000000E+03 0.  0.
</event>
<event>
 5    0  0.5720942E-005  0.2076074E+03  0.7546771E-02  0.1143475E+00
         21   -1    0    0  502  501  0.00000000000E+00  0.00000000000E+00  0.17940997131E+03  0.17940997131E+03  0.00000000000E+00 0. -1.
         21   -1    0    0  501  502 -0.00000000000E+00 -0.00000000000E+00 -0.24023653999E+03  0.24023653999E+03  0.00000000000E+00 0. -1.
         25    1    1    2    0    0  0.11716638896E+01 -0.51693955980E+02  0.78270644404E+01  0.13549871150E+03  0.12500000000E+03 0.  0.
         25    1    1    2    0    0 -0.40345555600E+02  0.10054654762E+02 -0.64389465108E+02  0.14662831635E+03  0.12500000000E+03 0.  0.
         25    1    1    2    0    0  0.39173891710E+02  0.41639301218E+02 -0.42641680172E+01  0.13751948344E+03  0.12500000000E+03 0.  0.
</event>
<event>
 5    0  0.5720942E-005  0.3308855E+03  0.7546771E-02  0.1070746E+00
         21   -1    0    0  502  501  0.00000000000E+00  0.00000000000E+00  0.11184466136E+03  0.11184466136E+03  0.00000000000E+00 0.  1.
         21   -1    0    0  501  502 -0.00000000000E+00 -0.00000000000E+00 -0.97890433662E+03  0.97890433662E+03  0.00000000000E+00 0. -1.
         25    1    1    2    0    0  0.17928619792E+03 -0.85441119966E+02 -0.29079743660E+03  0.37367348699E+03  0.12500000000E+03 0.  0.
         25    1    1    2    0    0 -0.10678174690E+03  0.32479964210E+02 -0.59412820542E+02  0.17779812370E+03  0.12500000000E+03 0.  0.
         25    1    1    2    0    0 -0.72504451023E+02  0.52961155757E+02 -0.51684941812E+03  0.53927738729E+03  0.12500000000E+03 0.  0.
</event>
<event>
 5    0  0.5720942E-005  0.2817075E+03  0.7546771E-02  0.1094760E+00
         21   -1    0    0  502  501  0.00000000000E+00  0.00000000000E+00  0.32317577646E+03  0.32317577646E+03  0.00000000000E+00 0. -1.
         21   -1    0    0  501  502 -0.00000000000E+00 -0.00000000000E+00 -0.24556013904E+03  0.24556013904E+03  0.00000000000E+00 0. -1.
         25    1    1    2    0    0  0.55105158881E+02  0.44713248606E+02  0.14393595379E+02  0.14445770566E+03  0.12500000000E+03 0.  0.
         25    1    1    2    0    0 -0.80114197652E+02 -0.17065207407E+03 -0.19249753324E+02  0.22701534762E+03  0.12500000000E+03 0.  0.
         25    1    1    2    0    0  0.25009038771E+02  0.12593882547E+03  0.82471795365E+02  0.19726286222E+03  0.12500000000E+03 0.  0.
</event>
<event>
 5    0  0.5720942E-005  0.2361308E+03  0.7546771E-02  0.1122398E+00
         21   -1    0    0  502  501  0.00000000000E+00  0.00000000000E+00  0.30178816034E+03  0.30178816034E+03  0.00000000000E+00 0. -1.
         21   -1    0    0  501  502 -0.00000000000E+00 -0.00000000000E+00 -0.18475790185E+03  0.18475790185E+03  0.00000000000E+00 0. -1.
         25    1    1    2    0    0  0.31668124869E+02 -0.16155244362E+02  0.64170280158E+02  0.14493683765E+03  0.12500000000E+03 0.  0.
         25    1    1    2    0    0 -0.23789497710E+02  0.11484465972E+03 -0.63226116348E+01  0.17152320976E+03  0.12500000000E+03 0.  0.
         25    1    1    2    0    0 -0.78786271590E+01 -0.98689415361E+02  0.59182589963E+02  0.17008601478E+03  0.12500000000E+03 0.  0.
</event>
<event>
 5    0  0.5720942E-005  0.5113639E+03  0.7546771E-02  0.1010855E+00
         21   -1    0    0  502  501  0.00000000000E+00  0.00000000000E+00  0.17617820102E+03  0.17617820102E+03  0.00000000000E+00 0.  1.
         21   -1    0    0  501  502 -0.00000000000E+00 -0.00000000000E+00 -0.14842532880E+04  0.14842532880E+04  0.00000000000E+00 0.  1.
         25    1    1    2    0    0  0.91397778091E+02  0.10815837456E+03 -0.98271327100E+03  0.10007008348E+04  0.12500000000E+03 0.  0.
         25    1    1    2    0    0 -0.21643675435E+03 -0.50983668659E+02 -0.38739012434E+03  0.46383220193E+03  0.12500000000E+03 0.  0.
         25    1    1    2    0    0  0.12503897626E+03 -0.57174705905E+02  0.62028308329E+02  0.19589845230E+03  0.12500000000E+03 0.  0.
</event>
<event>
 5    0  0.5720942E-005  0.3396843E+03  0.7546771E-02  0.1066930E+00
         21   -1    0    0  502  501  0.00000000000E+00  0.00000000000E+00  0.27857107456E+03  0.27857107456E+03  0.00000000000E+00 0. -1.
         21   -1    0    0  501  502 -0.00000000000E+00 -0.00000000000E+00 -0.41420451595E+03  0.41420451595E+03  0.00000000000E+00 0. -1.
         25    1    1    2    0    0  0.22610338574E+03 -0.48092500335E+02 -0.59700669083E+02  0.26948988761E+03  0.12500000000E+03 0.  0.
         25    1    1    2    0    0  0.46898789334E+01  0.55721189798E+02  0.29926399491E+02  0.14016930956E+03  0.12500000000E+03 0.  0.
         25    1    1    2    0    0 -0.23079326468E+03 -0.76286894631E+01 -0.10585917180E+03  0.28311639334E+03  0.12500000000E+03 0.  0.
</event>
<event>
 5    0  0.5720942E-005  0.3239789E+03  0.7546771E-02  0.1073833E+00
         21   -1    0    0  502  501  0.00000000000E+00  0.00000000000E+00  0.22499739744E+03  0.22499739744E+03  0.00000000000E+00 0.  1.
         21   -1    0    0  501  502 -0.00000000000E+00 -0.00000000000E+00 -0.46650459394E+03  0.46650459394E+03  0.00000000000E+00 0.  1.
         25    1    1    2    0    0 -0.83103709891E+02  0.11432666148E+03 -0.86547682163E+02  0.20758688160E+03  0.12500000000E+03 0.  0.
         25    1    1    2    0    0  0.73221909477E+02 -0.83202866959E+02 -0.26563181786E+03  0.31379838712E+03  0.12500000000E+03 0.  0.
         25    1    1    2    0    0  0.98818004139E+01 -0.31123794524E+02  0.11067230352E+03  0.17011672267E+03  0.12500000000E+03 0.  0.
</event>
<event>
 5    0  0.5720942E-005  0.3904628E+03  0.7546771E-02  0.1047133E+00
         21   -1    0    0  502  501  0.00000000000E+00  0.00000000000E+00  0.64411839309E+03  0.64411839309E+03  0.00000000000E+00 0. -1.
         21   -1    0    0  501  502 -0.00000000000E+00 -0.00000000000E+00 -0.23669751781E+03  0.23669751781E+03  0.00000000000E+00 0. -1.
         25    1    1    2    0    0  0.91364558169E+02 -0.31481306203E+01 -0.49669891033E+02  0.16263299570E+03  0.12500000000E+03 0.  0.
         25    1    1    2    0    0 -0.11903815313E+03  0.20869078996E+03  0.37483989594E+03  0.46244121280E+03  0.12500000000E+03 0.  0.
         25    1    1    2    0    0  0.27673594966E+02 -0.20554265934E+03  0.82250870380E+02  0.25574170240E+03  0.12500000000E+03 0.  0.
</event>
<event>
 5    0  0.5720942E-005  0.3260190E+03  0.7546771E-02  0.1072912E+00
         21   -1    0    0  502  501  0.00000000000E+00  0.00000000000E+00  0.19203627066E+03  0.19203627066E+03  0.00000000000E+00 0.  1.
         21   -1    0    0  501  502 -0.00000000000E+00 -0.00000000000E+00 -0.55348071014E+03  0.55348071014E+03  0.00000000000E+00 0.  1.
         25    1    1    2    0    0  0.21169422791E+03 -0.77703843845E+02 -0.20825642852E+03  0.33143336208E+03  0.12500000000E+03 0.  0.
         25    1    1    2    0    0 -0.19675455168E+03  0.25742897672E-01 -0.12123635836E+03  0.26274628229E+03  0.12500000000E+03 0.  0.
         25    1    1    2    0    0 -0.14939676231E+02  0.77678100947E+02 -0.31951652610E+02  0.15133733643E+03  0.12500000000E+03 0.  0.
</event>
<event>
 5    0  0.5720942E-005  0.3432916E+03  0.7546771E-02  0.1065403E+00
         21   -1    0    0  502  501  0.00000000000E+00  0.00000000000E+00  0.11029797550E+03  0.11029797550E+03  0.00000000000E+00 0.  1.
         21   -1    0    0  501  502 -0.00000000000E+00 -0.00000000000E+00 -0.10684616166E+04  0.10684616166E+04  0.00000000000E+00 0.  1.
         25    1    1    2    0    0 -0.10973197871E+03  0.60661120936E+02 -0.31065298505E+03  0.35756279989E+03  0.12500000000E+03 0.  0.
         25    1    1    2    0    0  0.19173740084E+03  0.92640056093E+01 -0.10107448451E+03  0.25037991952E+03  0.12500000000E+03 0.  0.
         25    1    1    2    0    0 -0.82005422129E+02 -0.69925126546E+02 -0.54643617156E+03  0.57081687271E+03  0.12500000000E+03 0.  0.
</event>
<event>
 5    0  0.7674769E-005  0.3792994E+03  0.7546771E-02  0.1051193E+00
         21   -1    0    0  502  501  0.00000000000E+00  0.00000000000E+00  0.61149008465E+03  0.61149008465E+03  0.00000000000E+00 0. -1.
         21   -1    0    0  501  502 -0.00000000000E+00 -0.00000000000E+00 -0.23527456652E+03  0.23527456652E+03  0.00000000000E+00 0. -1.
         25    1    1    2    0    0  0.20490751949E+03 -0.12021742975E+03  0.14401891693E+03  0.30464039521E+03  0.12500000000E+03 0.  0.
         25    1    1    2    0    0 -0.13362005216E+03  0.40174861318E+02  0.30827910081E+03  0.36073444778E+03  0.12500000000E+03 0.  0.
         25    1    1    2    0    0 -0.71287467335E+02  0.80042568434E+02 -0.76082499614E+02  0.18138980817E+03  0.12500000000E+03 0.  0.
</event>
<event>
 5    0  0.5720942E-005  0.5509826E+03  0.7546771E-02  0.1001267E+00
         21   -1    0    0  502  501  0.00000000000E+00  0.00000000000E+00  0.88511757743E+03  0.88511757743E+03  0.00000000000E+00 0. -1.
         21   -1    0    0  501  502 -0.00000000000E+00 -0.00000000000E+00 -0.34298476280E+03  0.34298476280E+03  0.00000000000E+00 0. -1.
         25    1    1    2    0    0  0.21005673817E+03 -0.31600823009E+03  0.75078049418E+02  0.40650553285E+03  0.12500000000E+03 0.  0.
         25    1    1    2    0    0 -0.10630979362E+02 -0.11793272415E+03  0.18631915019E+03  0.25369464100E+03  0.12500000000E+03 0.  0.
         25    1    1    2    0    0 -0.19942575881E+03  0.43394095423E+03  0.28073561503E+03  0.56790216638E+03  0.12500000000E+03 0.  0.
</event>
<event>
 5    0  0.5720942E-005  0.3298481E+03  0.7546771E-02  0.1071204E+00
         21   -1    0    0  502  501  0.00000000000E+00  0.00000000000E+00  0.95371939278E+02  0.95371939278E+02  0.00000000000E+00 0. -1.
         21   -1    0    0  501  502 -0.00000000000E+00 -0.00000000000E+00 -0.11407942325E+04  0.11407942325E+04  0.00000000000E+00 0. -1.
         25    1    1    2    0    0  0.11409640645E+03 -0.18201517769E+03 -0.49136267999E+03  0.55064489298E+03  0.12500000000E+03 0.  0.
         25    1    1    2    0    0  0.34062281829E+02  0.66134567203E+02 -0.35809793261E+03  0.38651409982E+03  0.12500000000E+03 0.  0.
         25    1    1    2    0    0 -0.14815868828E+03  0.11588061049E+03 -0.19596168058E+03  0.29900717894E+03  0.12500000000E+03 0.  0.
</event>
<event>
 5    0  0.5720942E-005  0.2620849E+03  0.7546771E-02  0.1105897E+00
         21   -1    0    0  502  501  0.00000000000E+00  0.00000000000E+00  0.21553504898E+03  0.21553504898E+03  0.00000000000E+00 0. -1.
         21   -1    0    0  501  502 -0.00000000000E+00 -0.00000000000E+00 -0.31868837198E+03  0.31868837198E+03  0.00000000000E+00 0. -1.
         25    1    1    2    0    0 -0.57738128086E+02 -0.93302251418E+02 -0.53053504090E+02  0.17458143043E+03  0.12500000000E+03 0.  0.
         25    1    1    2    0    0 -0.78471018916E+02 -0.99808164629E+00 -0.75186379146E+01  0.14778439327E+03  0.12500000000E+03 0.  0.
         25    1    1    2    0    0  0.13620914700E+03  0.94300333064E+02 -0.42581180993E+02  0.21185759726E+03  0.12500000000E+03 0.  0.
</event>
<event>
 5    0  0.5720942E-005  0.2428584E+03  0.7546771E-02  0.1117903E+00
         21   -1    0    0  502  501  0.00000000000E+00  0.00000000000E+00  0.10527219866E+03  0.10527219866E+03  0.00000000000E+00 0. -1.
         21   -1    0    0  501  502 -0.00000000000E+00 -0.00000000000E+00 -0.56026381000E+03  0.56026381000E+03  0.00000000000E+00 0. -1.
         25    1    1    2    0    0 -0.97214159561E+02 -0.43678510274E+01 -0.17674633062E+03  0.23734771187E+03  0.12500000000E+03 0.  0.
         25    1    1    2    0    0  0.13016377444E+03  0.51582099043E+02 -0.15416707538E+03  0.24289052730E+03  0.12500000000E+03 0.  0.
         25    1    1    2    0    0 -0.32949614883E+02 -0.47214248015E+02 -0.12407820533E+03  0.18529776948E+03  0.12500000000E+03 0.  0.
</event>
<event>
 5    0  0.5720942E-005  0.3311923E+03  0.7546771E-02  0.1070611E+00
         21   -1    0    0  502  501  0.00000000000E+00  0.00000000000E+00  0.38190034404E+03  0.38190034404E+03  0.00000000000E+00 0.  1.
         21   -1    0    0  501  502 -0.00000000000E+00 -0.00000000000E+00 -0.28721719346E+03  0.28721719346E+03  0.00000000000E+00 0.  1.
         25    1    1    2    0    0  0.46169738683E+02  0.10168947485E+03  0.47426021520E+02  0.17420281738E+03  0.12500000000E+03 0.  0.
         25    1    1    2    0    0  0.14417514304E+03  0.66064783682E+02  0.63304973697E+02  0.21162123525E+03  0.12500000000E+03 0.  0.
         25    1    1    2    0    0 -0.19034488172E+03 -0.16775425853E+03 -0.16047844630E+02  0.28329348487E+03  0.12500000000E+03 0.  0.
</event>
<event>
 5    0  0.5720942E-005  0.2103135E+03  0.7546771E-02  0.1141318E+00
         21   -1    0    0  502  501  0.00000000000E+00  0.00000000000E+00  0.47099574468E+03  0.47099574468E+03  0.00000000000E+00 0. -1.
         21   -1    0    0  501  502 -0.00000000000E+00 -0.00000000000E+00 -0.93911210331E+02  0.93911210331E+02  0.00000000000E+00 0. -1.
         25    1    1    2    0    0  0.35913944803E+02 -0.14919478221E+01  0.86487787855E+02  0.15619594997E+03  0.12500000000E+03 0.  0.
         25    1    1    2    0    0 -0.50432089531E+02  0.58724224344E+02  0.17451899239E+03  0.22819686432E+03  0.12500000000E+03 0.  0.
         25    1    1    2    0    0  0.14518144728E+02 -0.57232276522E+02  0.11607775410E+03  0.18051414072E+03  0.12500000000E+03 0.  0.
</event>
<event>
 5    0  0.5720942E-005  0.3031710E+03  0.7546771E-02  0.1083666E+00
         21   -1    0    0  502  501  0.00000000000E+00  0.00000000000E+00  0.63602228027E+02  0.63602228027E+02  0.00000000000E+00 0.  1.
         21   -1    0    0  501  502 -0.00000000000E+00 -0.00000000000E+00 -0.14451171563E+04  0.14451171563E+04  0.00000000000E+00 0.  1.
         25    1    1    2    0    0  0.50202638924E+02  0.18929213401E+03 -0.44606865823E+03  0.50294538949E+03  0.12500000000E+03 0.  0.
         25    1    1    2    0    0  0.34681728198E+02 -0.82766927888E+02 -0.23164234640E+03  0.27809416259E+03  0.12500000000E+03 0.  0.
         25    1    1    2    0    0 -0.84884367122E+02 -0.10652520612E+03 -0.70380392367E+03  0.72767983227E+03  0.12500000000E+03 0.  0.
</event>
<event>
 5    0  0.5720942E-005  0.3800755E+03  0.7546771E-02  0.1050906E+00
         21   -1    0    0  502  501  0.00000000000E+00  0.00000000000E+00  0.76005101468E+03  0.76005101468E+03  0.00000000000E+00 0.  1.
         21   -1    0    0  501  502 -0.00000000000E+00 -0.00000000000E+00 -0.19006271011E+03  0.19006271011E+03  0.00000000000E+00 0.  1.
         25    1    1    2    0    0 -0.37832387906E+02  0.92111451494E+02 -0.32916006910E+01  0.15984881515E+03  0.12500000000E+03 0.  0.
         25    1    1    2    0    0  0.90225838847E+02 -0.25861086990E+03  0.20587761932E+03  0.36473398273E+03  0.12500000000E+03 0.  0.
         25    1    1    2    0    0 -0.52393450941E+02  0.16649941841E+03  0.36740228595E+03  0.42553092690E+03  0.12500000000E+03 0.  0.
</event>
<event>
 5    0  0.5720942E-005  0.4058488E+03  0.7546771E-02  0.1041773E+00
         21   -1    0    0  502  501  0.00000000000E+00  0.00000000000E+00  0.99465046673E+03  0.99465046673E+03  0.00000000000E+00 0. -1.
         21   -1    0    0  501  502 -0.00000000000E+00 -0.00000000000E+00 -0.16559915596E+03  0.16559915596E+03  0.00000000000E+00 0. -1.
         25    1    1    2    0    0 -0.17751443739E+03 -0.20321950424E+03  0.15763561848E+03  0.33657618840E+03  0.12500000000E+03 0.  0.
         25    1    1    2    0    0  0.22159738497E+03  0.22771317452E+03  0.50340528936E+03  0.60827672669E+03  0.12500000000E+03 0.  0.
         25    1    1    2    0    0 -0.44082947587E+02 -0.24493670288E+02  0.16801040294E+03  0.21539670761E+03  0.12500000000E+03 0.  0.
</event>
<event>
 5    0  0.5720942E-005  0.3176885E+03  0.7546771E-02  0.1076718E+00
         21   -1    0    0  502  501  0.00000000000E+00  0.00000000000E+00  0.31527620249E+03  0.31527620249E+03  0.00000000000E+00 0.  1.
         21   -1    0    0  501  502 -0.00000000000E+00 -0.00000000000E+00 -0.32011920145E+03  0.32011920145E+03  0.00000000000E+00 0.  1.
         25    1    1    2    0    0 -0.15730348429E+02 -0.26675559604E+02  0.47041583698E+02  0.13710193266E+03  0.12500000000E+03 0.  0.
         25    1    1    2    0    0  0.21233053424E+03 -0.11453911962E+02 -0.82843767129E+02  0.26019903463E+03  0.12500000000E+03 0.  0.
         25    1    1    2    0    0 -0.19660018581E+03  0.38129471566E+02  0.30959184473E+02  0.23809443665E+03  0.12500000000E+03 0.  0.
</event>
<event>
 5    0  0.5720942E-005  0.3895488E+03  0.7546771E-02  0.1047460E+00
         21   -1    0    0  502  501  0.00000000000E+00  0.00000000000E+00  0.16661465162E+04  0.16661465162E+04  0.00000000000E+00 0.  1.
         21   -1    0    0  501  502 -0.00000000000E+00 -0.00000000000E+00 -0.91077377165E+02  0.91077377165E+02  0.00000000000E+00 0.  1.
         25    1    1    2    0    0 -0.13741390241E+03  0.46965560782E+02  0.99845100349E+03  0.10166699321E+04  0.12500000000E+03 0.  0.
         25    1    1    2    0    0 -0.46146983537E+02  0.35896866735E+02  0.45232624997E+03  0.47290819991E+03  0.12500000000E+03 0.  0.
         25    1    1    2    0    0  0.18356088595E+03 -0.82862427516E+02  0.12429188556E+03  0.26764576133E+03  0.12500000000E+03 0.  0.
</event>
<event>
 5    0  0.5720942E-005  0.2062730E+03  0.7546771E-02  0.1144552E+00
         21   -1    0    0  502  501  0.00000000000E+00  0.00000000000E+00  0.16249923433E+04  0.16249923433E+04  0.00000000000E+00 0.  1.
         21   -1    0    0  501  502 -0.00000000000E+00 -0.00000000000E+00 -0.26183848524E+02  0.26183848524E+02  0.00000000000E+00 0.  1.
         25    1    1    2    0    0 -0.61871923176E+02  0.19160096068E+02  0.63297608158E+03  0.64844349331E+03  0.12500000000E+03 0.  0.
         25    1    1    2    0    0 -0.23303597480E+01  0.50536592087E+01  0.39408385242E+03  0.41347073994E+03  0.12500000000E+03 0.  0.
         25    1    1    2    0    0  0.64202282924E+02 -0.24213755277E+02  0.57174856074E+03  0.58926195854E+03  0.12500000000E+03 0.  0.
</event>
<event>
 5    0  0.5720942E-005  0.2553049E+03  0.7546771E-02  0.1109997E+00
         21   -1    0    0  502  501  0.00000000000E+00  0.00000000000E+00  0.20001986824E+03  0.20001986824E+03  0.00000000000E+00 0. -1.
         21   -1    0    0  501  502 -0.00000000000E+00 -0.00000000000E+00 -0.32587058966E+03  0.32587058966E+03  0.00000000000E+00 0. -1.
         25    1    1    2    0    0 -0.14064103426E+03  0.51862777414E+02 -0.30953513307E+02  0.19761773246E+03  0.12500000000E+03 0.  0.
         25    1    1    2    0    0  0.81874632068E+02 -0.57271774588E+02 -0.10215256521E+03  0.18985167400E+03  0.12500000000E+03 0.  0.
         25    1    1    2    0    0  0.58766402188E+02  0.54089971745E+01  0.72553570960E+01  0.13842105145E+03  0.12500000000E+03 0.  0.
</event>
<event>
 5    0  0.5720942E-005  0.2282196E+03  0.7546771E-02  0.1127899E+00
         21   -1    0    0  502  501  0.00000000000E+00  0.00000000000E+00  0.10935804550E+04  0.10935804550E+04  0.00000000000E+00 0. -1.
         21   -1    0    0  501  502 -0.00000000000E+00 -0.00000000000E+00 -0.47627204229E+02  0.47627204229E+02  0.00000000000E+00 0. -1.
         25    1    1    2    0    0  0.22976972841E+02 -0.25952129691E+02  0.32025985506E+03  0.34553267440E+03  0.12500000000E+03 0.  0.
         25    1    1    2    0    0  0.88744236149E+02  0.16445656170E+01  0.40386843285E+03  0.43198721636E+03  0.12500000000E+03 0.  0.
         25    1    1    2    0    0 -0.11172120899E+03  0.24307564074E+02  0.32182496282E+03  0.36368776843E+03  0.12500000000E+03 0.  0.
</event>
<event>
 5    0  0.5720942E-005  0.3008800E+03  0.7546771E-02  0.1084802E+00
         21   -1    0    0  502  501  0.00000000000E+00  0.00000000000E+00  0.42547221797E+03  0.42547221797E+03  0.00000000000E+00 0.  1.
         21   -1    0    0  501  502 -0.00000000000E+00 -0.00000000000E+00 -0.21277251427E+03  0.21277251427E+03  0.00000000000E+00 0.  1.
         25    1    1    2    0    0 -0.41018363069E+02  0.96671136904E+02 -0.98444085742E+02  0.19064116249E+03  0.12500000000E+03 0.  0.
         25    1    1    2    0    0  0.95015926003E+02 -0.69694517463E+02  0.22912749101E+03  0.28637346088E+03  0.12500000000E+03 0.  0.
         25    1    1    2    0    0 -0.53997562934E+02 -0.26976619441E+02  0.82016298429E+02  0.16123010887E+03  0.12500000000E+03 0.  0.
</event>
<event>
 5    0  0.5720942E-005  0.3295626E+03  0.7546771E-02  0.1071331E+00
         21   -1    0    0  502  501  0.00000000000E+00  0.00000000000E+00  0.41026361045E+03  0.41026361045E+03  0.00000000000E+00 0.  1.
         21   -1    0    0  501  502 -0.00000000000E+00 -0.00000000000E+00 -0.26473590173E+03  0.26473590173E+03  0.00000000000E+00 0.  1.
         25    1    1    2    0    0 -0.17487544530E+03  0.13271838544E+03 -0.42395025159E+02  0.25615996830E+03  0.12500000000E+03 0.  0.
         25    1    1    2    0    0  0.10144198636E+01 -0.76346554145E+01  0.78315603005E+02  0.14770799127E+03  0.12500000000E+03 0.  0.
         25    1    1    2    0    0  0.17386102544E+03 -0.12508373002E+03  0.10960713087E+03  0.27113155261E+03  0.12500000000E+03 0.  0.
</event>
<event>
 5    0  0.5720942E-005  0.2120181E+03  0.7546771E-02  0.1139978E+00
         21   -1    0    0  502  501  0.00000000000E+00  0.00000000000E+00  0.13861458139E+03  0.13861458139E+03  0.00000000000E+00 0. -1.
         21   -1    0    0  501  502 -0.00000000000E+00 -0.00000000000E+00 -0.32429262154E+03  0.32429262154E+03  0.00000000000E+00 0. -1.
         25    1    1    2    0    0  0.86135119422E+01 -0.72950907708E+02 -0.34861340173E+02  0.14911854533E+03  0.12500000000E+03 0.  0.
         25    1    1    2    0    0 -0.39310583512E+02  0.47594094104E+02 -0.10608446957E+03  0.17518400171E+03  0.12500000000E+03 0.  0.
         25    1    1    2    0    0  0.30697071570E+02  0.25356813604E+02 -0.44732230401E+02  0.13860465589E+03  0.12500000000E+03 0.  0.
</event>
<event>
 5    0  0.5720942E-005  0.2664910E+03  0.7546771E-02  0.1103305E+00
         21   -1    0    0  502  501  0.00000000000E+00  0.00000000000E+00  0.25567606170E+03  0.25567606170E+03  0.00000000000E+00 0.  1.
         21   -1    0    0  501  502 -0.00000000000E+00 -0.00000000000E+00 -0.27776343234E+03  0.27776343234E+03  0.00000000000E+00 0.  1.
         25    1    1    2    0    0  0.59610070528E+02  0.35338682473E+02  0.57255771966E+02  0.15396560139E+03  0.12500000000E+03 0.  0.
         25    1    1    2    0    0 -0.18029598006E+02 -0.10075959508E+03 -0.14621420224E+03  0.21790171028E+03  0.12500000000E+03 0.  0.
         25    1    1    2    0    0 -0.41580472522E+02  0.65420912606E+02  0.66871059635E+02  0.16157218238E+03  0.12500000000E+03 0.  0.
</event>
<event>
 5    0  0.5720942E-005  0.2610201E+03  0.7546771E-02  0.1106532E+00
         21   -1    0    0  502  501  0.00000000000E+00  0.00000000000E+00  0.72220132044E+03  0.72220132044E+03  0.00000000000E+00 0.  1.
         21   -1    0    0  501  502 -0.00000000000E+00 -0.00000000000E+00 -0.94338673571E+02  0.94338673571E+02  0.00000000000E+00 0.  1.
         25    1    1    2    0    0 -0.91088530875E+02 -0.60253256853E+02  0.10706442387E+03  0.19752307783E+03  0.12500000000E+03 0.  0.
         25    1    1    2    0    0  0.11163170240E+03  0.29854342849E-02  0.15915369749E+03  0.23112017743E+03  0.12500000000E+03 0.  0.
         25    1    1    2    0    0 -0.20543171524E+02  0.60250271418E+02  0.36164452551E+03  0.38789673875E+03  0.12500000000E+03 0.  0.
</event>
<event>
 5    0  0.6291674E-005  0.2926548E+03  0.7546771E-02  0.1088971E+00
         21   -1    0    0  502  501  0.00000000000E+00  0.00000000000E+00  0.86213972964E+02  0.86213972964E+02  0.00000000000E+00 0.  1.
         21   -1    0    0  501  502 -0.00000000000E+00 -0.00000000000E+00 -0.99342164623E+03  0.99342164623E+03  0.00000000000E+00 0.  1.
         25    1    1    2    0    0  0.12023158700E+02 -0.31136078290E+02 -0.49893169755E+03  0.51543365290E+03  0.12500000000E+03 0.  0.
         25    1    1    2    0    0 -0.12980103854E+03  0.30858842738E+02 -0.32599721106E+03  0.37376430996E+03  0.12500000000E+03 0.  0.
         25    1    1    2    0    0  0.11777787984E+03  0.27723555154E+00 -0.82278764652E+02  0.19043765634E+03  0.12500000000E+03 0.  0.
</event>
<event>
 5    0  0.5720942E-005  0.2425499E+03  0.7546771E-02  0.1118106E+00
         21   -1    0    0  502  501  0.00000000000E+00  0.00000000000E+00  0.10922197943E+03  0.10922197943E+03  0.00000000000E+00 0. -1.
         21   -1    0    0  501  502 -0.00000000000E+00 -0.00000000000E+00 -0.53863222020E+03  0.53863222020E+03  0.00000000000E+00 0. -1.
         25    1    1    2    0    0  0.78898892477E+02  0.19294920210E+02 -0.46406966223E+02  0.15612794655E+03  0.12500000000E+03 0.  0.
         25    1    1    2    0    0  0.57087238045E+01  0.11741059286E+02 -0.72513357108E+02  0.14509868697E+03  0.12500000000E+03 0.  0.
         25    1    1    2    0    0 -0.84607616281E+02 -0.31035979497E+02 -0.31048991744E+03  0.34662756611E+03  0.12500000000E+03 0.  0.
</event>
<event>
 5    0  0.5720942E-005  0.2986828E+03  0.7546771E-02  0.1085901E+00
         21   -1    0    0  502  501  0.00000000000E+00  0.00000000000E+00  0.12639481356E+03  0.12639481356E+03  0.00000000000E+00 0. -1.
         21   -1    0    0  501  502 -0.00000000000E+00 -0.00000000000E+00 -0.70581530890E+03  0.70581530890E+03  0.00000000000E+00 0. -1.
         25    1    1    2    0    0 -0.12994596820E+03 -0.99183702438E+02 -0.39249845496E+03  0.44317423055E+03  0.12500000000E+03 0.  0.
         25    1    1    2    0    0  0.46593906105E+02 -0.28973649794E+02 -0.38003672304E+02  0.14170301188E+03  0.12500000000E+03 0.  0.
         25    1    1    2    0    0  0.83352062091E+02  0.12815735223E+03 -0.14891836808E+03  0.24733288002E+03  0.12500000000E+03 0.  0.
</event>
<event>
 5    0  0.5720942E-005  0.2730951E+03  0.7546771E-02  0.1099521E+00
         21   -1    0    0  502  501  0.00000000000E+00  0.00000000000E+00  0.64671342959E+03  0.64671342959E+03  0.00000000000E+00 0. -1.
         21   -1    0    0  501  502 -0.00000000000E+00 -0.00000000000E+00 -0.11532302378E+03  0.11532302378E+03  0.00000000000E+00 0. -1.
         25    1    1    2    0    0  0.24320826341E+01 -0.17452485115E+02  0.94704566106E+01  0.12659065452E+03  0.12500000000E+03 0.  0.
         25    1    1    2    0    0 -0.74403252452E+02  0.94880330672E+02  0.15151735769E+03  0.23047913312E+03  0.12500000000E+03 0.  0.
         25    1    1    2    0    0  0.71971169818E+02 -0.77427845557E+02  0.37040259151E+03  0.40496666573E+03  0.12500000000E+03 0.  0.
</event>
<event>
 5    0  0.5720942E-005  0.3198549E+03  0.7546771E-02  0.1075716E+00
         21   -1    0    0  502  501  0.00000000000E+00  0.00000000000E+00  0.54212405693E+03  0.54212405693E+03  0.00000000000E+00 0. -1.
         21   -1    0    0  501  502 -0.00000000000E+00 -0.00000000000E+00 -0.18871542337E+03  0.18871542337E+03  0.00000000000E+00 0. -1.
         25    1    1    2    0    0  0.57317661095E+02 -0.14233380817E+03  0.25147303949E+03  0.32001236978E+03  0.12500000000E+03 0.  0.
         25    1    1    2    0    0 -0.78157827255E+02  0.11412094497E+03 -0.66699692131E+02  0.19800526501E+03  0.12500000000E+03 0.  0.
         25    1    1    2    0    0  0.20840166160E+02  0.28212863203E+02  0.16863528620E+03  0.21282184551E+03  0.12500000000E+03 0.  0.
</event>
<event>
 5    0  0.5720942E-005  0.2523200E+03  0.7546771E-02  0.1111847E+00
         21   -1    0    0  502  501  0.00000000000E+00  0.00000000000E+00  0.46299576949E+02  0.46299576949E+02  0.00000000000E+00 0.  1.
         21   -1    0    0  501  502 -0.00000000000E+00 -0.00000000000E+00 -0.13750745372E+04  0.13750745372E+04  0.00000000000E+00 0.  1.
         25    1    1    2    0    0 -0.28197795301E+02  0.10597125177E+03 -0.37151486608E+03  0.40702987308E+03  0.12500000000E+03 0.  0.
         25    1    1    2    0    0  0.24241232027E+02 -0.13946359059E+03 -0.40138283171E+03  0.44358866985E+03  0.12500000000E+03 0.  0.
         25    1    1    2    0    0  0.39565632743E+01  0.33492338827E+02 -0.55587726246E+03  0.57075557121E+03  0.12500000000E+03 0.  0.
</event>
<event>
 5    0  0.5720942E-005  0.2585575E+03  0.7546771E-02  0.1108013E+00
         21   -1    0    0  502  501  0.00000000000E+00  0.00000000000E+00  0.21718505479E+04  0.21718505479E+04  0.00000000000E+00 0.  1.
         21   -1    0    0  501  502 -0.00000000000E+00 -0.00000000000E+00 -0.30781105754E+02  0.30781105754E+02  0.00000000000E+00 0.  1.
         25    1    1    2    0    0  0.45173115121E+01 -0.74139019643E+02  0.54304424600E+03  0.56217350831E+03  0.12500000000E+03 0.  0.
         25    1    1    2    0    0  0.36696734994E+02 -0.11094826285E+02  0.23907883190E+03  0.27249483186E+03  0.12500000000E+03 0.  0.
         25    1    1    2    0    0 -0.41214046506E+02  0.85233845928E+02  0.13589463643E+04  0.13679633135E+04  0.12500000000E+03 0.  0.
</event>
<event>
 5    0  0.5720942E-005  0.2746305E+03  0.7546771E-02  0.1098658E+00
         21   -1    0    0  502  501  0.00000000000E+00  0.00000000000E+00  0.69524964784E+03  0.69524964784E+03  0.00000000000E+00 0.  1.
         21   -1    0    0  501  502 -0.00000000000E+00 -0.00000000000E+00 -0.10848173170E+03  0.10848173170E+03  0.00000000000E+00 0.  1.
         25    1    1    2    0    0 -0.19270798692E+02 -0.37193020956E+02  0.85953577569E+02  0.15737757778E+03  0.12500000000E+03 0.  0.
         25    1    1    2    0    0  0.15051997787E+03  0.93750819590E+02  0.23687601842E+03  0.32121757115E+03  0.12500000000E+03 0.  0.
         25    1    1    2    0    0 -0.13124917918E+03 -0.56557798634E+02  0.26393832015E+03  0.32513623062E+03  0.12500000000E+03 0.  0.
</event>
<event>
 5    0  0.5720942E-005  0.2286269E+03  0.7546771E-02  0.1127610E+00
         21   -1    0    0  502  501  0.00000000000E+00  0.00000000000E+00  0.24766611423E+03  0.24766611423E+03  0.00000000000E+00 0. -1.
         21   -1    0    0  501  502 -0.00000000000E+00 -0.00000000000E+00 -0.21105124677E+03  0.21105124677E+03  0.00000000000E+00 0. -1.
         25    1    1    2    0    0  0.10284951659E+03 -0.39805593452E+02  0.19990003973E+01  0.16670784125E+03  0.12500000000E+03 0.  0.
         25    1    1    2    0    0 -0.81921602396E+02  0.33424275814E+02 -0.18860441350E+02  0.15430180621E+03  0.12500000000E+03 0.  0.
         25    1    1    2    0    0 -0.20927914192E+02  0.63813176382E+01  0.53476308409E+02  0.13770771354E+03  0.12500000000E+03 0.  0.
</event>
<event>
 5    0  0.5720942E-005  0.2223451E+03  0.7546771E-02  0.1132147E+00
         21   -1    0    0  502  501  0.00000000000E+00  0.00000000000E+00  0.51230463190E+02  0.51230463190E+02  0.00000000000E+00 0.  1.
         21   -1    0    0  501  502 -0.00000000000E+00 -0.00000000000E+00 -0.96499880420E+03  0.96499880420E+03  0.00000000000E+00 0.  1.
         25    1    1    2    0    0 -0.35921923367E+02 -0.66537346240E+02 -0.18389955482E+03  0.23486517257E+03  0.12500000000E+03 0.  0.
         25    1    1    2    0    0  0.56255372701E+02  0.27581235593E+02 -0.28956492036E+03  0.32155595876E+03  0.12500000000E+03 0.  0.
         25    1    1    2    0    0 -0.20333449334E+02  0.38956110647E+02 -0.44030386583E+03  0.45980813605E+03  0.12500000000E+03 0.  0.
</event>
<event>
 5    0  0.5720942E-005  0.3440363E+03  0.7546771E-02  0.1065090E+00
         21   -1    0    0  502  501  0.00000000000E+00  0.00000000000E+00  0.43509853895E+03  0.43509853895E+03  0.00000000000E+00 0. -1.
         21   -1    0    0  501  502 -0.00000000000E+00 -0.00000000000E+00 -0.27203262929E+03  0.27203262929E+03  0.00000000000E+00 0. -1.
         25    1    1    2    0    0  0.72637584297E+02 -0.23848216655E+03  0.15857879067E+03  0.32081489253E+03  0.12500000000E+03 0.  0.
         25    1    1    2    0    0 -0.24247448452E+02  0.42425421854E+02 -0.48988777611E+02  0.14287321480E+03  0.12500000000E+03 0.  0.
         25    1    1    2    0    0 -0.48390135845E+02  0.19605674470E+03  0.53475896588E+02  0.24344306091E+03  0.12500000000E+03 0.  0.
</event>
<event>
 5    0  0.5720942E-005  0.2448268E+03  0.7546771E-02  0.1116618E+00
         21   -1    0    0  502  501  0.00000000000E+00  0.00000000000E+00  0.22160664820E+03  0.22160664820E+03  0.00000000000E+00 0.  1.
         21   -1    0    0  501  502 -0.00000000000E+00 -0.00000000000E+00 -0.27048007760E+03  0.27048007760E+03  0.00000000000E+00 0.  1.
         25    1    1    2    0    0 -0.39086376891E+02 -0.83245590058E+02  0.26870208982E+02  0.15749470230E+03  0.12500000000E+03 0.  0.
         25    1    1    2    0    0  0.95020136241E+02  0.37309641403E+01 -0.79832940101E+02  0.17618468920E+03  0.12500000000E+03 0.  0.
         25    1    1    2    0    0 -0.55933759350E+02  0.79514625918E+02  0.40893017124E+01  0.15840733429E+03  0.12500000000E+03 0.  0.
</event>
<event>
 5    0  0.5720942E-005  0.4138241E+03  0.7546771E-02  0.1039095E+00
         21   -1    0    0  502  501  0.00000000000E+00  0.00000000000E+00  0.29810671738E+03  0.29810671738E+03  0.00000000000E+00 0.  1.
         21   -1    0    0  501  502 -0.00000000000E+00 -0.00000000000E+00 -0.57445988175E+03  0.57445988175E+03  0.00000000000E+00 0.  1.
         25    1    1    2    0    0 -0.66400987884E+02 -0.11733267969E+03  0.21609331887E+02  0.18511621253E+03  0.12500000000E+03 0.  0.
         25    1    1    2    0    0 -0.24257461300E+03  0.27210181288E+02 -0.13013410863E+03  0.30355019859E+03  0.12500000000E+03 0.  0.
         25    1    1    2    0    0  0.30897560088E+03  0.90122498402E+02 -0.16782838763E+03  0.38390018801E+03  0.12500000000E+03 0.  0.
</event>
<event>
 5    0  0.5720942E-005  0.2707555E+03  0.7546771E-02  0.1100848E+00
         21   -1    0    0  502  501  0.00000000000E+00  0.00000000000E+00  0.19889809247E+04  0.19889809247E+04  0.00000000000E+00 0.  1.
         21   -1    0    0  501  502 -0.00000000000E+00 -0.00000000000E+00 -0.36857348712E+02  0.36857348712E+02  0.00000000000E+00 0.  1.
         25    1    1    2    0    0  0.99745553403E+02 -0.47634962477E+02  0.47231337053E+03  0.50092233436E+03  0.12500000000E+03 0.  0.
         25    1    1    2    0    0 -0.89583212685E+02  0.72179230573E+02  0.12539857887E+04  0.12654407737E+04  0.12500000000E+03 0.  0.
         25    1    1    2    0    0 -0.10162340717E+02 -0.24544268095E+02  0.22582441674E+03  0.25947516540E+03  0.12500000000E+03 0.  0.
</event>
<event>
 5    0  0.5720942E-005  0.3577695E+03  0.7546771E-02  0.1059471E+00
         21   -1    0    0  502  501  0.00000000000E+00  0.00000000000E+00  0.15747490163E+03  0.15747490163E+03  0.00000000000E+00 0. -1.
         21   -1    0    0  501  502 -0.00000000000E+00 -0.00000000000E+00 -0.81282186533E+03  0.81282186533E+03  0.00000000000E+00 0.  1.
         25    1    1    2    0    0  0.16538625546E+03 -0.18528768281E+03 -0.26422241974E+03  0.38356567363E+03  0.12500000000E+03 0.  0.
         25    1    1    2    0    0 -0.29304740355E+02  0.72233243391E+02 -0.91373878467E+01  0.14759709047E+03  0.12500000000E+03 0.  0.
         25    1    1    2    0    0 -0.13608151511E+03  0.11305443941E+03 -0.38198715612E+03  0.43913400285E+03  0.12500000000E+03 0.  0.
</event>
<event>
 5    0  0.5720942E-005  0.3113548E+03  0.7546771E-02  0.1079698E+00
         21   -1    0    0  502  501  0.00000000000E+00  0.00000000000E+00  0.22089203060E+03  0.22089203060E+03  0.00000000000E+00 0.  1.
         21   -1    0    0  501  502 -0.00000000000E+00 -0.00000000000E+00 -0.43886509947E+03  0.43886509947E+03  0.00000000000E+00 0. -1.
         25    1    1    2    0    0 -0.13743171691E+02  0.17110637331E+03 -0.43756959213E+02  0.21680852666E+03  0.12500000000E+03 0.  0.
         25    1    1    2    0    0 -0.10518577637E+03 -0.68172377580E+01 -0.10698559287E+03  0.19540071485E+03  0.12500000000E+03 0.  0.
         25    1    1    2    0    0  0.11892894806E+03 -0.16428913555E+03 -0.67230516790E+02  0.24754788857E+03  0.12500000000E+03 0.  0.
</event>
<event>
 5    0  0.5720942E-005  0.3699630E+03  0.7546771E-02  0.1054707E+00
         21   -1    0    0  502  501  0.00000000000E+00  0.00000000000E+00  0.59926665178E+03  0.59926665178E+03  0.00000000000E+00 0. -1.
         21   -1    0    0  501  502 -0.00000000000E+00 -0.00000000000E+00 -0.22840016840E+03  0.22840016840E+03  0.00000000000E+00 0. -1.
         25    1    1    2    0    0  0.20225814362E+03 -0.91200773610E+02  0.77100008278E+02  0.26607395409E+03  0.12500000000E+03 0.  0.
         25    1    1    2    0    0 -0.27718047213E+03  0.28165916481E+01  0.15226189199E+03  0.34006709790E+03  0.12500000000E+03 0.  0.
         25    1    1    2    0    0  0.74922328513E+02  0.88384181962E+02  0.14150458311E+03  0.22152576819E+03  0.12500000000E+03 0.  0.
</event>
<event>
 5    0  0.5720942E-005  0.3253686E+03  0.7546771E-02  0.1073205E+00
         21   -1    0    0  502  501  0.00000000000E+00  0.00000000000E+00  0.81853418788E+03  0.81853418788E+03  0.00000000000E+00 0. -1.
         21   -1    0    0  501  502 -0.00000000000E+00 -0.00000000000E+00 -0.12933454987E+03  0.12933454987E+03  0.00000000000E+00 0. -1.
         25    1    1    2    0    0 -0.14537388534E+03 -0.30905486958E+02  0.54512417773E+03  0.57868306076E+03  0.12500000000E+03 0.  0.
         25    1    1    2    0    0  0.10687298397E+03 -0.53293686520E+02  0.28078378288E+02  0.17514407513E+03  0.12500000000E+03 0.  0.
         25    1    1    2    0    0  0.38500901367E+02  0.84199173478E+02  0.11599708199E+03  0.19404160185E+03  0.12500000000E+03 0.  0.
</event>
<event>
 5    0  0.5720942E-005  0.3084983E+03  0.7546771E-02  0.1081068E+00
         21   -1    0    0  502  501  0.00000000000E+00  0.00000000000E+00  0.14219129541E+04  0.14219129541E+04  0.00000000000E+00 0. -1.
         21   -1    0    0  501  502 -0.00000000000E+00 -0.00000000000E+00 -0.66931812985E+02  0.66931812985E+02  0.00000000000E+00 0. -1.
         25    1    1    2    0    0  0.14982699465E+02 -0.15211495400E+03  0.30053436339E+03  0.35959608464E+03  0.12500000000E+03 0.  0.
         25    1    1    2    0    0 -0.53457661682E+02  0.11429732728E+03  0.21519601138E+03  0.27902674411E+03  0.12500000000E+03 0.  0.
         25    1    1    2    0    0  0.38474962217E+02  0.37817626718E+02  0.83925076636E+03  0.85022193835E+03  0.12500000000E+03 0.  0.
</event>
<event>
 5    0  0.5720942E-005  0.3396418E+03  0.7546771E-02  0.1066949E+00
         21   -1    0    0  502  501  0.00000000000E+00  0.00000000000E+00  0.19419544712E+03  0.19419544712E+03  0.00000000000E+00 0.  1.
         21   -1    0    0  501  502 -0.00000000000E+00 -0.00000000000E+00 -0.59402294200E+03  0.59402294200E+03  0.00000000000E+00 0.  1.
         25    1    1    2    0    0 -0.14579926591E+03  0.20605242746E+03 -0.16773033945E+03  0.32783150486E+03  0.12500000000E+03 0.  0.
         25    1    1    2    0    0  0.13671355691E+03 -0.47600230578E+02 -0.14674077877E+03  0.24106894189E+03  0.12500000000E+03 0.  0.
         25    1    1    2    0    0  0.90857090068E+01 -0.15845219689E+03 -0.85356376669E+02  0.21931794237E+03  0.12500000000E+03 0.  0.
</event>
<event>
 5    0  0.5720942E-005  0.2739417E+03  0.7546771E-02  0.1099045E+00
         21   -1    0    0  502  501  0.00000000000E+00  0.00000000000E+00  0.23065205448E+03  0.23065205448E+03  0.00000000000E+00 0.  1.
         21   -1    0    0  501  502 -0.00000000000E+00 -0.00000000000E+00 -0.32535605300E+03  0.32535605300E+03  0.00000000000E+00 0.  1.
         25    1    1    2    0    0  0.67321882099E+02 -0.13376039580E+03  0.57314789762E+01  0.19514591758E+03  0.12500000000E+03 0.  0.
         25    1    1    2    0    0  0.57776514235E+02  0.59791966233E+02 -0.14618931441E+02  0.15083738920E+03  0.12500000000E+03 0.  0.
         25    1    1    2    0    0 -0.12509839633E+03  0.73968429571E+02 -0.85816546057E+02  0.21002480072E+03  0.12500000000E+03 0.  0.
</event>
<event>
 5    0  0.5720942E-005  0.5021752E+03  0.7546771E-02  0.1013213E+00
         21   -1    0    0  502  501  0.00000000000E+00  0.00000000000E+00  0.70786374241E+03  0.70786374241E+03  0.00000000000E+00 0.  1.
         21   -1    0    0  501  502 -0.00000000000E+00 -0.00000000000E+00 -0.35625497258E+03  0.35625497258E+03  0.00000000000E+00 0.  1.
         25    1    1    2    0    0 -0.87023830260E+02  0.18284605097E+03  0.10976125525E+03  0.26206556154E+03  0.12500000000E+03 0.  0.
         25    1    1    2    0    0  0.23824467529E+03 -0.11592934059E+03 -0.17162347378E+03  0.33952872348E+03  0.12500000000E+03 0.  0.
         25    1    1    2    0    0 -0.15122084503E+03 -0.66916710386E+02  0.41347098837E+03  0.46252442997E+03  0.12500000000E+03 0.  0.
</event>
<event>
 5    0  0.5720942E-005  0.2822065E+03  0.7546771E-02  0.1094490E+00
         21   -1    0    0  502  501  0.00000000000E+00  0.00000000000E+00  0.27653694842E+03  0.27653694842E+03  0.00000000000E+00 0.  1.
         21   -1    0    0  501  502 -0.00000000000E+00 -0.00000000000E+00 -0.28799223986E+03  0.28799223986E+03  0.00000000000E+00 0.  1.
         25    1    1    2    0    0  0.24740795883E+02 -0.92398549397E+02 -0.60164006607E+02  0.16850610257E+03  0.12500000000E+03 0.  0.
         25    1    1    2    0    0 -0.13444811806E+03  0.35675245266E+02  0.10118589968E+03  0.21263256070E+03  0.12500000000E+03 0.  0.
         25    1    1    2    0    0  0.10970732218E+03  0.56723304131E+02 -0.52477184507E+02  0.18339052502E+03  0.12500000000E+03 0.  0.
</event>
<event>
 5    0  0.5720942E-005  0.6173733E+03  0.7546771E-02  0.9870003E-01
         21   -1    0    0  502  501  0.00000000000E+00  0.00000000000E+00  0.22283245142E+03  0.22283245142E+03  0.00000000000E+00 0. -1.
         21   -1    0    0  501  502 -0.00000000000E+00 -0.00000000000E+00 -0.17104770618E+04  0.17104770618E+04  0.00000000000E+00 0. -1.
         25    1    1    2    0    0  0.57461002373E+02 -0.14330930579E+03 -0.47799162819E+03  0.51762952054E+03  0.12500000000E+03 0.  0.
         25    1    1    2    0    0  0.29833401901E+03  0.30638832654E+03 -0.87742618797E+03  0.98406235009E+03  0.12500000000E+03 0.  0.
         25    1    1    2    0    0 -0.35579502138E+03 -0.16307902075E+03 -0.13222679419E+03  0.43161764254E+03  0.12500000000E+03 0.  0.
</event>
<event>
 5    0  0.5720942E-005  0.3045964E+03  0.7546771E-02  0.1082965E+00
         21   -1    0    0  502  501  0.00000000000E+00  0.00000000000E+00  0.91916652817E+02  0.91916652817E+02  0.00000000000E+00 0. -1.
         21   -1    0    0  501  502 -0.00000000000E+00 -0.00000000000E+00 -0.10093812684E+04  0.10093812684E+04  0.00000000000E+00 0. -1.
         25    1    1    2    0    0 -0.13078222435E+03 -0.45804959734E+02 -0.21933821575E+03  0.28798669663E+03  0.12500000000E+03 0.  0.
         25    1    1    2    0    0  0.15776879160E+02 -0.26063979176E+02 -0.58043754718E+03  0.59452585066E+03  0.12500000000E+03 0.  0.
         25    1    1    2    0    0  0.11500534519E+03  0.71868938910E+02 -0.11768885262E+03  0.21878537390E+03  0.12500000000E+03 0.  0.
</event>
<event>
 5    0  0.5720942E-005  0.3219984E+03  0.7546771E-02  0.1074733E+00
         21   -1    0    0  502  501  0.00000000000E+00  0.00000000000E+00  0.20367524008E+03  0.20367524008E+03  0.00000000000E+00 0. -1.
         21   -1    0    0  501  502 -0.00000000000E+00 -0.00000000000E+00 -0.50906013051E+03  0.50906013051E+03  0.00000000000E+00 0. -1.
         25    1    1    2    0    0 -0.11951865220E+03 -0.12109023947E+03 -0.18250670611E+03  0.27907212704E+03  0.12500000000E+03 0.  0.
         25    1    1    2    0    0  0.49433881111E+01 -0.44485152417E+02  0.48329076161E+02  0.14129425138E+03  0.12500000000E+03 0.  0.
         25    1    1    2    0    0  0.11457526409E+03  0.16557539189E+03 -0.17120726048E+03  0.29236899216E+03  0.12500000000E+03 0.  0.
</event>
<event>
 5    0  0.5720942E-005  0.3678476E+03  0.7546771E-02  0.1055519E+00
         21   -1    0    0  502  501  0.00000000000E+00  0.00000000000E+00  0.18112532726E+03  0.18112532726E+03  0.00000000000E+00 0. -1.
         21   -1    0    0  501  502 -0.00000000000E+00 -0.00000000000E+00 -0.74706215644E+03  0.74706215644E+03  0.00000000000E+00 0. -1.
         25    1    1    2    0    0 -0.20362062179E+03  0.79102115692E+02 -0.50857555925E+02  0.25676836510E+03  0.12500000000E+03 0.  0.
         25    1    1    2    0    0  0.25095089972E+03 -0.73121359900E+02 -0.29240991661E+03  0.41164504937E+03  0.12500000000E+03 0.  0.
         25    1    1    2    0    0 -0.47330277934E+02 -0.59807557915E+01 -0.22266935665E+03  0.25977406922E+03  0.12500000000E+03 0.  0.
</event>
<event>
 5    0  0.5720942E-005  0.3093873E+03  0.7546771E-02  0.1080640E+00
         21   -1    0    0  502  501  0.00000000000E+00  0.00000000000E+00  0.33323856651E+03  0.33323856651E+03  0.00000000000E+00 0. -1.
         21   -1    0    0  501  502 -0.00000000000E+00 -0.00000000000E+00 -0.28724308670E+03  0.28724308670E+03  0.00000000000E+00 0. -1.
         25    1    1    2    0    0 -0.15775576096E+03 -0.15568680656E+03  0.73295958257E+02  0.26480664522E+03  0.12500000000E+03 0.  0.
         25    1    1    2    0    0  0.35650911072E+02  0.52565980957E+02 -0.55556503759E+02  0.15081675943E+03  0.12500000000E+03 0.  0.
         25    1    1    2    0    0  0.12210484989E+03  0.10312082560E+03  0.28256025306E+02  0.20485824857E+03  0.12500000000E+03 0.  0.
</event>
<event>
 5    0  0.5720942E-005  0.3369444E+03  0.7546771E-02  0.1068105E+00
         21   -1    0    0  502  501  0.00000000000E+00  0.00000000000E+00  0.30564059584E+03  0.30564059584E+03  0.00000000000E+00 0.  1.
         21   -1    0    0  501  502 -0.00000000000E+00 -0.00000000000E+00 -0.37145430650E+03  0.37145430650E+03  0.00000000000E+00 0.  1.
         25    1    1    2    0    0 -0.14338704082E+03 -0.20441006904E+03 -0.57303065364E+02  0.28504729625E+03  0.12500000000E+03 0.  0.
         25    1    1    2    0    0  0.10452330873E+03  0.72096037889E+02 -0.76481054755E+02  0.19390026427E+03  0.12500000000E+03 0.  0.
         25    1    1    2    0    0  0.38863732084E+02  0.13231403115E+03  0.67970409459E+02  0.19814734183E+03  0.12500000000E+03 0.  0.
</event>
<event>
 5    0  0.5720942E-005  0.2615643E+03  0.7546771E-02  0.1106207E+00
         21   -1    0    0  502  501  0.00000000000E+00  0.00000000000E+00  0.18171598826E+03  0.18171598826E+03  0.00000000000E+00 0.  1.
         21   -1    0    0  501  502 -0.00000000000E+00 -0.00000000000E+00 -0.37649887335E+03  0.37649887335E+03  0.00000000000E+00 0.  1.
         25    1    1    2    0    0  0.45612351717E+02 -0.16276446027E+02  0.78588476761E+02  0.15539162784E+03  0.12500000000E+03 0.  0.
         25    1    1    2    0    0 -0.49927249991E+02 -0.47346062278E+02 -0.19644052031E+03  0.24279262329E+03  0.12500000000E+03 0.  0.
         25    1    1    2    0    0  0.43148982741E+01  0.63622508305E+02 -0.76930841544E+02  0.16003061048E+03  0.12500000000E+03 0.  0.
</event>
<event>
 5    0  0.5720942E-005  0.5489504E+03  0.7546771E-02  0.1001737E+00
         21   -1    0    0  502  501  0.00000000000E+00  0.00000000000E+00  0.49147623410E+03  0.49147623410E+03  0.00000000000E+00 0.  1.
         21   -1    0    0  501  502 -0.00000000000E+00 -0.00000000000E+00 -0.61314560646E+03  0.61314560646E+03  0.00000000000E+00 0.  1.
         25    1    1    2    0    0 -0.65444454736E+02  0.36510454191E+03  0.83699222149E+02  0.40026848860E+03  0.12500000000E+03 0.  0.
         25    1    1    2    0    0  0.42665306020E+02 -0.32385043850E+03 -0.35870115327E+03  0.50098997217E+03  0.12500000000E+03 0.  0.
         25    1    1    2    0    0  0.22779148716E+02 -0.41254103410E+02  0.15333255876E+03  0.20336337979E+03  0.12500000000E+03 0.  0.
</event>
<event>
 5    0  0.5720942E-005  0.4748401E+03  0.7546771E-02  0.1020563E+00
         21   -1    0    0  502  501  0.00000000000E+00  0.00000000000E+00  0.83007198284E+03  0.83007198284E+03  0.00000000000E+00 0.  1.
         21   -1    0    0  501  502 -0.00000000000E+00 -0.00000000000E+00 -0.27163081075E+03  0.27163081075E+03  0.00000000000E+00 0.  1.
         25    1    1    2    0    0 -0.21346888773E+03  0.13919425584E+03  0.27723988048E+03  0.39677570266E+03  0.12500000000E+03 0.  0.
         25    1    1    2    0    0  0.31472133818E+03 -0.24384934562E+03  0.76349354728E+02  0.42422428978E+03  0.12500000000E+03 0.  0.
         25    1    1    2    0    0 -0.10125245045E+03  0.10465508978E+03  0.20485193688E+03  0.28070280116E+03  0.12500000000E+03 0.  0.
</event>
<event>
 5    0  0.5720942E-005  0.3767522E+03  0.7546771E-02  0.1052141E+00
         21   -1    0    0  502  501  0.00000000000E+00  0.00000000000E+00  0.32756207705E+03  0.32756207705E+03  0.00000000000E+00 0.  1.
         21   -1    0    0  501  502 -0.00000000000E+00 -0.00000000000E+00 -0.43332920108E+03  0.43332920108E+03  0.00000000000E+00 0.  1.
         25    1    1    2    0    0 -0.11009458049E+03 -0.22193243108E+03 -0.78820257092E+02  0.28846568868E+03  0.12500000000E+03 0.  0.
         25    1    1    2    0    0  0.10855396545E+03  0.15436516816E+03  0.12973732330E+03  0.26090101881E+03  0.12500000000E+03 0.  0.
         25    1    1    2    0    0  0.15406150381E+01  0.67567262914E+02 -0.15668419025E+03  0.21152457064E+03  0.12500000000E+03 0.  0.
</event>
<event>
 5    0  0.5720942E-005  0.3107399E+03  0.7546771E-02  0.1079992E+00
         21   -1    0    0  502  501  0.00000000000E+00  0.00000000000E+00  0.67123056026E+02  0.67123056026E+02  0.00000000000E+00 0. -1.
         21   -1    0    0  501  502 -0.00000000000E+00 -0.00000000000E+00 -0.14385416845E+04  0.14385416845E+04  0.00000000000E+00 0. -1.
         25    1    1    2    0    0 -0.82295947047E+02 -0.52320191009E+02 -0.57519753532E+03  0.59664665417E+03  0.12500000000E+03 0.  0.
         25    1    1    2    0    0  0.15003161979E+03 -0.53434969818E+02 -0.64513341353E+03  0.67615597623E+03  0.12500000000E+03 0.  0.
         25    1    1    2    0    0 -0.67735672743E+02  0.10575516083E+03 -0.15108767964E+03  0.23286211015E+03  0.12500000000E+03 0.  0.
</event>
<event>
 5    0  0.5720942E-005  0.2672000E+03  0.7546771E-02  0.1102893E+00
         21   -1    0    0  502  501  0.00000000000E+00  0.00000000000E+00  0.37502956369E+03  0.37502956369E+03  0.00000000000E+00 0. -1.
         21   -1    0    0  501  502 -0.00000000000E+00 -0.00000000000E+00 -0.19037394530E+03  0.19037394530E+03  0.00000000000E+00 0. -1.
         25    1    1    2    0    0 -0.18738376787E+02  0.13304972305E+03  0.11157362480E+03  0.21477204035E+03  0.12500000000E+03 0.  0.
         25    1    1    2    0    0 -0.31628409678E+02 -0.56907420554E+02  0.12395950065E+03  0.18769594725E+03  0.12500000000E+03 0.  0.
         25    1    1    2    0    0  0.50366786465E+02 -0.76142302495E+02 -0.50877507055E+02  0.16293552139E+03  0.12500000000E+03 0.  0.
</event>
<event>
 5    0  0.5720942E-005  0.5449700E+03  0.7546771E-02  0.1002665E+00
         21   -1    0    0  502  501  0.00000000000E+00  0.00000000000E+00  0.16360148548E+04  0.16360148548E+04  0.00000000000E+00 0.  1.
         21   -1    0    0  501  502 -0.00000000000E+00 -0.00000000000E+00 -0.18153397681E+03  0.18153397681E+03  0.00000000000E+00 0.  1.
         25    1    1    2    0    0  0.18512394463E+03  0.28251312177E+03  0.56348829895E+03  0.66875152478E+03  0.12500000000E+03 0.  0.
         25    1    1    2    0    0  0.98454452176E+02  0.50692033295E+02  0.56464893707E+03  0.58882627618E+03  0.12500000000E+03 0.  0.
         25    1    1    2    0    0 -0.28357839681E+03 -0.33320515507E+03  0.32634364197E+03  0.55997103063E+03  0.12500000000E+03 0.  0.
</event>
<event>
 5    0  0.5720942E-005  0.3065236E+03  0.7546771E-02  0.1082024E+00
         21   -1    0    0  502  501  0.00000000000E+00  0.00000000000E+00  0.41833955385E+03  0.41833955385E+03  0.00000000000E+00 0.  1.
         21   -1    0    0  501  502 -0.00000000000E+00 -0.00000000000E+00 -0.22459445243E+03  0.22459445243E+03  0.00000000000E+00 0.  1.
         25    1    1    2    0    0  0.13310886209E+03  0.11282489583E+03  0.85970946037E+02  0.23122160333E+03  0.12500000000E+03 0.  0.
         25    1    1    2    0    0 -0.52147988572E+02 -0.83529438153E+01  0.17173614318E+03  0.21887779069E+03  0.12500000000E+03 0.  0.
         25    1    1    2    0    0 -0.80960873516E+02 -0.10447195202E+03 -0.63961987803E+02  0.19283461225E+03  0.12500000000E+03 0.  0.
</event>
<event>
 5    0  0.5720942E-005  0.2453771E+03  0.7546771E-02  0.1116262E+00
         21   -1    0    0  502  501  0.00000000000E+00  0.00000000000E+00  0.17836888779E+04  0.17836888779E+04  0.00000000000E+00 0. -1.
         21   -1    0    0  501  502 -0.00000000000E+00 -0.00000000000E+00 -0.33755842098E+02  0.33755842098E+02  0.00000000000E+00 0. -1.
         25    1    1    2    0    0  0.82360186094E+02 -0.99432013606E+02  0.72705129899E+03  0.74893158362E+03  0.12500000000E+03 0.  0.
         25    1    1    2    0    0 -0.21715495283E+02  0.13441583534E+02  0.63384021153E+03  0.64655290012E+03  0.12500000000E+03 0.  0.
         25    1    1    2    0    0 -0.60644690810E+02  0.85990430072E+02  0.38904152528E+03  0.42196023626E+03  0.12500000000E+03 0.  0.
</event>
<event>
 5    0  0.5720942E-005  0.2172485E+03  0.7546771E-02  0.1135951E+00
         21   -1    0    0  502  501  0.00000000000E+00  0.00000000000E+00  0.16815649207E+03  0.16815649207E+03  0.00000000000E+00 0.  1.
         21   -1    0    0  501  502 -0.00000000000E+00 -0.00000000000E+00 -0.28067258613E+03  0.28067258613E+03  0.00000000000E+00 0.  1.
         25    1    1    2    0    0 -0.52169993831E+02 -0.31653992314E+02 -0.25183395638E+02  0.14136083935E+03  0.12500000000E+03 0.  0.
         25    1    1    2    0    0 -0.16394563361E+01 -0.73558351185E+01 -0.10677585020E+03  0.16456876470E+03  0.12500000000E+03 0.  0.
         25    1    1    2    0    0  0.53809450167E+02  0.39009827432E+02  0.19443151777E+02  0.14289947416E+03  0.12500000000E+03 0.  0.
</event>
<event>
 5    0  0.5720942E-005  0.3059483E+03  0.7546771E-02  0.1082304E+00
         21   -1    0    0  502  501  0.00000000000E+00  0.00000000000E+00  0.20144750717E+03  0.20144750717E+03  0.00000000000E+00 0. -1.
         21   -1    0    0  501  502 -0.00000000000E+00 -0.00000000000E+00 -0.46465893914E+03  0.46465893914E+03  0.00000000000E+00 0. -1.
         25    1    1    2    0    0 -0.88404047630E+02  0.63477160932E+02 -0.31795098904E+03  0.35855607236E+03  0.12500000000E+03 0.  0.
         25    1    1    2    0    0  0.44801637641E+02  0.22820225286E+02 -0.13518216786E+02  0.13540934828E+03  0.12500000000E+03 0.  0.
         25    1    1    2    0    0  0.43602409989E+02 -0.86297386217E+02  0.68257773853E+02  0.17214102566E+03  0.12500000000E+03 0.  0.
</event>
<event>
 5    0  0.5720942E-005  0.3841427E+03  0.7546771E-02  0.1049413E+00
         21   -1    0    0  502  501  0.00000000000E+00  0.00000000000E+00  0.19126479161E+03  0.19126479161E+03  0.00000000000E+00 0. -1.
         21   -1    0    0  501  502 -0.00000000000E+00 -0.00000000000E+00 -0.77152538853E+03  0.77152538853E+03  0.00000000000E+00 0. -1.
         25    1    1    2    0    0 -0.44841975706E+02  0.13479631648E+03 -0.33340808571E+03  0.38336249339E+03  0.12500000000E+03 0.  0.
         25    1    1    2    0    0  0.89211390866E+02  0.14475448536E+03 -0.13441462405E+03  0.25020956107E+03  0.12500000000E+03 0.  0.
         25    1    1    2    0    0 -0.44369415160E+02 -0.27955080184E+03 -0.11243788716E+03  0.32921812568E+03  0.12500000000E+03 0.  0.
</event>
<event>
 5    0  0.5720942E-005  0.3822036E+03  0.7546771E-02  0.1050122E+00
         21   -1    0    0  502  501  0.00000000000E+00  0.00000000000E+00  0.15208662454E+03  0.15208662454E+03  0.00000000000E+00 0. -1.
         21   -1    0    0  501  502 -0.00000000000E+00 -0.00000000000E+00 -0.96050241918E+03  0.96050241918E+03  0.00000000000E+00 0. -1.
         25    1    1    2    0    0 -0.81274251797E+02 -0.15836874548E+03 -0.18835742047E+03  0.28773196103E+03  0.12500000000E+03 0.  0.
         25    1    1    2    0    0  0.13004711560E+03 -0.76656994488E+02 -0.48352242112E+03  0.52173506573E+03  0.12500000000E+03 0.  0.
         25    1    1    2    0    0 -0.48772863807E+02  0.23502573997E+03 -0.13653595305E+03  0.30312201696E+03  0.12500000000E+03 0.  0.
</event>
<event>
 5    0  0.5720942E-005  0.4499363E+03  0.7546771E-02  0.1027741E+00
         21   -1    0    0  502  501  0.00000000000E+00  0.00000000000E+00  0.36307802767E+03  0.36307802767E+03  0.00000000000E+00 0.  1.
         21   -1    0    0  501  502 -0.00000000000E+00 -0.00000000000E+00 -0.55757352526E+03  0.55757352526E+03  0.00000000000E+00 0.  1.
         25    1    1    2    0    0  0.33208188510E+03  0.14009966018E+03 -0.59890864215E+02  0.38615826912E+03  0.12500000000E+03 0.  0.
         25    1    1    2    0    0 -0.11214590674E+03  0.28776971637E+02  0.51396655088E+02  0.17796470057E+03  0.12500000000E+03 0.  0.
         25    1    1    2    0    0 -0.21993597836E+03 -0.16887663182E+03 -0.18600128847E+03  0.35652858323E+03  0.12500000000E+03 0.  0.
</event>
<event>
 5    0  0.5720942E-005  0.4776234E+03  0.7546771E-02  0.1019790E+00
         21   -1    0    0  502  501  0.00000000000E+00  0.00000000000E+00  0.36380172145E+03  0.36380172145E+03  0.00000000000E+00 0. -1.
         21   -1    0    0  501  502 -0.00000000000E+00 -0.00000000000E+00 -0.62705619785E+03  0.62705619785E+03  0.00000000000E+00 0. -1.
         25    1    1    2    0    0  0.90392854209E+02 -0.35910145833E+03  0.74346096413E+02  0.39784050512E+03  0.12500000000E+03 0.  0.
         25    1    1    2    0    0 -0.11870648549E+03  0.18949741474E+03 -0.10213275508E+03  0.27578361001E+03  0.12500000000E+03 0.  0.
         25    1    1    2    0    0  0.28313631277E+02  0.16960404359E+03 -0.23546781774E+03  0.31723380417E+03  0.12500000000E+03 0.  0.
</event>
<event>
 5    0  0.5720942E-005  0.4168834E+03  0.7546771E-02  0.1038085E+00
         21   -1    0    0  502  501  0.00000000000E+00  0.00000000000E+00  0.13588085840E+04  0.13588085840E+04  0.00000000000E+00 0.  1.
         21   -1    0    0  501  502 -0.00000000000E+00 -0.00000000000E+00 -0.12790010969E+03  0.12790010969E+03  0.00000000000E+00 0.  1.
         25    1    1    2    0    0 -0.10768486703E+03  0.33983402845E+02  0.11652944260E+04  0.11774068972E+04  0.12500000000E+03 0.  0.
         25    1    1    2    0    0  0.50337481766E+02  0.46766724537E+02  0.26257278440E+02  0.14503597232E+03  0.12500000000E+03 0.  0.
         25    1    1    2    0    0  0.57347385264E+02 -0.80750127382E+02  0.39356769896E+02  0.16426582422E+03  0.12500000000E+03 0.  0.
</event>
<event>
 5    0  0.5720942E-005  0.3786806E+03  0.7546771E-02  0.1051422E+00
         21   -1    0    0  502  501  0.00000000000E+00  0.00000000000E+00  0.17823372589E+04  0.17823372589E+04  0.00000000000E+00 0. -1.
         21   -1    0    0  501  502 -0.00000000000E+00 -0.00000000000E+00 -0.80455597146E+02  0.80455597146E+02  0.00000000000E+00 0. -1.
         25    1    1    2    0    0  0.12822009918E+03 -0.16644925258E+03  0.11558620498E+04  0.11814346473E+04  0.12500000000E+03 0.  0.
         25    1    1    2    0    0 -0.22670432670E+02 -0.15059519822E+02  0.68897872833E+02  0.14530194264E+03  0.12500000000E+03 0.  0.
         25    1    1    2    0    0 -0.10554966651E+03  0.18150877240E+03  0.47712173910E+03  0.53605626615E+03  0.12500000000E+03 0.  0.
</event>
<event>
 5    0  0.5720942E-005  0.3121696E+03  0.7546771E-02  0.1079311E+00
         21   -1    0    0  502  501  0.00000000000E+00  0.00000000000E+00  0.12318553672E+03  0.12318553672E+03  0.00000000000E+00 0.  1.
         21   -1    0    0  501  502 -0.00000000000E+00 -0.00000000000E+00 -0.79108177313E+03  0.79108177313E+03  0.00000000000E+00 0.  1.
         25    1    1    2    0    0 -0.32392765445E+02 -0.71406685055E+01  0.35873652280E+02  0.13420953516E+03  0.12500000000E+03 0.  0.
         25    1    1    2    0    0  0.12492904360E+03  0.29992167574E+02 -0.37394275917E+03  0.41468660840E+03  0.12500000000E+03 0.  0.
         25    1    1    2    0    0 -0.92536278154E+02 -0.22851499068E+02 -0.32982712952E+03  0.36537116628E+03  0.12500000000E+03 0.  0.
</event>
<event>
 5    0  0.5972034E-005  0.2583961E+03  0.7546771E-02  0.1108111E+00
         21   -1    0    0  502  501  0.00000000000E+00  0.00000000000E+00  0.46975860517E+03  0.46975860517E+03  0.00000000000E+00 0. -1.
         21   -1    0    0  501  502 -0.00000000000E+00 -0.00000000000E+00 -0.14213370195E+03  0.14213370195E+03  0.00000000000E+00 0. -1.
         25    1    1    2    0    0  0.10012703768E+03 -0.66670825759E+02  0.22077114962E+03  0.28077628673E+03  0.12500000000E+03 0.  0.
         25    1    1    2    0    0 -0.89888128553E+02 -0.10737519256E+02  0.99333035694E+02  0.18354079098E+03  0.12500000000E+03 0.  0.
         25    1    1    2    0    0 -0.10238909124E+02  0.77408345016E+02  0.75207178940E+01  0.14757522941E+03  0.12500000000E+03 0.  0.
</event>
<event>
 5    0  0.5720942E-005  0.4944621E+03  0.7546771E-02  0.1015235E+00
         21   -1    0    0  502  501  0.00000000000E+00  0.00000000000E+00  0.55018797894E+03  0.55018797894E+03  0.00000000000E+00 0.  1.
         21   -1    0    0  501  502 -0.00000000000E+00 -0.00000000000E+00 -0.44438044699E+03  0.44438044699E+03  0.00000000000E+00 0.  1.
         25    1    1    2    0    0  0.14290325051E+03 -0.22261602629E+03  0.76917622688E+02  0.30252364345E+03  0.12500000000E+03 0.  0.
         25    1    1    2    0    0 -0.20991758509E+03  0.34941843551E+03 -0.12831293908E+03  0.44525031830E+03  0.12500000000E+03 0.  0.
         25    1    1    2    0    0  0.67014334584E+02 -0.12680240922E+03  0.15720284835E+03  0.24679446419E+03  0.12500000000E+03 0.  0.
</event>
<event>
 5    0  0.5720942E-005  0.2369592E+03  0.7546771E-02  0.1121835E+00
         21   -1    0    0  502  501  0.00000000000E+00  0.00000000000E+00  0.57023443241E+02  0.57023443241E+02  0.00000000000E+00 0.  1.
         21   -1    0    0  501  502 -0.00000000000E+00 -0.00000000000E+00 -0.98467651113E+03  0.98467651113E+03  0.00000000000E+00 0.  1.
         25    1    1    2    0    0  0.92721285646E+02  0.50846322265E+02 -0.28451817199E+03  0.32826540404E+03  0.12500000000E+03 0.  0.
         25    1    1    2    0    0 -0.12056591200E+03 -0.29772728116E+02 -0.41705406037E+03  0.45274898536E+03  0.12500000000E+03 0.  0.
         25    1    1    2    0    0  0.27844626354E+02 -0.21073594149E+02 -0.22608083553E+03  0.26068556497E+03  0.12500000000E+03 0.  0.
</event>
<event>
 5    0  0.5720942E-005  0.3047191E+03  0.7546771E-02  0.1082905E+00
         21   -1    0    0  502  501  0.00000000000E+00  0.00000000000E+00  0.11502644806E+03  0.11502644806E+03  0.00000000000E+00 0.  1.
         21   -1    0    0  501  502 -0.00000000000E+00 -0.00000000000E+00 -0.80723831628E+03  0.80723831628E+03  0.00000000000E+00 0.  1.
         25    1    1    2    0    0 -0.16228515529E+03 -0.11044540200E+03 -0.16992340727E+03  0.28815555311E+03  0.12500000000E+03 0.  0.
         25    1    1    2    0    0  0.33894576784E+02 -0.23633932164E+02 -0.24138585665E+03  0.27495369951E+03  0.12500000000E+03 0.  0.
         25    1    1    2    0    0  0.12839057850E+03  0.13407933416E+03 -0.28090260430E+03  0.35915551172E+03  0.12500000000E+03 0.  0.
</event>
<event>
 5    0  0.6509362E-005  0.2541525E+03  0.7546771E-02  0.1110708E+00
         21   -1    0    0  502  501  0.00000000000E+00  0.00000000000E+00  0.63709086314E+03  0.63709086314E+03  0.00000000000E+00 0. -1.
         21   -1    0    0  501  502 -0.00000000000E+00 -0.00000000000E+00 -0.10138822393E+03  0.10138822393E+03  0.00000000000E+00 0. -1.
         25    1    1    2    0    0  0.63871572247E+02 -0.10670304138E+03  0.25975272111E+03  0.31394520685E+03  0.12500000000E+03 0.  0.
         25    1    1    2    0    0 -0.17076679773E+02 -0.19240956803E+02  0.17020294234E+03  0.21273426850E+03  0.12500000000E+03 0.  0.
         25    1    1    2    0    0 -0.46794892475E+02  0.12594399818E+03  0.10574697575E+03  0.21179961171E+03  0.12500000000E+03 0.  0.
</event>
<event>
 5    0  0.5720942E-005  0.1990516E+03  0.7546771E-02  0.1150542E+00
         21   -1    0    0  502  501  0.00000000000E+00  0.00000000000E+00  0.14212760843E+03  0.14212760843E+03  0.00000000000E+00 0. -1.
         21   -1    0    0  501  502 -0.00000000000E+00 -0.00000000000E+00 -0.27877441920E+03  0.27877441920E+03  0.00000000000E+00 0. -1.
         25    1    1    2    0    0  0.12801791258E+01  0.48293306342E+02 -0.28814898020E+02  0.13707363220E+03  0.12500000000E+03 0.  0.
         25    1    1    2    0    0 -0.73618657257E+01 -0.38691683565E+02 -0.24936120079E+02  0.13340934573E+03  0.12500000000E+03 0.  0.
         25    1    1    2    0    0  0.60816865999E+01 -0.96016227767E+01 -0.82895792672E+02  0.15041904971E+03  0.12500000000E+03 0.  0.
</event>
<event>
 5    0  0.5720942E-005  0.3055773E+03  0.7546771E-02  0.1082485E+00
         21   -1    0    0  502  501  0.00000000000E+00  0.00000000000E+00  0.73635515455E+02  0.73635515455E+02  0.00000000000E+00 0.  1.
         21   -1    0    0  501  502 -0.00000000000E+00 -0.00000000000E+00 -0.12681038672E+04  0.12681038672E+04  0.00000000000E+00 0.  1.
         25    1    1    2    0    0  0.25062214309E+02  0.68614008770E+02 -0.42853394579E+03  0.45232990115E+03  0.12500000000E+03 0.  0.
         25    1    1    2    0    0 -0.92252895945E+02  0.13280881764E+03 -0.38126286967E+03  0.43259120962E+03  0.12500000000E+03 0.  0.
         25    1    1    2    0    0  0.67190681635E+02 -0.20142282641E+03 -0.38467153633E+03  0.45681827192E+03  0.12500000000E+03 0.  0.
</event>
<event>
 5    0  0.5720942E-005  0.3777377E+03  0.7546771E-02  0.1051773E+00
         21   -1    0    0  502  501  0.00000000000E+00  0.00000000000E+00  0.16356037892E+03  0.16356037892E+03  0.00000000000E+00 0.  1.
         21   -1    0    0  501  502 -0.00000000000E+00 -0.00000000000E+00 -0.87237354784E+03  0.87237354784E+03  0.00000000000E+00 0.  1.
         25    1    1    2    0    0 -0.12706900858E+03  0.27200494470E+03 -0.41423286808E+03  0.52663753368E+03  0.12500000000E+03 0.  0.
         25    1    1    2    0    0  0.13928192522E+03 -0.16944229660E+03 -0.19511123372E+03  0.31906667030E+03  0.12500000000E+03 0.  0.
         25    1    1    2    0    0 -0.12212916639E+02 -0.10256264810E+03 -0.99469067126E+02  0.19022972279E+03  0.12500000000E+03 0.  0.
</event>
<event>
 5    0  0.5720942E-005  0.3011917E+03  0.7546771E-02  0.1084646E+00
         21   -1    0    0  502  501  0.00000000000E+00  0.00000000000E+00  0.11966349898E+03  0.11966349898E+03  0.00000000000E+00 0.  1.
         21   -1    0    0  501  502 -0.00000000000E+00 -0.00000000000E+00 -0.75809612851E+03  0.75809612851E+03  0.00000000000E+00 0.  1.
         25    1    1    2    0    0  0.26160680870E+01  0.88039866759E+02 -0.88695643788E+01  0.15317157414E+03  0.12500000000E+03 0.  0.
         25    1    1    2    0    0  0.11753841857E+03 -0.43495181062E+02 -0.35734983251E+03  0.39878692733E+03  0.12500000000E+03 0.  0.
         25    1    1    2    0    0 -0.12015448666E+03 -0.44544685697E+02 -0.27221323265E+03  0.32580112602E+03  0.12500000000E+03 0.  0.
</event>
<event>
 5    0  0.5720942E-005  0.3320272E+03  0.7546771E-02  0.1070243E+00
         21   -1    0    0  502  501  0.00000000000E+00  0.00000000000E+00  0.83866196906E+02  0.83866196906E+02  0.00000000000E+00 0. -1.
         21   -1    0    0  501  502 -0.00000000000E+00 -0.00000000000E+00 -0.13144996746E+04  0.13144996746E+04  0.00000000000E+00 0. -1.
         25    1    1    2    0    0 -0.55911587309E+02  0.60472713911E+02 -0.57894808159E+03  0.59798740447E+03  0.12500000000E+03 0.  0.
         25    1    1    2    0    0 -0.15644096434E+03  0.17801292392E+02 -0.34452689016E+03  0.39889151329E+03  0.12500000000E+03 0.  0.
         25    1    1    2    0    0  0.21235255165E+03 -0.78274006302E+02 -0.30715850595E+03  0.40148695375E+03  0.12500000000E+03 0.  0.
</event>
<event>
 5    0  0.5720942E-005  0.2169495E+03  0.7546771E-02  0.1136178E+00
         21   -1    0    0  502  501  0.00000000000E+00  0.00000000000E+00  0.81933087510E+02  0.81933087510E+02  0.00000000000E+00 0.  1.
         21   -1    0    0  501  502 -0.00000000000E+00 -0.00000000000E+00 -0.57445747402E+03  0.57445747402E+03  0.00000000000E+00 0.  1.
         25    1    1    2    0    0 -0.24321813974E+02  0.17546885794E+02 -0.28978713575E+03  0.31701897085E+03  0.12500000000E+03 0.  0.
         25    1    1    2    0    0  0.62402198747E+02  0.11569292660E+01 -0.94591089353E+02  0.16872417455E+03  0.12500000000E+03 0.  0.
         25    1    1    2    0    0 -0.38080384773E+02 -0.18703815060E+02 -0.10814616141E+03  0.17064741613E+03  0.12500000000E+03 0.  0.
</event>
<event>
 5    0  0.5720942E-005  0.2614986E+03  0.7546771E-02  0.1106246E+00
         21   -1    0    0  502  501  0.00000000000E+00  0.00000000000E+00  0.14731937372E+03  0.14731937372E+03  0.00000000000E+00 0.  1.
         21   -1    0    0  501  502 -0.00000000000E+00 -0.00000000000E+00 -0.46417189022E+03  0.46417189022E+03  0.00000000000E+00 0.  1.
         25    1    1    2    0    0  0.43002273268E+02  0.14420823400E+02 -0.27441015444E+03  0.30493128490E+03  0.12500000000E+03 0.  0.
         25    1    1    2    0    0 -0.32678442208E+02 -0.86932660116E+02 -0.47175749040E+00  0.15572536895E+03  0.12500000000E+03 0.  0.
         25    1    1    2    0    0 -0.10323831060E+02  0.72511836716E+02 -0.41970604568E+02  0.15083461009E+03  0.12500000000E+03 0.  0.
</event>
<event>
 5    0  0.5720942E-005  0.4202997E+03  0.7546771E-02  0.1036969E+00
         21   -1    0    0  502  501  0.00000000000E+00  0.00000000000E+00  0.13846693759E+03  0.13846693759E+03  0.00000000000E+00 0. -1.
         21   -1    0    0  501  502 -0.00000000000E+00 -0.00000000000E+00 -0.12757690486E+04  0.12757690486E+04  0.00000000000E+00 0. -1.
         25    1    1    2    0    0 -0.54275471643E+02  0.14608289989E+03 -0.88241550917E+03  0.90474757324E+03  0.12500000000E+03 0.  0.
         25    1    1    2    0    0  0.89928441156E+02 -0.57067627282E+01  0.38874838007E+02  0.15892119022E+03  0.12500000000E+03 0.  0.
         25    1    1    2    0    0 -0.35652969513E+02 -0.14037613716E+03 -0.29376143989E+03  0.35056722278E+03  0.12500000000E+03 0.  0.
</event>
<event>
 5    0  0.1205795E-004  0.6932595E+03  0.7546771E-02  0.9728829E-01
         21   -1    0    0  502  501  0.00000000000E+00  0.00000000000E+00  0.43007196486E+03  0.43007196486E+03  0.00000000000E+00 0. -1.
         21   -1    0    0  501  502 -0.00000000000E+00 -0.00000000000E+00 -0.11175076301E+04  0.11175076301E+04  0.00000000000E+00 0. -1.
         25    1    1    2    0    0  0.24168859212E+03  0.40740286695E+03 -0.39719974681E+03  0.63070049185E+03  0.12500000000E+03 0.  0.
         25    1    1    2    0    0 -0.12418577090E+03 -0.14753869553E+03  0.22063979251E+03  0.31858545229E+03  0.12500000000E+03 0.  0.
         25    1    1    2    0    0 -0.11750282122E+03 -0.25986417142E+03 -0.51087571094E+03  0.59829365082E+03  0.12500000000E+03 0.  0.
</event>
<event>
 5    0  0.5720942E-005  0.3387625E+03  0.7546771E-02  0.1067324E+00
         21   -1    0    0  502  501  0.00000000000E+00  0.00000000000E+00  0.14563051941E+03  0.14563051941E+03  0.00000000000E+00 0.  1.
         21   -1    0    0  501  502 -0.00000000000E+00 -0.00000000000E+00 -0.78802168959E+03  0.78802168959E+03  0.00000000000E+00 0.  1.
         25    1    1    2    0    0  0.51457677901E+02  0.41522533803E+02 -0.54236127392E+03  0.56049332278E+03  0.12500000000E+03 0.  0.
         25    1    1    2    0    0 -0.13791920771E+03 -0.78813113284E+02 -0.69224493644E+02  0.21365918000E+03  0.12500000000E+03 0.  0.
         25    1    1    2    0    0  0.86461529807E+02  0.37290579481E+02 -0.30805402613E+02  0.15949970622E+03  0.12500000000E+03 0.  0.
</event>
<event>
 5    0  0.5720942E-005  0.3697646E+03  0.7546771E-02  0.1054783E+00
         21   -1    0    0  502  501  0.00000000000E+00  0.00000000000E+00  0.17966352079E+03  0.17966352079E+03  0.00000000000E+00 0. -1.
         21   -1    0    0  501  502 -0.00000000000E+00 -0.00000000000E+00 -0.76101072215E+03  0.76101072215E+03  0.00000000000E+00 0. -1.
         25    1    1    2    0    0 -0.19876337686E+02 -0.11550427951E+03 -0.25805581281E+03  0.30976460403E+03  0.12500000000E+03 0.  0.
         25    1    1    2    0    0 -0.18940987698E+03  0.17815646919E+03 -0.19656135973E+03  0.34910914791E+03  0.12500000000E+03 0.  0.
         25    1    1    2    0    0  0.20928621466E+03 -0.62652189680E+02 -0.12673002882E+03  0.28180049099E+03  0.12500000000E+03 0.  0.
</event>
<event>
 5    0  0.5720942E-005  0.4280319E+03  0.7546771E-02  0.1034483E+00
         21   -1    0    0  502  501  0.00000000000E+00  0.00000000000E+00  0.29655499634E+03  0.29655499634E+03  0.00000000000E+00 0. -1.
         21   -1    0    0  501  502 -0.00000000000E+00 -0.00000000000E+00 -0.61779867735E+03  0.61779867735E+03  0.00000000000E+00 0. -1.
         25    1    1    2    0    0 -0.98049848047E+00 -0.12414542129E+03  0.35681471742E+01  0.17621231137E+03  0.12500000000E+03 0.  0.
         25    1    1    2    0    0 -0.49306026159E+02  0.18024356741E+02  0.16826467953E+03  0.21608786183E+03  0.12500000000E+03 0.  0.
         25    1    1    2    0    0  0.50286524640E+02  0.10612106455E+03 -0.49307650772E+03  0.52205350048E+03  0.12500000000E+03 0.  0.
</event>
<event>
 5    0  0.5720942E-005  0.4227313E+03  0.7546771E-02  0.1036181E+00
         21   -1    0    0  502  501  0.00000000000E+00  0.00000000000E+00  0.51527021676E+03  0.51527021676E+03  0.00000000000E+00 0. -1.
         21   -1    0    0  501  502 -0.00000000000E+00 -0.00000000000E+00 -0.34681177082E+03  0.34681177082E+03  0.00000000000E+00 0.  1.
         25    1    1    2    0    0  0.12719461047E+03 -0.49841838860E+02 -0.66003050088E+02  0.19658097684E+03  0.12500000000E+03 0.  0.
         25    1    1    2    0    0  0.11912421597E+03 -0.13018807454E+03  0.25597043403E+03  0.33509010233E+03  0.12500000000E+03 0.  0.
         25    1    1    2    0    0 -0.24631882645E+03  0.18002991340E+03 -0.21508937992E+02  0.33041090841E+03  0.12500000000E+03 0.  0.
</event>
<event>
 5    0  0.5720942E-005  0.3852956E+03  0.7546771E-02  0.1048994E+00
         21   -1    0    0  502  501  0.00000000000E+00  0.00000000000E+00  0.17052465670E+04  0.17052465670E+04  0.00000000000E+00 0. -1.
         21   -1    0    0  501  502 -0.00000000000E+00 -0.00000000000E+00 -0.87056452987E+02  0.87056452987E+02  0.00000000000E+00 0. -1.
         25    1    1    2    0    0 -0.20409480309E+03  0.10928428173E+03  0.26100157689E+03  0.37060027795E+03  0.12500000000E+03 0.  0.
         25    1    1    2    0    0  0.17778859334E+03 -0.16359159329E+03  0.10490550283E+04  0.10837492541E+04  0.12500000000E+03 0.  0.
         25    1    1    2    0    0  0.26306209759E+02  0.54307311568E+02  0.30813350889E+03  0.33795348802E+03  0.12500000000E+03 0.  0.
</event>
<event>
 5    0  0.5825887E-005  0.3912412E+03  0.7546771E-02  0.1046855E+00
         21   -1    0    0  502  501  0.00000000000E+00  0.00000000000E+00  0.32755517321E+03  0.32755517321E+03  0.00000000000E+00 0. -1.
         21   -1    0    0  501  502 -0.00000000000E+00 -0.00000000000E+00 -0.46730968203E+03  0.46730968203E+03  0.00000000000E+00 0. -1.
         25    1    1    2    0    0 -0.18610535614E+03  0.10716301863E+03 -0.14245909829E+03  0.28642400534E+03  0.12500000000E+03 0.  0.
         25    1    1    2    0    0 -0.82394772937E+02 -0.29411098430E+02  0.10543560055E+03  0.18546044641E+03  0.12500000000E+03 0.  0.
         25    1    1    2    0    0  0.26850012907E+03 -0.77751920202E+02 -0.10273101108E+03  0.32298040350E+03  0.12500000000E+03 0.  0.
</event>
<event>
 5    0  0.5720942E-005  0.3686587E+03  0.7546771E-02  0.1055207E+00
         21   -1    0    0  502  501  0.00000000000E+00  0.00000000000E+00  0.22629662286E+04  0.22629662286E+04  0.00000000000E+00 0.  1.
         21   -1    0    0  501  502 -0.00000000000E+00 -0.00000000000E+00 -0.60057995103E+02  0.60057995103E+02  0.00000000000E+00 0.  1.
         25    1    1    2    0    0 -0.35246210506E+02 -0.15681799066E+02  0.29193426137E+03  0.31990440313E+03  0.12500000000E+03 0.  0.
         25    1    1    2    0    0  0.26695005424E+03  0.90176382216E+02  0.12564422679E+04  0.12937025485E+04  0.12500000000E+03 0.  0.
         25    1    1    2    0    0 -0.23170384374E+03 -0.74494583150E+02  0.65453170424E+03  0.70941727212E+03  0.12500000000E+03 0.  0.
</event>
<event>
 5    0  0.8001618E-005  0.2975775E+03  0.7546771E-02  0.1086458E+00
         21   -1    0    0  502  501  0.00000000000E+00  0.00000000000E+00  0.55299960615E+03  0.55299960615E+03  0.00000000000E+00 0. -1.
         21   -1    0    0  501  502 -0.00000000000E+00 -0.00000000000E+00 -0.16013100837E+03  0.16013100837E+03  0.00000000000E+00 0. -1.
         25    1    1    2    0    0  0.10867204955E+03 -0.83345300207E+02  0.18881216991E+03  0.26463387713E+03  0.12500000000E+03 0.  0.
         25    1    1    2    0    0 -0.14127398376E+02 -0.81162975052E+02  0.10600669399E+02  0.15008126497E+03  0.12500000000E+03 0.  0.
         25    1    1    2    0    0 -0.94544651172E+02  0.16450827526E+03  0.19345575847E+03  0.29841547242E+03  0.12500000000E+03 0.  0.
</event>
<event>
 5    0  0.5720942E-005  0.3248336E+03  0.7546771E-02  0.1073446E+00
         21   -1    0    0  502  501  0.00000000000E+00  0.00000000000E+00  0.14279763720E+03  0.14279763720E+03  0.00000000000E+00 0. -1.
         21   -1    0    0  501  502 -0.00000000000E+00 -0.00000000000E+00 -0.73892592567E+03  0.73892592567E+03  0.00000000000E+00 0. -1.
         25    1    1    2    0    0 -0.44547133277E+02 -0.32817952792E+02 -0.18386975155E+03  0.22911689297E+03  0.12500000000E+03 0.  0.
         25    1    1    2    0    0 -0.34193806730E+02 -0.17441733320E+03 -0.30945656202E+03  0.37812562240E+03  0.12500000000E+03 0.  0.
         25    1    1    2    0    0  0.78740940006E+02  0.20723528599E+03 -0.10280197490E+03  0.27448104750E+03  0.12500000000E+03 0.  0.
</event>
<event>
 5    0  0.5720942E-005  0.2671538E+03  0.7546771E-02  0.1102920E+00
         21   -1    0    0  502  501  0.00000000000E+00  0.00000000000E+00  0.11846002336E+04  0.11846002336E+04  0.00000000000E+00 0.  1.
         21   -1    0    0  501  502 -0.00000000000E+00 -0.00000000000E+00 -0.60249147384E+02  0.60249147384E+02  0.00000000000E+00 0.  1.
         25    1    1    2    0    0 -0.91165119788E+01 -0.11156979112E+02  0.34371071771E+03  0.36601864221E+03  0.12500000000E+03 0.  0.
         25    1    1    2    0    0  0.14502579744E+03 -0.61158367859E+02  0.45732353264E+03  0.49954243202E+03  0.12500000000E+03 0.  0.
         25    1    1    2    0    0 -0.13590928546E+03  0.72315346971E+02  0.32331683582E+03  0.37928830671E+03  0.12500000000E+03 0.  0.
</event>
<event>
 5    0  0.5720942E-005  0.3134061E+03  0.7546771E-02  0.1078725E+00
         21   -1    0    0  502  501  0.00000000000E+00  0.00000000000E+00  0.46704435412E+03  0.46704435412E+03  0.00000000000E+00 0. -1.
         21   -1    0    0  501  502 -0.00000000000E+00 -0.00000000000E+00 -0.21030845705E+03  0.21030845705E+03  0.00000000000E+00 0. -1.
         25    1    1    2    0    0 -0.40820076822E+02  0.68422951301E+02  0.13530935645E+03  0.20070276749E+03  0.12500000000E+03 0.  0.
         25    1    1    2    0    0  0.13678455732E+03 -0.13034022424E+03 -0.53945308084E+02  0.23288126897E+03  0.12500000000E+03 0.  0.
         25    1    1    2    0    0 -0.95964480494E+02  0.61917272936E+02  0.17537184870E+03  0.24376877471E+03  0.12500000000E+03 0.  0.
</event>
<event>
 5    0  0.5720942E-005  0.4099439E+03  0.7546771E-02  0.1040390E+00
         21   -1    0    0  502  501  0.00000000000E+00  0.00000000000E+00  0.44788574215E+03  0.44788574215E+03  0.00000000000E+00 0. -1.
         21   -1    0    0  501  502 -0.00000000000E+00 -0.00000000000E+00 -0.37521621709E+03  0.37521621709E+03  0.00000000000E+00 0. -1.
         25    1    1    2    0    0 -0.16623449054E+03  0.36565335673E+01  0.59630207695E+02  0.21639786911E+03  0.12500000000E+03 0.  0.
         25    1    1    2    0    0  0.84340498938E+02  0.23304495152E+03 -0.11301917290E+03  0.29970252357E+03  0.12500000000E+03 0.  0.
         25    1    1    2    0    0  0.81893991604E+02 -0.23670148509E+03  0.12605849026E+03  0.30700156656E+03  0.12500000000E+03 0.  0.
</event>
<event>
 5    0  0.5720942E-005  0.2514953E+03  0.7546771E-02  0.1112363E+00
         21   -1    0    0  502  501  0.00000000000E+00  0.00000000000E+00  0.49256320829E+03  0.49256320829E+03  0.00000000000E+00 0.  1.
         21   -1    0    0  501  502 -0.00000000000E+00 -0.00000000000E+00 -0.12840966577E+03  0.12840966577E+03  0.00000000000E+00 0.  1.
         25    1    1    2    0    0 -0.98967265783E+02 -0.14205057953E+02  0.86342984693E+02  0.18186922327E+03  0.12500000000E+03 0.  0.
         25    1    1    2    0    0  0.10260900587E+03 -0.64146233667E+02  0.22031931700E+03  0.28072931593E+03  0.12500000000E+03 0.  0.
         25    1    1    2    0    0 -0.36417400820E+01  0.78351291620E+02  0.57491240828E+02  0.15837433486E+03  0.12500000000E+03 0.  0.
</event>
<event>
 5    0  0.5720942E-005  0.5837821E+03  0.7546771E-02  0.9939636E-01
         21   -1    0    0  502  501  0.00000000000E+00  0.00000000000E+00  0.55992493477E+03  0.55992493477E+03  0.00000000000E+00 0. -1.
         21   -1    0    0  501  502 -0.00000000000E+00 -0.00000000000E+00 -0.60865583131E+03  0.60865583131E+03  0.00000000000E+00 0. -1.
         25    1    1    2    0    0  0.32829650317E+02  0.70626134694E+02 -0.18909564451E+03  0.23968312334E+03  0.12500000000E+03 0.  0.
         25    1    1    2    0    0 -0.35964676823E+03  0.23886857387E+03  0.41321439000E+02  0.45137174790E+03  0.12500000000E+03 0.  0.
         25    1    1    2    0    0  0.32681711792E+03 -0.30949470856E+03  0.99043308966E+02  0.47752589484E+03  0.12500000000E+03 0.  0.
</event>
<event>
 5    0  0.5720942E-005  0.4014921E+03  0.7546771E-02  0.1043264E+00
         21   -1    0    0  502  501  0.00000000000E+00  0.00000000000E+00  0.11752063963E+04  0.11752063963E+04  0.00000000000E+00 0.  1.
         21   -1    0    0  501  502 -0.00000000000E+00 -0.00000000000E+00 -0.13716391152E+03  0.13716391152E+03  0.00000000000E+00 0.  1.
         25    1    1    2    0    0  0.15705626408E+03  0.11737633195E+03  0.15181408046E+03  0.27769837669E+03  0.12500000000E+03 0.  0.
         25    1    1    2    0    0  0.53579189299E+02  0.12751258038E+03  0.34385503293E+03  0.39114124220E+03  0.12500000000E+03 0.  0.
         25    1    1    2    0    0 -0.21063545338E+03 -0.24488891233E+03  0.54237337141E+03  0.64353068894E+03  0.12500000000E+03 0.  0.
</event>
<event>
 5    0  0.5720942E-005  0.3101049E+03  0.7546771E-02  0.1080296E+00
         21   -1    0    0  502  501  0.00000000000E+00  0.00000000000E+00  0.75575243472E+02  0.75575243472E+02  0.00000000000E+00 0. -1.
         21   -1    0    0  501  502 -0.00000000000E+00 -0.00000000000E+00 -0.12724412074E+04  0.12724412074E+04  0.00000000000E+00 0. -1.
         25    1    1    2    0    0 -0.10109351175E+03  0.68844291980E+02 -0.15567538501E+03  0.23413513225E+03  0.12500000000E+03 0.  0.
         25    1    1    2    0    0  0.13518528949E+03  0.76500253960E+02 -0.57833742919E+03  0.61174057684E+03  0.12500000000E+03 0.  0.
         25    1    1    2    0    0 -0.34091777733E+02 -0.14534454594E+03 -0.46285314972E+03  0.50214074177E+03  0.12500000000E+03 0.  0.
</event>
<event>
 5    0  0.5720942E-005  0.3067888E+03  0.7546771E-02  0.1081895E+00
         21   -1    0    0  502  501  0.00000000000E+00  0.00000000000E+00  0.45291117141E+03  0.45291117141E+03  0.00000000000E+00 0.  1.
         21   -1    0    0  501  502 -0.00000000000E+00 -0.00000000000E+00 -0.20780975920E+03  0.20780975920E+03  0.00000000000E+00 0.  1.
         25    1    1    2    0    0  0.44611187613E+02 -0.62771874277E+02 -0.93370760143E+01  0.14711440191E+03  0.12500000000E+03 0.  0.
         25    1    1    2    0    0 -0.12184391229E+03  0.18139601581E+03  0.10489915964E+03  0.27272566290E+03  0.12500000000E+03 0.  0.
         25    1    1    2    0    0  0.77232724677E+02 -0.11862414153E+03  0.14953932859E+03  0.24088086580E+03  0.12500000000E+03 0.  0.
</event>
<event>
 5    0  0.5720942E-005  0.2514102E+03  0.7546771E-02  0.1112417E+00
         21   -1    0    0  502  501  0.00000000000E+00  0.00000000000E+00  0.18245778478E+03  0.18245778478E+03  0.00000000000E+00 0. -1.
         21   -1    0    0  501  502 -0.00000000000E+00 -0.00000000000E+00 -0.34642034306E+03  0.34642034306E+03  0.00000000000E+00 0. -1.
         25    1    1    2    0    0  0.59974807059E+01  0.85322843599E+02 -0.80587915458E+02  0.17156739064E+03  0.12500000000E+03 0.  0.
         25    1    1    2    0    0 -0.77199024457E+02 -0.43020637667E+01 -0.11815543723E+03  0.18858394544E+03  0.12500000000E+03 0.  0.
         25    1    1    2    0    0  0.71201543751E+02 -0.81020779833E+02  0.34780794406E+02  0.16872679176E+03  0.12500000000E+03 0.  0.
</event>
<event>
 5    0  0.6514763E-005  0.2883549E+03  0.7546771E-02  0.1091211E+00
         21   -1    0    0  502  501  0.00000000000E+00  0.00000000000E+00  0.15278775202E+03  0.15278775202E+03  0.00000000000E+00 0. -1.
         21   -1    0    0  501  502 -0.00000000000E+00 -0.00000000000E+00 -0.54420967090E+03  0.54420967090E+03  0.00000000000E+00 0. -1.
         25    1    1    2    0    0 -0.97225961526E+02  0.60708112371E+01  0.27490699119E+01  0.15850015687E+03  0.12500000000E+03 0.  0.
         25    1    1    2    0    0 -0.61315738139E+02  0.59132879215E+02 -0.12828177300E+03  0.19833691142E+03  0.12500000000E+03 0.  0.
         25    1    1    2    0    0  0.15854169966E+03 -0.65203690452E+02 -0.26588921579E+03  0.34016035462E+03  0.12500000000E+03 0.  0.
</event>
<event>
 5    0  0.5720942E-005  0.3136939E+03  0.7546771E-02  0.1078589E+00
         21   -1    0    0  502  501  0.00000000000E+00  0.00000000000E+00  0.21315078711E+03  0.21315078711E+03  0.00000000000E+00 0.  1.
         21   -1    0    0  501  502 -0.00000000000E+00 -0.00000000000E+00 -0.46166309974E+03  0.46166309974E+03  0.00000000000E+00 0.  1.
         25    1    1    2    0    0  0.53510683515E+02  0.12909566859E+03 -0.20891079989E+03  0.28070947118E+03  0.12500000000E+03 0.  0.
         25    1    1    2    0    0 -0.69782831137E+02 -0.17995589869E+03  0.44558540984E+02  0.23423115201E+03  0.12500000000E+03 0.  0.
         25    1    1    2    0    0  0.16272147622E+02  0.50860230103E+02 -0.84160053723E+02  0.15987326367E+03  0.12500000000E+03 0.  0.
</event>
<event>
 5    0  0.5720942E-005  0.3899111E+03  0.7546771E-02  0.1047330E+00
         21   -1    0    0  502  501  0.00000000000E+00  0.00000000000E+00  0.14310574652E+04  0.14310574652E+04  0.00000000000E+00 0. -1.
         21   -1    0    0  501  502 -0.00000000000E+00 -0.00000000000E+00 -0.10623658537E+03  0.10623658537E+03  0.00000000000E+00 0. -1.
         25    1    1    2    0    0  0.13192421182E+03  0.98569051110E+02  0.20404238507E+03  0.29047917379E+03  0.12500000000E+03 0.  0.
         25    1    1    2    0    0 -0.14217089730E+03 -0.70542108200E+02  0.10978370841E+04  0.11162705839E+04  0.12500000000E+03 0.  0.
         25    1    1    2    0    0  0.10246685476E+02 -0.28026942911E+02  0.22941410624E+02  0.13054429292E+03  0.12500000000E+03 0.  0.
</event>
<event>
 5    0  0.5720942E-005  0.2640178E+03  0.7546771E-02  0.1104753E+00
         21   -1    0    0  502  501  0.00000000000E+00  0.00000000000E+00  0.16699060603E+03  0.16699060603E+03  0.00000000000E+00 0. -1.
         21   -1    0    0  501  502 -0.00000000000E+00 -0.00000000000E+00 -0.41742116978E+03  0.41742116978E+03  0.00000000000E+00 0. -1.
         25    1    1    2    0    0  0.24536218850E+02 -0.89553801335E+02  0.10689571680E+02  0.15608067245E+03  0.12500000000E+03 0.  0.
         25    1    1    2    0    0  0.45192406437E+02  0.85077487565E+02 -0.36557267675E+02  0.16199372306E+03  0.12500000000E+03 0.  0.
         25    1    1    2    0    0 -0.69728625288E+02  0.44763137699E+01 -0.22456286776E+03  0.26633738030E+03  0.12500000000E+03 0.  0.
</event>
<event>
 5    0  0.5720942E-005  0.3457360E+03  0.7546771E-02  0.1064379E+00
         21   -1    0    0  502  501  0.00000000000E+00  0.00000000000E+00  0.10591868178E+03  0.10591868178E+03  0.00000000000E+00 0. -1.
         21   -1    0    0  501  502 -0.00000000000E+00 -0.00000000000E+00 -0.11285393704E+04  0.11285393704E+04  0.00000000000E+00 0. -1.
         25    1    1    2    0    0 -0.15839049028E+03  0.53164004591E+02 -0.60048355577E+03  0.63570390871E+03  0.12500000000E+03 0.  0.
         25    1    1    2    0    0  0.17795780453E+03 -0.13907107163E+03 -0.18898825629E+03  0.31992390372E+03  0.12500000000E+03 0.  0.
         25    1    1    2    0    0 -0.19567314250E+02  0.85907067043E+02 -0.23314887652E+03  0.27883023971E+03  0.12500000000E+03 0.  0.
</event>
<event>
 5    0  0.5720942E-005  0.2889567E+03  0.7546771E-02  0.1090895E+00
         21   -1    0    0  502  501  0.00000000000E+00  0.00000000000E+00  0.68048838503E+03  0.68048838503E+03  0.00000000000E+00 0. -1.
         21   -1    0    0  501  502 -0.00000000000E+00 -0.00000000000E+00 -0.12270005703E+03  0.12270005703E+03  0.00000000000E+00 0. -1.
         25    1    1    2    0    0 -0.91440428050E+02 -0.11219376498E+03  0.26710443206E+03  0.32850961996E+03  0.12500000000E+03 0.  0.
         25    1    1    2    0    0 -0.13004263407E+02  0.13168519321E+03  0.60110230701E+02  0.19169856758E+03  0.12500000000E+03 0.  0.
         25    1    1    2    0    0  0.10444469146E+03 -0.19491428228E+02  0.23057366524E+03  0.28298025452E+03  0.12500000000E+03 0.  0.
</event>
<event>
 5    0  0.5720942E-005  0.2394684E+03  0.7546771E-02  0.1120147E+00
         21   -1    0    0  502  501  0.00000000000E+00  0.00000000000E+00  0.45692772498E+02  0.45692772498E+02  0.00000000000E+00 0.  1.
         21   -1    0    0  501  502 -0.00000000000E+00 -0.00000000000E+00 -0.12550150244E+04  0.12550150244E+04  0.00000000000E+00 0.  1.
         25    1    1    2    0    0  0.53767201005E+02 -0.29895521396E+02 -0.30136350635E+03  0.33200845933E+03  0.12500000000E+03 0.  0.
         25    1    1    2    0    0 -0.97288622765E+02 -0.33007810820E+02 -0.66979111863E+03  0.68905713427E+03  0.12500000000E+03 0.  0.
         25    1    1    2    0    0  0.43521421761E+02  0.62903332215E+02 -0.23816762694E+03  0.27964220332E+03  0.12500000000E+03 0.  0.
</event>
<event>
 5    0  0.5720942E-005  0.3135481E+03  0.7546771E-02  0.1078658E+00
         21   -1    0    0  502  501  0.00000000000E+00  0.00000000000E+00  0.10202993303E+03  0.10202993303E+03  0.00000000000E+00 0.  1.
         21   -1    0    0  501  502 -0.00000000000E+00 -0.00000000000E+00 -0.96356455501E+03  0.96356455501E+03  0.00000000000E+00 0.  1.
         25    1    1    2    0    0 -0.36961587416E+02 -0.60441594277E+02 -0.17313755175E+03  0.22499101557E+03  0.12500000000E+03 0.  0.
         25    1    1    2    0    0 -0.12673736469E+03  0.16222717758E+03 -0.44439577534E+03  0.50546277993E+03  0.12500000000E+03 0.  0.
         25    1    1    2    0    0  0.16369895210E+03 -0.10178558330E+03 -0.24400129489E+03  0.33514069254E+03  0.12500000000E+03 0.  0.
</event>
<event>
 5    0  0.5720942E-005  0.2691348E+03  0.7546771E-02  0.1101776E+00
         21   -1    0    0  502  501  0.00000000000E+00  0.00000000000E+00  0.13523904303E+03  0.13523904303E+03  0.00000000000E+00 0.  1.
         21   -1    0    0  501  502 -0.00000000000E+00 -0.00000000000E+00 -0.53559654209E+03  0.53559654209E+03  0.00000000000E+00 0.  1.
         25    1    1    2    0    0 -0.13429944815E+03  0.47465192938E+02 -0.21610962418E+03  0.28743287212E+03  0.12500000000E+03 0.  0.
         25    1    1    2    0    0  0.49060570526E+02  0.34991804917E+01  0.67137992493E+01  0.13449631573E+03  0.12500000000E+03 0.  0.
         25    1    1    2    0    0  0.85238877623E+02 -0.50964373429E+02 -0.19096167413E+03  0.24890639727E+03  0.12500000000E+03 0.  0.
</event>
<event>
 5    0  0.6227108E-005  0.4464760E+03  0.7546771E-02  0.1028778E+00
         21   -1    0    0  502  501  0.00000000000E+00  0.00000000000E+00  0.81858750311E+03  0.81858750311E+03  0.00000000000E+00 0. -1.
         21   -1    0    0  501  502 -0.00000000000E+00 -0.00000000000E+00 -0.24351804945E+03  0.24351804945E+03  0.00000000000E+00 0. -1.
         25    1    1    2    0    0  0.69748679070E+02 -0.22325816612E+03  0.23346145694E+03  0.35332469323E+03  0.12500000000E+03 0.  0.
         25    1    1    2    0    0  0.12511917588E+03  0.18296490738E+03  0.39303790908E+03  0.46822512051E+03  0.12500000000E+03 0.  0.
         25    1    1    2    0    0 -0.19486785495E+03  0.40293258737E+02 -0.51429912357E+02  0.24055573882E+03  0.12500000000E+03 0.  0.
</event>
<event>
 5    0  0.6672272E-005  0.3449889E+03  0.7546771E-02  0.1064691E+00
         21   -1    0    0  502  501  0.00000000000E+00  0.00000000000E+00  0.54729763161E+03  0.54729763161E+03  0.00000000000E+00 0. -1.
         21   -1    0    0  501  502 -0.00000000000E+00 -0.00000000000E+00 -0.21746370295E+03  0.21746370295E+03  0.00000000000E+00 0. -1.
         25    1    1    2    0    0 -0.18239220308E+03  0.13399962115E+03  0.11075462874E+03  0.28127282485E+03  0.12500000000E+03 0.  0.
         25    1    1    2    0    0  0.14529967049E+03 -0.24389069899E+02 -0.15220825528E+02  0.19381304008E+03  0.12500000000E+03 0.  0.
         25    1    1    2    0    0  0.37092532592E+02 -0.10961055125E+03  0.23430012546E+03  0.28967546963E+03  0.12500000000E+03 0.  0.
</event>
<event>
 5    0  0.5720942E-005  0.3852251E+03  0.7546771E-02  0.1049019E+00
         21   -1    0    0  502  501  0.00000000000E+00  0.00000000000E+00  0.35831145601E+03  0.35831145601E+03  0.00000000000E+00 0.  1.
         21   -1    0    0  501  502 -0.00000000000E+00 -0.00000000000E+00 -0.41416028676E+03  0.41416028676E+03  0.00000000000E+00 0.  1.
         25    1    1    2    0    0 -0.17254402584E+03 -0.13044612649E+03  0.80823677977E+01  0.24995591099E+03  0.12500000000E+03 0.  0.
         25    1    1    2    0    0  0.19124721257E+03  0.16048309977E+03 -0.19297677711E+03  0.33940441678E+03  0.12500000000E+03 0.  0.
         25    1    1    2    0    0 -0.18703186729E+02 -0.30036973283E+02  0.12904557856E+03  0.18311141500E+03  0.12500000000E+03 0.  0.
</event>
<event>
 5    0  0.6424555E-005  0.2907209E+03  0.7546771E-02  0.1089973E+00
         21   -1    0    0  502  501  0.00000000000E+00  0.00000000000E+00  0.17859156577E+03  0.17859156577E+03  0.00000000000E+00 0. -1.
         21   -1    0    0  501  502 -0.00000000000E+00 -0.00000000000E+00 -0.47325087773E+03  0.47325087773E+03  0.00000000000E+00 0. -1.
         25    1    1    2    0    0  0.11190187922E+03 -0.31442748485E+02 -0.29767796113E+03  0.34314405947E+03  0.12500000000E+03 0.  0.
         25    1    1    2    0    0 -0.46905995367E+02 -0.28981716542E+02  0.54349294308E+02  0.14703386714E+03  0.12500000000E+03 0.  0.
         25    1    1    2    0    0 -0.64995883853E+02  0.60424465027E+02 -0.51330645135E+02  0.16166451689E+03  0.12500000000E+03 0.  0.
</event>
<event>
 5    0  0.5720942E-005  0.2708753E+03  0.7546771E-02  0.1100780E+00
         21   -1    0    0  502  501  0.00000000000E+00  0.00000000000E+00  0.28389383381E+03  0.28389383381E+03  0.00000000000E+00 0. -1.
         21   -1    0    0  501  502 -0.00000000000E+00 -0.00000000000E+00 -0.25845384317E+03  0.25845384317E+03  0.00000000000E+00 0. -1.
         25    1    1    2    0    0 -0.46231384862E+02  0.10808240059E+03 -0.31680805290E+02  0.17449303621E+03  0.12500000000E+03 0.  0.
         25    1    1    2    0    0 -0.80450575178E+02 -0.11914188027E+02 -0.21801126632E+02  0.15071341030E+03  0.12500000000E+03 0.  0.
         25    1    1    2    0    0  0.12668196004E+03 -0.96168212559E+02  0.78921922561E+02  0.21714123046E+03  0.12500000000E+03 0.  0.
</event>
<event>
 5    0  0.6104262E-005  0.3679222E+03  0.7546771E-02  0.1055490E+00
         21   -1    0    0  502  501  0.00000000000E+00  0.00000000000E+00  0.67170940944E+03  0.67170940944E+03  0.00000000000E+00 0.  1.
         21   -1    0    0  501  502 -0.00000000000E+00 -0.00000000000E+00 -0.20152579678E+03  0.20152579678E+03  0.00000000000E+00 0.  1.
         25    1    1    2    0    0  0.11257704206E+02 -0.20222956289E+03  0.32308708596E+03  0.40129016575E+03  0.12500000000E+03 0.  0.
         25    1    1    2    0    0 -0.95992424656E+02 -0.27801337432E+02  0.24245766235E+00  0.16003911628E+03  0.12500000000E+03 0.  0.
         25    1    1    2    0    0  0.84734720450E+02  0.23003090032E+03  0.14685406904E+03  0.31190592419E+03  0.12500000000E+03 0.  0.
</event>
<event>
 5    0  0.5720942E-005  0.3483193E+03  0.7546771E-02  0.1063307E+00
         21   -1    0    0  502  501  0.00000000000E+00  0.00000000000E+00  0.92412479149E+02  0.92412479149E+02  0.00000000000E+00 0.  1.
         21   -1    0    0  501  502 -0.00000000000E+00 -0.00000000000E+00 -0.13128783928E+04  0.13128783928E+04  0.00000000000E+00 0.  1.
         25    1    1    2    0    0  0.16905846042E+03  0.11055127030E+03 -0.51862435627E+03  0.57043717386E+03  0.12500000000E+03 0.  0.
         25    1    1    2    0    0  0.13162864223E+02 -0.11264418511E+03 -0.52609154721E+03  0.55250275065E+03  0.12500000000E+03 0.  0.
         25    1    1    2    0    0 -0.18222132464E+03  0.20929148073E+01 -0.17575001018E+03  0.28235094745E+03  0.12500000000E+03 0.  0.
</event>
<event>
 5    0  0.5720942E-005  0.3395303E+03  0.7546771E-02  0.1066996E+00
         21   -1    0    0  502  501  0.00000000000E+00  0.00000000000E+00  0.18457194747E+03  0.18457194747E+03  0.00000000000E+00 0. -1.
         21   -1    0    0  501  502 -0.00000000000E+00 -0.00000000000E+00 -0.62458485818E+03  0.62458485818E+03  0.00000000000E+00 0. -1.
         25    1    1    2    0    0 -0.10028201195E+02 -0.10729778357E+03 -0.28859124810E+03  0.33245042887E+03  0.12500000000E+03 0.  0.
         25    1    1    2    0    0  0.12206051133E+03  0.16761610603E+03  0.95424055092E+00  0.24211534028E+03  0.12500000000E+03 0.  0.
         25    1    1    2    0    0 -0.11203231013E+03 -0.60318322459E+02 -0.15237590316E+03  0.23459103649E+03  0.12500000000E+03 0.  0.
</event>
<event>
 5    0  0.5720942E-005  0.2744499E+03  0.7546771E-02  0.1098760E+00
         21   -1    0    0  502  501  0.00000000000E+00  0.00000000000E+00  0.33890617342E+03  0.33890617342E+03  0.00000000000E+00 0.  1.
         21   -1    0    0  501  502 -0.00000000000E+00 -0.00000000000E+00 -0.22225246395E+03  0.22225246395E+03  0.00000000000E+00 0.  1.
         25    1    1    2    0    0  0.27454221405E+02  0.39796620541E+02  0.23810650539E+02  0.13612293105E+03  0.12500000000E+03 0.  0.
         25    1    1    2    0    0 -0.94120277365E+02 -0.58663024832E+02  0.18938219919E+03  0.25256799968E+03  0.12500000000E+03 0.  0.
         25    1    1    2    0    0  0.66666055960E+02  0.18866404291E+02 -0.96539140258E+02  0.17246770663E+03  0.12500000000E+03 0.  0.
</event>
<event>
 5    0  0.5720942E-005  0.2356228E+03  0.7546771E-02  0.1122744E+00
         21   -1    0    0  502  501  0.00000000000E+00  0.00000000000E+00  0.63519794202E+03  0.63519794202E+03  0.00000000000E+00 0.  1.
         21   -1    0    0  501  502 -0.00000000000E+00 -0.00000000000E+00 -0.87402850615E+02  0.87402850615E+02  0.00000000000E+00 0.  1.
         25    1    1    2    0    0 -0.62055765590E+02  0.89530303205E+02  0.21802491340E+03  0.27390957650E+03  0.12500000000E+03 0.  0.
         25    1    1    2    0    0  0.47748845367E+02 -0.66609853646E+02  0.83545863246E+02  0.17123590775E+03  0.12500000000E+03 0.  0.
         25    1    1    2    0    0  0.14306920224E+02 -0.22920449559E+02  0.24622431476E+03  0.27745530839E+03  0.12500000000E+03 0.  0.
</event>
<event>
 5    0  0.5720942E-005  0.3411214E+03  0.7546771E-02  0.1066319E+00
         21   -1    0    0  502  501  0.00000000000E+00  0.00000000000E+00  0.20006392029E+04  0.20006392029E+04  0.00000000000E+00 0. -1.
         21   -1    0    0  501  502 -0.00000000000E+00 -0.00000000000E+00 -0.58163328236E+02  0.58163328236E+02  0.00000000000E+00 0. -1.
         25    1    1    2    0    0 -0.10477020019E+03 -0.96282975329E+01  0.85007048133E+03  0.86562943699E+03  0.12500000000E+03 0.  0.
         25    1    1    2    0    0 -0.14628559735E+03  0.13818750975E+02  0.35158994431E+03  0.40103730850E+03  0.12500000000E+03 0.  0.
         25    1    1    2    0    0  0.25105579754E+03 -0.41904534423E+01  0.74081544907E+03  0.79213578568E+03  0.12500000000E+03 0.  0.
</event>
<event>
 5    0  0.5720942E-005  0.2496531E+03  0.7546771E-02  0.1113524E+00
         21   -1    0    0  502  501  0.00000000000E+00  0.00000000000E+00  0.15455422502E+03  0.15455422502E+03  0.00000000000E+00 0. -1.
         21   -1    0    0  501  502 -0.00000000000E+00 -0.00000000000E+00 -0.40326741410E+03  0.40326741410E+03  0.00000000000E+00 0. -1.
         25    1    1    2    0    0  0.89974160491E+02 -0.34467458510E+02 -0.10640831003E+02  0.15818211826E+03  0.12500000000E+03 0.  0.
         25    1    1    2    0    0  0.98862016059E+01 -0.49748989778E+02 -0.13803907970E+03  0.19300903215E+03  0.12500000000E+03 0.  0.
         25    1    1    2    0    0 -0.99860362097E+02  0.84216448288E+02 -0.10003327838E+03  0.20663048871E+03  0.12500000000E+03 0.  0.
</event>
<event>
 5    0  0.5720942E-005  0.2521015E+03  0.7546771E-02  0.1111984E+00
         21   -1    0    0  502  501  0.00000000000E+00  0.00000000000E+00  0.52538328690E+03  0.52538328690E+03  0.00000000000E+00 0.  1.
         21   -1    0    0  501  502 -0.00000000000E+00 -0.00000000000E+00 -0.12096910350E+03  0.12096910350E+03  0.00000000000E+00 0.  1.
         25    1    1    2    0    0 -0.35920219211E+02 -0.45542546715E+02  0.17007325551E+03  0.21889334835E+03  0.12500000000E+03 0.  0.
         25    1    1    2    0    0  0.21130788514E+02 -0.27945171762E+02 -0.22875065864E+02  0.13181696206E+03  0.12500000000E+03 0.  0.
         25    1    1    2    0    0  0.14789430697E+02  0.73487718477E+02  0.25721599374E+03  0.29564208000E+03  0.12500000000E+03 0.  0.
</event>
<event>
 5    0  0.5720942E-005  0.2614855E+03  0.7546771E-02  0.1106254E+00
         21   -1    0    0  502  501  0.00000000000E+00  0.00000000000E+00  0.33181863851E+03  0.33181863851E+03  0.00000000000E+00 0. -1.
         21   -1    0    0  501  502 -0.00000000000E+00 -0.00000000000E+00 -0.20606028294E+03  0.20606028294E+03  0.00000000000E+00 0. -1.
         25    1    1    2    0    0  0.16758065997E+02 -0.22801434594E+02 -0.29918163546E+02  0.13160864221E+03  0.12500000000E+03 0.  0.
         25    1    1    2    0    0  0.10577799427E+02  0.14182527790E+03  0.31635888726E+02  0.19196908279E+03  0.12500000000E+03 0.  0.
         25    1    1    2    0    0 -0.27335865424E+02 -0.11902384330E+03  0.12404063038E+03  0.21430119645E+03  0.12500000000E+03 0.  0.
</event>
<event>
 5    0  0.5720942E-005  0.3475228E+03  0.7546771E-02  0.1063636E+00
         21   -1    0    0  502  501  0.00000000000E+00  0.00000000000E+00  0.16276393249E+04  0.16276393249E+04  0.00000000000E+00 0.  1.
         21   -1    0    0  501  502 -0.00000000000E+00 -0.00000000000E+00 -0.74200764592E+02  0.74200764592E+02  0.00000000000E+00 0.  1.
         25    1    1    2    0    0  0.88877210158E+02 -0.97371348981E+02  0.27458112551E+03  0.32924175399E+03  0.12500000000E+03 0.  0.
         25    1    1    2    0    0  0.11730735282E+03  0.76792678885E+02  0.23390484364E+03  0.29999101059E+03  0.12500000000E+03 0.  0.
         25    1    1    2    0    0 -0.20618456298E+03  0.20578670095E+02  0.10449525911E+04  0.10726073249E+04  0.12500000000E+03 0.  0.
</event>
<event>
 5    0  0.5720942E-005  0.3776659E+03  0.7546771E-02  0.1051800E+00
         21   -1    0    0  502  501  0.00000000000E+00  0.00000000000E+00  0.65139008724E+03  0.65139008724E+03  0.00000000000E+00 0. -1.
         21   -1    0    0  501  502 -0.00000000000E+00 -0.00000000000E+00 -0.21896484587E+03  0.21896484587E+03  0.00000000000E+00 0. -1.
         25    1    1    2    0    0 -0.20995799956E+02  0.13339781898E+03  0.10889337314E+02  0.18433496519E+03  0.12500000000E+03 0.  0.
         25    1    1    2    0    0  0.23294833914E+03 -0.22331145595E+02  0.25969473327E+03  0.37125458012E+03  0.12500000000E+03 0.  0.
         25    1    1    2    0    0 -0.21195253918E+03 -0.11106667338E+03  0.16184117078E+03  0.31476538781E+03  0.12500000000E+03 0.  0.
</event>
<event>
 5    0  0.5720942E-005  0.2696650E+03  0.7546771E-02  0.1101472E+00
         21   -1    0    0  502  501  0.00000000000E+00  0.00000000000E+00  0.65469537758E+03  0.65469537758E+03  0.00000000000E+00 0.  1.
         21   -1    0    0  501  502 -0.00000000000E+00 -0.00000000000E+00 -0.11107331414E+03  0.11107331414E+03  0.00000000000E+00 0.  1.
         25    1    1    2    0    0 -0.56688763860E+02  0.30092627602E+02  0.14256602780E+03  0.20017306129E+03  0.12500000000E+03 0.  0.
         25    1    1    2    0    0 -0.16709605012E+01 -0.15935173606E+03  0.15361040017E+03  0.25419858956E+03  0.12500000000E+03 0.  0.
         25    1    1    2    0    0  0.58359724362E+02  0.12925910846E+03  0.24744563547E+03  0.31139704087E+03  0.12500000000E+03 0.  0.
</event>
<event>
 5    0  0.5720942E-005  0.3610904E+03  0.7546771E-02  0.1058153E+00
         21   -1    0    0  502  501  0.00000000000E+00  0.00000000000E+00  0.13947673162E+04  0.13947673162E+04  0.00000000000E+00 0.  1.
         21   -1    0    0  501  502 -0.00000000000E+00 -0.00000000000E+00 -0.93482464478E+02  0.93482464478E+02  0.00000000000E+00 0.  1.
         25    1    1    2    0    0  0.72726009898E+02  0.36601467202E+02  0.21738021059E+03  0.26364350148E+03  0.12500000000E+03 0.  0.
         25    1    1    2    0    0  0.14220523825E+03 -0.92822972031E+02  0.15592709481E+03  0.26225310831E+03  0.12500000000E+03 0.  0.
         25    1    1    2    0    0 -0.21493124815E+03  0.56221504829E+02  0.92797754627E+03  0.96235317084E+03  0.12500000000E+03 0.  0.
</event>
<event>
 5    0  0.5822752E-005  0.3395181E+03  0.7546771E-02  0.1067001E+00
         21   -1    0    0  502  501  0.00000000000E+00  0.00000000000E+00  0.52153819045E+03  0.52153819045E+03  0.00000000000E+00 0. -1.
         21   -1    0    0  501  502 -0.00000000000E+00 -0.00000000000E+00 -0.22102414039E+03  0.22102414039E+03  0.00000000000E+00 0. -1.
         25    1    1    2    0    0 -0.16700284763E+03 -0.50954652302E+02  0.30180800787E+03  0.37040437541E+03  0.12500000000E+03 0.  0.
         25    1    1    2    0    0  0.10094549982E+03 -0.35690289919E+02 -0.86278016041E+02  0.18582972524E+03  0.12500000000E+03 0.  0.
         25    1    1    2    0    0  0.66057347807E+02  0.86644942220E+02  0.84984058235E+02  0.18632823019E+03  0.12500000000E+03 0.  0.
</event>
<event>
 5    0  0.5720942E-005  0.2939562E+03  0.7546771E-02  0.1088301E+00
         21   -1    0    0  502  501  0.00000000000E+00  0.00000000000E+00  0.17649701053E+02  0.17649701053E+02  0.00000000000E+00 0.  1.
         21   -1    0    0  501  502 -0.00000000000E+00 -0.00000000000E+00 -0.48958485639E+04  0.48958485639E+04  0.00000000000E+00 0.  1.
         25    1    1    2    0    0 -0.22335174662E+02  0.42749675947E+02 -0.11194579201E+04  0.11274473068E+04  0.12500000000E+03 0.  0.
         25    1    1    2    0    0  0.65318360966E+02 -0.20041012736E+03 -0.22618533245E+04  0.22750903650E+04  0.12500000000E+03 0.  0.
         25    1    1    2    0    0 -0.42983186304E+02  0.15766045142E+03 -0.14968876183E+04  0.15109605932E+04  0.12500000000E+03 0.  0.
</event>
<event>
 5    0  0.5720942E-005  0.2894781E+03  0.7546771E-02  0.1090622E+00
         21   -1    0    0  502  501  0.00000000000E+00  0.00000000000E+00  0.65608685246E+02  0.65608685246E+02  0.00000000000E+00 0. -1.
         21   -1    0    0  501  502 -0.00000000000E+00 -0.00000000000E+00 -0.12772331047E+04  0.12772331047E+04  0.00000000000E+00 0. -1.
         25    1    1    2    0    0 -0.62994361324E+02 -0.34383600328E+01 -0.60646142509E+03  0.62241511228E+03  0.12500000000E+03 0.  0.
         25    1    1    2    0    0 -0.13657200153E+02  0.10500528517E+02 -0.54889553096E+03  0.56321229046E+03  0.12500000000E+03 0.  0.
         25    1    1    2    0    0  0.76651561477E+02 -0.70621684845E+01 -0.56267463379E+02  0.15721438718E+03  0.12500000000E+03 0.  0.
</event>
<event>
 5    0  0.5720942E-005  0.3755784E+03  0.7546771E-02  0.1052580E+00
         21   -1    0    0  502  501  0.00000000000E+00  0.00000000000E+00  0.81688588633E+03  0.81688588633E+03  0.00000000000E+00 0. -1.
         21   -1    0    0  501  502 -0.00000000000E+00 -0.00000000000E+00 -0.17267910472E+03  0.17267910472E+03  0.00000000000E+00 0. -1.
         25    1    1    2    0    0 -0.64601542290E+02  0.26558737656E+03  0.28576941531E+03  0.41472782953E+03  0.12500000000E+03 0.  0.
         25    1    1    2    0    0  0.90607018364E+02 -0.22432214629E+03  0.34567448777E+03  0.44005216575E+03  0.12500000000E+03 0.  0.
         25    1    1    2    0    0 -0.26005476074E+02 -0.41265230279E+02  0.12762878524E+02  0.13478499577E+03  0.12500000000E+03 0.  0.
</event>
<event>
 5    0  0.5720942E-005  0.2972209E+03  0.7546771E-02  0.1086638E+00
         21   -1    0    0  502  501  0.00000000000E+00  0.00000000000E+00  0.11049442973E+03  0.11049442973E+03  0.00000000000E+00 0. -1.
         21   -1    0    0  501  502 -0.00000000000E+00 -0.00000000000E+00 -0.79949984211E+03  0.79949984211E+03  0.00000000000E+00 0. -1.
         25    1    1    2    0    0 -0.51730241832E+02  0.62192712635E+02 -0.50461793845E+03  0.52612566487E+03  0.12500000000E+03 0.  0.
         25    1    1    2    0    0 -0.61625648533E+02 -0.26683839015E+02 -0.15907639564E+02  0.14278585651E+03  0.12500000000E+03 0.  0.
         25    1    1    2    0    0  0.11335589036E+03 -0.35508873621E+02 -0.16847983437E+03  0.24108275047E+03  0.12500000000E+03 0.  0.
</event>
<event>
 5    0  0.5720942E-005  0.2737833E+03  0.7546771E-02  0.1099134E+00
         21   -1    0    0  502  501  0.00000000000E+00  0.00000000000E+00  0.99120784229E+03  0.99120784229E+03  0.00000000000E+00 0. -1.
         21   -1    0    0  501  502 -0.00000000000E+00 -0.00000000000E+00 -0.75622175173E+02  0.75622175173E+02  0.00000000000E+00 0. -1.
         25    1    1    2    0    0  0.34236580603E+01  0.12476923995E+03  0.30822198663E+03  0.35525325856E+03  0.12500000000E+03 0.  0.
         25    1    1    2    0    0  0.20855610274E+02 -0.65107845762E+02  0.53457391534E+03  0.55323436176E+03  0.12500000000E+03 0.  0.
         25    1    1    2    0    0 -0.24279268335E+02 -0.59661394186E+02  0.72789765144E+02  0.15834239716E+03  0.12500000000E+03 0.  0.
</event>
<event>
 5    0  0.5720942E-005  0.2886762E+03  0.7546771E-02  0.1091042E+00
         21   -1    0    0  502  501  0.00000000000E+00  0.00000000000E+00  0.42939293132E+03  0.42939293132E+03  0.00000000000E+00 0. -1.
         21   -1    0    0  501  502 -0.00000000000E+00 -0.00000000000E+00 -0.19407392908E+03  0.19407392908E+03  0.00000000000E+00 0. -1.
         25    1    1    2    0    0 -0.87161369423E+02 -0.16114947200E+03  0.11744204577E+03  0.25096591554E+03  0.12500000000E+03 0.  0.
         25    1    1    2    0    0  0.45095769241E+02  0.77206872222E+02  0.14791739388E+03  0.21330514512E+03  0.12500000000E+03 0.  0.
         25    1    1    2    0    0  0.42065600183E+02  0.83942599779E+02 -0.30040437414E+02  0.15919579974E+03  0.12500000000E+03 0.  0.
</event>
<event>
 5    0  0.5720942E-005  0.3267601E+03  0.7546771E-02  0.1072579E+00
         21   -1    0    0  502  501  0.00000000000E+00  0.00000000000E+00  0.30209938439E+03  0.30209938439E+03  0.00000000000E+00 0. -1.
         21   -1    0    0  501  502 -0.00000000000E+00 -0.00000000000E+00 -0.35343383709E+03  0.35343383709E+03  0.00000000000E+00 0. -1.
         25    1    1    2    0    0 -0.16904215272E+03  0.22674777832E+02  0.94999282306E+01  0.21167107403E+03  0.12500000000E+03 0.  0.
         25    1    1    2    0    0  0.78789248859E+01 -0.41606970964E+02 -0.16723684327E+03  0.21304079242E+03  0.12500000000E+03 0.  0.
         25    1    1    2    0    0  0.16116322784E+03  0.18932193132E+02  0.10640246233E+03  0.23082135502E+03  0.12500000000E+03 0.  0.
</event>
<event>
 5    0  0.5720942E-005  0.2856796E+03  0.7546771E-02  0.1092627E+00
         21   -1    0    0  502  501  0.00000000000E+00  0.00000000000E+00  0.29432766727E+03  0.29432766727E+03  0.00000000000E+00 0.  1.
         21   -1    0    0  501  502 -0.00000000000E+00 -0.00000000000E+00 -0.27728559808E+03  0.27728559808E+03  0.00000000000E+00 0.  1.
         25    1    1    2    0    0 -0.11997924863E+03  0.26736585574E+02  0.53687994204E+02  0.18335011816E+03  0.12500000000E+03 0.  0.
         25    1    1    2    0    0  0.32445849933E+02 -0.10958923446E+03  0.71336509784E+02  0.18378365301E+03  0.12500000000E+03 0.  0.
         25    1    1    2    0    0  0.87533398694E+02  0.82852648883E+02 -0.10798243479E+03  0.20447949417E+03  0.12500000000E+03 0.  0.
</event>
<event>
 5    0  0.5720942E-005  0.2864974E+03  0.7546771E-02  0.1092192E+00
         21   -1    0    0  502  501  0.00000000000E+00  0.00000000000E+00  0.35286540774E+02  0.35286540774E+02  0.00000000000E+00 0.  1.
         21   -1    0    0  501  502 -0.00000000000E+00 -0.00000000000E+00 -0.23261205731E+04  0.23261205731E+04  0.00000000000E+00 0.  1.
         25    1    1    2    0    0 -0.53308638209E+02 -0.26347083247E+02 -0.43001939037E+03  0.45174954986E+03  0.12500000000E+03 0.  0.
         25    1    1    2    0    0  0.43853378852E+02 -0.10858526408E+03 -0.37254367004E+03  0.41003373581E+03  0.12500000000E+03 0.  0.
         25    1    1    2    0    0  0.94552593573E+01  0.13493234733E+03 -0.14882709720E+04  0.14996238282E+04  0.12500000000E+03 0.  0.
</event>
<event>
 5    0  0.5720942E-005  0.2685858E+03  0.7546771E-02  0.1102092E+00
         21   -1    0    0  502  501  0.00000000000E+00  0.00000000000E+00  0.11770095175E+04  0.11770095175E+04  0.00000000000E+00 0.  1.
         21   -1    0    0  501  502 -0.00000000000E+00 -0.00000000000E+00 -0.61289499276E+02  0.61289499276E+02  0.00000000000E+00 0.  1.
         25    1    1    2    0    0 -0.24072610344E+01  0.53086521754E+02  0.48546153072E+03  0.50410502032E+03  0.12500000000E+03 0.  0.
         25    1    1    2    0    0 -0.52957683201E+02  0.77824797232E+02  0.43482125427E+03  0.46212091323E+03  0.12500000000E+03 0.  0.
         25    1    1    2    0    0  0.55364944235E+02 -0.13091131899E+03  0.19543723324E+03  0.27207308324E+03  0.12500000000E+03 0.  0.
</event>
<event>
 5    0  0.5720942E-005  0.2399704E+03  0.7546771E-02  0.1119813E+00
         21   -1    0    0  502  501  0.00000000000E+00  0.00000000000E+00  0.38135258060E+03  0.38135258060E+03  0.00000000000E+00 0.  1.
         21   -1    0    0  501  502 -0.00000000000E+00 -0.00000000000E+00 -0.15100405543E+03  0.15100405543E+03  0.00000000000E+00 0.  1.
         25    1    1    2    0    0 -0.41989810088E+02  0.13011492537E+02  0.82143877667E+01  0.13275887637E+03  0.12500000000E+03 0.  0.
         25    1    1    2    0    0  0.71415819857E+02 -0.98187345308E+02  0.87605429847E+02  0.19504021494E+03  0.12500000000E+03 0.  0.
         25    1    1    2    0    0 -0.29426009770E+02  0.85175852771E+02  0.13452870756E+03  0.20455754472E+03  0.12500000000E+03 0.  0.
</event>
<event>
 5    0  0.5720942E-005  0.4654701E+03  0.7546771E-02  0.1023207E+00
         21   -1    0    0  502  501  0.00000000000E+00  0.00000000000E+00  0.70424503166E+03  0.70424503166E+03  0.00000000000E+00 0.  1.
         21   -1    0    0  501  502 -0.00000000000E+00 -0.00000000000E+00 -0.30765206510E+03  0.30765206510E+03  0.00000000000E+00 0.  1.
         25    1    1    2    0    0 -0.12500242952E+02  0.25743873439E+02 -0.11401624588E+03  0.17159168808E+03  0.12500000000E+03 0.  0.
         25    1    1    2    0    0 -0.29936068436E+03 -0.45491968823E+02  0.21058532293E+03  0.38943230067E+03  0.12500000000E+03 0.  0.
         25    1    1    2    0    0  0.31186092731E+03  0.19748095385E+02  0.30002388950E+03  0.45087310801E+03  0.12500000000E+03 0.  0.
</event>
<event>
 5    0  0.5720942E-005  0.3700331E+03  0.7546771E-02  0.1054680E+00
         21   -1    0    0  502  501  0.00000000000E+00  0.00000000000E+00  0.48727857582E+03  0.48727857582E+03  0.00000000000E+00 0. -1.
         21   -1    0    0  501  502 -0.00000000000E+00 -0.00000000000E+00 -0.28099844021E+03  0.28099844021E+03  0.00000000000E+00 0. -1.
         25    1    1    2    0    0 -0.10071690083E+03  0.16523956821E+03  0.20938958336E+03  0.31131496372E+03  0.12500000000E+03 0.  0.
         25    1    1    2    0    0  0.15866222961E+03 -0.18629223625E+03  0.90233966316E+02  0.28921561000E+03  0.12500000000E+03 0.  0.
         25    1    1    2    0    0 -0.57945328781E+02  0.21052668036E+02 -0.93343414064E+02  0.16774644231E+03  0.12500000000E+03 0.  0.
</event>
<event>
 5    0  0.5720942E-005  0.3606379E+03  0.7546771E-02  0.1058332E+00
         21   -1    0    0  502  501  0.00000000000E+00  0.00000000000E+00  0.18772343182E+03  0.18772343182E+03  0.00000000000E+00 0. -1.
         21   -1    0    0  501  502 -0.00000000000E+00 -0.00000000000E+00 -0.69282596514E+03  0.69282596514E+03  0.00000000000E+00 0. -1.
         25    1    1    2    0    0  0.39210848430E+02  0.13709430173E+03  0.27614104864E+02  0.19162431210E+03  0.12500000000E+03 0.  0.
         25    1    1    2    0    0  0.11495349551E+03 -0.36412673513E+02 -0.95204627618E+02  0.19806339905E+03  0.12500000000E+03 0.  0.
         25    1    1    2    0    0 -0.15416434394E+03 -0.10068162822E+03 -0.43751201056E+03  0.49086168580E+03  0.12500000000E+03 0.  0.
</event>
<event>
 5    0  0.5720942E-005  0.2422192E+03  0.7546771E-02  0.1118323E+00
         21   -1    0    0  502  501  0.00000000000E+00  0.00000000000E+00  0.56427487342E+03  0.56427487342E+03  0.00000000000E+00 0. -1.
         21   -1    0    0  501  502 -0.00000000000E+00 -0.00000000000E+00 -0.10397441509E+03  0.10397441509E+03  0.00000000000E+00 0. -1.
         25    1    1    2    0    0  0.81275096295E+02  0.27935391704E+02  0.92539116479E+02  0.17769219304E+03  0.12500000000E+03 0.  0.
         25    1    1    2    0    0 -0.12423921303E+03 -0.56289290457E+02  0.25173094651E+03  0.31240572291E+03  0.12500000000E+03 0.  0.
         25    1    1    2    0    0  0.42964116739E+02  0.28353898753E+02  0.11603039534E+03  0.17815137256E+03  0.12500000000E+03 0.  0.
</event>
<event>
 5    0  0.5720942E-005  0.4031708E+03  0.7546771E-02  0.1042687E+00
         21   -1    0    0  502  501  0.00000000000E+00  0.00000000000E+00  0.62800606901E+03  0.62800606901E+03  0.00000000000E+00 0. -1.
         21   -1    0    0  501  502 -0.00000000000E+00 -0.00000000000E+00 -0.25882984593E+03  0.25882984593E+03  0.00000000000E+00 0. -1.
         25    1    1    2    0    0 -0.13286392743E+03 -0.80716162602E+02  0.22192420418E+03  0.29840119725E+03  0.12500000000E+03 0.  0.
         25    1    1    2    0    0  0.12416230856E+03  0.10058780176E+03 -0.15847035093E+03  0.25743355814E+03  0.12500000000E+03 0.  0.
         25    1    1    2    0    0  0.87016188751E+01 -0.19871639158E+02  0.30572236983E+03  0.33100115956E+03  0.12500000000E+03 0.  0.
</event>
<event>
 5    0  0.5720942E-005  0.2990156E+03  0.7546771E-02  0.1085734E+00
         21   -1    0    0  502  501  0.00000000000E+00  0.00000000000E+00  0.39565501188E+03  0.39565501188E+03  0.00000000000E+00 0.  1.
         21   -1    0    0  501  502 -0.00000000000E+00 -0.00000000000E+00 -0.22598048967E+03  0.22598048967E+03  0.00000000000E+00 0.  1.
         25    1    1    2    0    0 -0.41744228699E+02  0.15084171534E+03  0.43929845337E+02  0.20506251492E+03  0.12500000000E+03 0.  0.
         25    1    1    2    0    0  0.11774256615E+03  0.19241266724E+02  0.53782112363E+02  0.18097252233E+03  0.12500000000E+03 0.  0.
         25    1    1    2    0    0 -0.75998337456E+02 -0.17008298206E+03  0.71962564514E+02  0.23560046429E+03  0.12500000000E+03 0.  0.
</event>
<event>
 5    0  0.5720942E-005  0.3367584E+03  0.7546771E-02  0.1068185E+00
         21   -1    0    0  502  501  0.00000000000E+00  0.00000000000E+00  0.33524273339E+03  0.33524273339E+03  0.00000000000E+00 0.  1.
         21   -1    0    0  501  502 -0.00000000000E+00 -0.00000000000E+00 -0.33828085344E+03  0.33828085344E+03  0.00000000000E+00 0.  1.
         25    1    1    2    0    0 -0.17450391188E+03  0.86071735102E+02  0.17795531963E+03  0.29180996321E+03  0.12500000000E+03 0.  0.
         25    1    1    2    0    0  0.69088158193E+02 -0.69887975577E+02 -0.37044525522E+02  0.16326297683E+03  0.12500000000E+03 0.  0.
         25    1    1    2    0    0  0.10541575369E+03 -0.16183759526E+02 -0.14394891415E+03  0.21845064679E+03  0.12500000000E+03 0.  0.
</event>
<event>
 5    0  0.5720942E-005  0.4623966E+03  0.7546771E-02  0.1024088E+00
         21   -1    0    0  502  501  0.00000000000E+00  0.00000000000E+00  0.31957922754E+03  0.31957922754E+03  0.00000000000E+00 0. -1.
         21   -1    0    0  501  502 -0.00000000000E+00 -0.00000000000E+00 -0.66903799865E+03  0.66903799865E+03  0.00000000000E+00 0. -1.
         25    1    1    2    0    0  0.14332677212E+03  0.49747143484E+02  0.20943820351E+03  0.28723980048E+03  0.12500000000E+03 0.  0.
         25    1    1    2    0    0 -0.15208007670E+03 -0.96203344573E+02 -0.51669347589E+03  0.56123130816E+03  0.12500000000E+03 0.  0.
         25    1    1    2    0    0  0.87533045823E+01  0.46456201089E+02 -0.42203498731E+02  0.14014611756E+03  0.12500000000E+03 0.  0.
</event>
<event>
 5    0  0.5720942E-005  0.4142697E+03  0.7546771E-02  0.1038948E+00
         21   -1    0    0  502  501  0.00000000000E+00  0.00000000000E+00  0.35488145792E+03  0.35488145792E+03  0.00000000000E+00 0. -1.
         21   -1    0    0  501  502 -0.00000000000E+00 -0.00000000000E+00 -0.48359640157E+03  0.48359640157E+03  0.00000000000E+00 0. -1.
         25    1    1    2    0    0 -0.16150149368E+02  0.21122041915E+01  0.26654849115E+02  0.12884397430E+03  0.12500000000E+03 0.  0.
         25    1    1    2    0    0 -0.42434050751E+01 -0.28676467808E+03 -0.23116277630E+03  0.38898999502E+03  0.12500000000E+03 0.  0.
         25    1    1    2    0    0  0.20393554443E+02  0.28465247389E+03  0.75792983540E+02  0.32064389018E+03  0.12500000000E+03 0.  0.
</event>
<event>
 5    0  0.5720942E-005  0.3573624E+03  0.7546771E-02  0.1059633E+00
         21   -1    0    0  502  501  0.00000000000E+00  0.00000000000E+00  0.75660528601E+02  0.75660528601E+02  0.00000000000E+00 0. -1.
         21   -1    0    0  501  502 -0.00000000000E+00 -0.00000000000E+00 -0.16879064710E+04  0.16879064710E+04  0.00000000000E+00 0. -1.
         25    1    1    2    0    0 -0.44701048840E+02  0.57446907697E+02 -0.56632442524E+02  0.15534015745E+03  0.12500000000E+03 0.  0.
         25    1    1    2    0    0  0.77647935432E+02 -0.13684185181E+03 -0.45752775413E+03  0.49971145683E+03  0.12500000000E+03 0.  0.
         25    1    1    2    0    0 -0.32946886591E+02  0.79394944114E+02 -0.10980857457E+04  0.11085153853E+04  0.12500000000E+03 0.  0.
</event>
<event>
 5    0  0.5720942E-005  0.2273248E+03  0.7546771E-02  0.1128537E+00
         21   -1    0    0  502  501  0.00000000000E+00  0.00000000000E+00  0.46543234819E+03  0.46543234819E+03  0.00000000000E+00 0.  1.
         21   -1    0    0  501  502 -0.00000000000E+00 -0.00000000000E+00 -0.11102920137E+03  0.11102920137E+03  0.00000000000E+00 0.  1.
         25    1    1    2    0    0  0.75540563480E+02  0.28501757793E+02  0.66074228217E+02  0.16281747622E+03  0.12500000000E+03 0.  0.
         25    1    1    2    0    0  0.32576297503E+02 -0.43776489086E+01  0.11625604960E+03  0.17384144511E+03  0.12500000000E+03 0.  0.
         25    1    1    2    0    0 -0.10811686098E+03 -0.24124108884E+02  0.17207286901E+03  0.23980262823E+03  0.12500000000E+03 0.  0.
</event>
<event>
 5    0  0.5720942E-005  0.4584716E+03  0.7546771E-02  0.1025225E+00
         21   -1    0    0  502  501  0.00000000000E+00  0.00000000000E+00  0.29641624818E+04  0.29641624818E+04  0.00000000000E+00 0.  1.
         21   -1    0    0  501  502 -0.00000000000E+00 -0.00000000000E+00 -0.70912516979E+02  0.70912516979E+02  0.00000000000E+00 0.  1.
         25    1    1    2    0    0  0.18309436999E+03  0.14509622707E+03  0.63546086096E+03  0.68848527163E+03  0.12500000000E+03 0.  0.
         25    1    1    2    0    0  0.10030107472E+03  0.11244784354E+03  0.11770089343E+04  0.11931805624E+04  0.12500000000E+03 0.  0.
         25    1    1    2    0    0 -0.28339544470E+03 -0.25754407061E+03  0.10807801695E+04  0.11534091647E+04  0.12500000000E+03 0.  0.
</event>
<event>
 5    0  0.5720942E-005  0.4080172E+03  0.7546771E-02  0.1041038E+00
         21   -1    0    0  502  501  0.00000000000E+00  0.00000000000E+00  0.33741051141E+03  0.33741051141E+03  0.00000000000E+00 0. -1.
         21   -1    0    0  501  502 -0.00000000000E+00 -0.00000000000E+00 -0.49339900508E+03  0.49339900508E+03  0.00000000000E+00 0. -1.
         25    1    1    2    0    0  0.35094424816E+02 -0.14703348642E+01 -0.37998021290E+02  0.13528721359E+03  0.12500000000E+03 0.  0.
         25    1    1    2    0    0  0.37622504178E+02 -0.11461815181E+03  0.23768793687E+03  0.29440334386E+03  0.12500000000E+03 0.  0.
         25    1    1    2    0    0 -0.72716928995E+02  0.11608848668E+03 -0.35567840925E+03  0.40111895905E+03  0.12500000000E+03 0.  0.
</event>
<event>
 5    0  0.5720942E-005  0.2423405E+03  0.7546771E-02  0.1118243E+00
         21   -1    0    0  502  501  0.00000000000E+00  0.00000000000E+00  0.19036072168E+04  0.19036072168E+04  0.00000000000E+00 0. -1.
         21   -1    0    0  501  502 -0.00000000000E+00 -0.00000000000E+00 -0.30851374003E+02  0.30851374003E+02  0.00000000000E+00 0. -1.
         25    1    1    2    0    0  0.31521824172E+02 -0.37297257946E+02  0.84384517928E+03  0.85444976298E+03  0.12500000000E+03 0.  0.
         25    1    1    2    0    0  0.40646508217E+02 -0.13934589070E+02  0.75232332236E+03  0.76384664218E+03  0.12500000000E+03 0.  0.
         25    1    1    2    0    0 -0.72168332389E+02  0.51231847016E+02  0.27658734118E+03  0.31616218567E+03  0.12500000000E+03 0.  0.
</event>
<event>
 5    0  0.5720942E-005  0.3558459E+03  0.7546771E-02  0.1060241E+00
         21   -1    0    0  502  501  0.00000000000E+00  0.00000000000E+00  0.10972904032E+04  0.10972904032E+04  0.00000000000E+00 0.  1.
         21   -1    0    0  501  502 -0.00000000000E+00 -0.00000000000E+00 -0.11539909321E+03  0.11539909321E+03  0.00000000000E+00 0.  1.
         25    1    1    2    0    0 -0.25476213138E+03 -0.16006489334E+02  0.39955213960E+03  0.49033342080E+03  0.12500000000E+03 0.  0.
         25    1    1    2    0    0  0.85201708210E+02  0.56140533180E+02  0.43008769003E+03  0.45935989340E+03  0.12500000000E+03 0.  0.
         25    1    1    2    0    0  0.16956042317E+03 -0.40134043846E+02  0.15225148034E+03  0.26299618219E+03  0.12500000000E+03 0.  0.
</event>
<event>
 5    0  0.5720942E-005  0.3300427E+03  0.7546771E-02  0.1071118E+00
         21   -1    0    0  502  501  0.00000000000E+00  0.00000000000E+00  0.87582325825E+03  0.87582325825E+03  0.00000000000E+00 0.  1.
         21   -1    0    0  501  502 -0.00000000000E+00 -0.00000000000E+00 -0.12437233637E+03  0.12437233637E+03  0.00000000000E+00 0.  1.
         25    1    1    2    0    0 -0.49256067347E+02  0.79443338336E+02  0.67141017441E+02  0.16991268463E+03  0.12500000000E+03 0.  0.
         25    1    1    2    0    0  0.41557955051E+02 -0.87119728340E+02  0.25918997264E+02  0.16004282275E+03  0.12500000000E+03 0.  0.
         25    1    1    2    0    0  0.76981122966E+01  0.76763900040E+01  0.65839090717E+03  0.67024008724E+03  0.12500000000E+03 0.  0.
</event>
<event>
 5    0  0.5720942E-005  0.2270835E+03  0.7546771E-02  0.1128709E+00
         21   -1    0    0  502  501  0.00000000000E+00  0.00000000000E+00  0.81045106651E+03  0.81045106651E+03  0.00000000000E+00 0.  1.
         21   -1    0    0  501  502 -0.00000000000E+00 -0.00000000000E+00 -0.63627448113E+02  0.63627448113E+02  0.00000000000E+00 0.  1.
         25    1    1    2    0    0 -0.48449938012E+02 -0.40775350761E+02  0.19983130707E+03  0.24406469840E+03  0.12500000000E+03 0.  0.
         25    1    1    2    0    0  0.10998348120E+03  0.19264098595E+02  0.24636682572E+03  0.29797497285E+03  0.12500000000E+03 0.  0.
         25    1    1    2    0    0 -0.61533543183E+02  0.21511252166E+02  0.30062548562E+03  0.33203884337E+03  0.12500000000E+03 0.  0.
</event>
<event>
 5    0  0.5720942E-005  0.2638703E+03  0.7546771E-02  0.1104840E+00
         21   -1    0    0  502  501  0.00000000000E+00  0.00000000000E+00  0.61844941953E+02  0.61844941953E+02  0.00000000000E+00 0.  1.
         21   -1    0    0  501  502 -0.00000000000E+00 -0.00000000000E+00 -0.11258402741E+04  0.11258402741E+04  0.00000000000E+00 0.  1.
         25    1    1    2    0    0  0.11305869400E+03 -0.67047658422E+02 -0.51203724190E+03  0.54321707805E+03  0.12500000000E+03 0.  0.
         25    1    1    2    0    0  0.10126390571E+02 -0.22549584126E+01 -0.33065650174E+03  0.35364721229E+03  0.12500000000E+03 0.  0.
         25    1    1    2    0    0 -0.12318508457E+03  0.69302616834E+02 -0.22130158855E+03  0.29082092576E+03  0.12500000000E+03 0.  0.
</event>
<event>
 5    0  0.5720942E-005  0.4202777E+03  0.7546771E-02  0.1036976E+00
         21   -1    0    0  502  501  0.00000000000E+00  0.00000000000E+00  0.31938773928E+04  0.31938773928E+04  0.00000000000E+00 0. -1.
         21   -1    0    0  501  502 -0.00000000000E+00 -0.00000000000E+00 -0.55303723078E+02  0.55303723078E+02  0.00000000000E+00 0.  1.
         25    1    1    2    0    0 -0.18568412084E+03  0.16531771813E+01  0.51677136214E+03  0.56316868384E+03  0.12500000000E+03 0.  0.
         25    1    1    2    0    0 -0.14737013859E+03  0.90601779539E+02  0.83856890374E+03  0.86530309518E+03  0.12500000000E+03 0.  0.
         25    1    1    2    0    0  0.33305425943E+03 -0.92254956721E+02  0.17832334039E+04  0.18207093369E+04  0.12500000000E+03 0.  0.
</event>
<event>
 5    0  0.5720942E-005  0.2585741E+03  0.7546771E-02  0.1108003E+00
         21   -1    0    0  502  501  0.00000000000E+00  0.00000000000E+00  0.10049904743E+04  0.10049904743E+04  0.00000000000E+00 0. -1.
         21   -1    0    0  501  502 -0.00000000000E+00 -0.00000000000E+00 -0.66528569557E+02  0.66528569557E+02  0.00000000000E+00 0. -1.
         25    1    1    2    0    0 -0.11752605368E+03 -0.92905626417E+02  0.41616240579E+03  0.45963026087E+03  0.12500000000E+03 0.  0.
         25    1    1    2    0    0  0.50202200981E+02  0.89404847760E+02  0.36927263213E+03  0.40311383582E+03  0.12500000000E+03 0.  0.
         25    1    1    2    0    0  0.67323852698E+02  0.35007786566E+01  0.15302686679E+03  0.20877494714E+03  0.12500000000E+03 0.  0.
</event>
<event>
 5    0  0.5720942E-005  0.4319560E+03  0.7546771E-02  0.1033244E+00
         21   -1    0    0  502  501  0.00000000000E+00  0.00000000000E+00  0.49585709164E+03  0.49585709164E+03  0.00000000000E+00 0.  1.
         21   -1    0    0  501  502 -0.00000000000E+00 -0.00000000000E+00 -0.37628985218E+03  0.37628985218E+03  0.00000000000E+00 0.  1.
         25    1    1    2    0    0  0.55791178954E+02 -0.23261301476E+03 -0.15956558368E+03  0.31354050102E+03  0.12500000000E+03 0.  0.
         25    1    1    2    0    0  0.64721544931E+02  0.80109319626E+01 -0.24308078821E+02  0.14306968968E+03  0.12500000000E+03 0.  0.
         25    1    1    2    0    0 -0.12051272389E+03  0.22460208280E+03  0.30344090196E+03  0.41553675312E+03  0.12500000000E+03 0.  0.
</event>
<event>
 5    0  0.5720942E-005  0.3044326E+03  0.7546771E-02  0.1083046E+00
         21   -1    0    0  502  501  0.00000000000E+00  0.00000000000E+00  0.29991609476E+03  0.29991609476E+03  0.00000000000E+00 0. -1.
         21   -1    0    0  501  502 -0.00000000000E+00 -0.00000000000E+00 -0.30901711669E+03  0.30901711669E+03  0.00000000000E+00 0. -1.
         25    1    1    2    0    0 -0.69269907433E+02 -0.66120976161E+02  0.11957134703E+03  0.19771851354E+03  0.12500000000E+03 0.  0.
         25    1    1    2    0    0  0.60608969750E+02 -0.81037233582E+02  0.26955041472E+02  0.16307070461E+03  0.12500000000E+03 0.  0.
         25    1    1    2    0    0  0.86609376824E+01  0.14715820974E+03 -0.15562741043E+03  0.24814399331E+03  0.12500000000E+03 0.  0.
</event>
<event>
 5    0  0.5720942E-005  0.2961183E+03  0.7546771E-02  0.1087197E+00
         21   -1    0    0  502  501  0.00000000000E+00  0.00000000000E+00  0.98965383809E+02  0.98965383809E+02  0.00000000000E+00 0. -1.
         21   -1    0    0  501  502 -0.00000000000E+00 -0.00000000000E+00 -0.88602717970E+03  0.88602717970E+03  0.00000000000E+00 0. -1.
         25    1    1    2    0    0 -0.16624159919E+03 -0.62486263334E+02 -0.43720988091E+03  0.48817853534E+03  0.12500000000E+03 0.  0.
         25    1    1    2    0    0  0.47487207991E+02  0.11063664007E+03 -0.16436181288E+03  0.23902992822E+03  0.12500000000E+03 0.  0.
         25    1    1    2    0    0  0.11875439120E+03 -0.48150376738E+02 -0.18549010210E+03  0.25778409995E+03  0.12500000000E+03 0.  0.
</event>
<event>
 5    0  0.5720942E-005  0.2315985E+03  0.7546771E-02  0.1125520E+00
         21   -1    0    0  502  501  0.00000000000E+00  0.00000000000E+00  0.20691728366E+03  0.20691728366E+03  0.00000000000E+00 0. -1.
         21   -1    0    0  501  502 -0.00000000000E+00 -0.00000000000E+00 -0.25922361863E+03  0.25922361863E+03  0.00000000000E+00 0. -1.
         25    1    1    2    0    0  0.64268042739E+02  0.67153258183E+02  0.47029634269E+02  0.16271671058E+03  0.12500000000E+03 0.  0.
         25    1    1    2    0    0 -0.26467714982E+02 -0.79830715522E+02 -0.80672119458E+02  0.17089901678E+03  0.12500000000E+03 0.  0.
         25    1    1    2    0    0 -0.37800327756E+02  0.12677457339E+02 -0.18663849780E+02  0.13252517494E+03  0.12500000000E+03 0.  0.
</event>
<event>
 5    0  0.5720942E-005  0.2799527E+03  0.7546771E-02  0.1095715E+00
         21   -1    0    0  502  501  0.00000000000E+00  0.00000000000E+00  0.16106169112E+03  0.16106169112E+03  0.00000000000E+00 0.  1.
         21   -1    0    0  501  502 -0.00000000000E+00 -0.00000000000E+00 -0.48660544080E+03  0.48660544080E+03  0.00000000000E+00 0.  1.
         25    1    1    2    0    0  0.10034499651E+02  0.81513120265E+02 -0.13271386566E+03  0.19995762075E+03  0.12500000000E+03 0.  0.
         25    1    1    2    0    0 -0.98416775060E+02  0.50174249797E+01 -0.21814658679E+03  0.27004438430E+03  0.12500000000E+03 0.  0.
         25    1    1    2    0    0  0.88382275409E+02 -0.86530545245E+02  0.25316702757E+02  0.17766512687E+03  0.12500000000E+03 0.  0.
</event>
<event>
 5    0  0.5720942E-005  0.4151235E+03  0.7546771E-02  0.1038665E+00
         21   -1    0    0  502  501  0.00000000000E+00  0.00000000000E+00  0.13089056047E+03  0.13089056047E+03  0.00000000000E+00 0. -1.
         21   -1    0    0  501  502 -0.00000000000E+00 -0.00000000000E+00 -0.13165768494E+04  0.13165768494E+04  0.00000000000E+00 0. -1.
         25    1    1    2    0    0  0.19451796363E+02 -0.58346841732E+02 -0.43559532104E+03  0.45733030736E+03  0.12500000000E+03 0.  0.
         25    1    1    2    0    0  0.23444537392E+03  0.23787938935E+02 -0.62355690495E+03  0.67821730522E+03  0.12500000000E+03 0.  0.
         25    1    1    2    0    0 -0.25389717028E+03  0.34558902796E+02 -0.12653406289E+03  0.31191979724E+03  0.12500000000E+03 0.  0.
</event>
<event>
 5    0  0.5720942E-005  0.6379903E+03  0.7546771E-02  0.9829579E-01
         21   -1    0    0  502  501  0.00000000000E+00  0.00000000000E+00  0.19775021761E+04  0.19775021761E+04  0.00000000000E+00 0. -1.
         21   -1    0    0  501  502 -0.00000000000E+00 -0.00000000000E+00 -0.20583120702E+03  0.20583120702E+03  0.00000000000E+00 0.  1.
         25    1    1    2    0    0  0.60269332528E+02  0.20660832097E+03  0.11572932400E+04  0.11837533670E+04  0.12500000000E+03 0.  0.
         25    1    1    2    0    0 -0.18174843350E+03 -0.41948628264E+03  0.22980818188E+03  0.52672386965E+03  0.12500000000E+03 0.  0.
         25    1    1    2    0    0  0.12147910098E+03  0.21287796167E+03  0.38456954722E+03  0.47285614640E+03  0.12500000000E+03 0.  0.
</event>
<event>
 5    0  0.5720942E-005  0.3219423E+03  0.7546771E-02  0.1074759E+00
         21   -1    0    0  502  501  0.00000000000E+00  0.00000000000E+00  0.47564027475E+02  0.47564027475E+02  0.00000000000E+00 0.  1.
         21   -1    0    0  501  502 -0.00000000000E+00 -0.00000000000E+00 -0.21791014620E+04  0.21791014620E+04  0.00000000000E+00 0.  1.
         25    1    1    2    0    0 -0.68708934288E+02  0.85376511076E+02 -0.19123187505E+03  0.25338645648E+03  0.12500000000E+03 0.  0.
         25    1    1    2    0    0 -0.36816962235E+02 -0.12287589438E+03 -0.12553223211E+04  0.12680351351E+04  0.12500000000E+03 0.  0.
         25    1    1    2    0    0  0.10552589652E+03  0.37499383308E+02 -0.68498323845E+03  0.70524389791E+03  0.12500000000E+03 0.  0.
</event>
<event>
 5    0  0.5720942E-005  0.3147660E+03  0.7546771E-02  0.1078084E+00
         21   -1    0    0  502  501  0.00000000000E+00  0.00000000000E+00  0.34400046381E+02  0.34400046381E+02  0.00000000000E+00 0.  1.
         21   -1    0    0  501  502 -0.00000000000E+00 -0.00000000000E+00 -0.28801601218E+04  0.28801601218E+04  0.00000000000E+00 0.  1.
         25    1    1    2    0    0  0.13697928793E+03 -0.12988685011E+03 -0.16194824995E+04  0.16352316305E+04  0.12500000000E+03 0.  0.
         25    1    1    2    0    0 -0.15358603144E+03  0.33514825283E+02 -0.78829288123E+03  0.81347561682E+03  0.12500000000E+03 0.  0.
         25    1    1    2    0    0  0.16606743504E+02  0.96372024831E+02 -0.43798469463E+03  0.46585292081E+03  0.12500000000E+03 0.  0.
</event>
<event>
 5    0  0.5720942E-005  0.3635132E+03  0.7546771E-02  0.1057201E+00
         21   -1    0    0  502  501  0.00000000000E+00  0.00000000000E+00  0.34406888074E+03  0.34406888074E+03  0.00000000000E+00 0. -1.
         21   -1    0    0  501  502 -0.00000000000E+00 -0.00000000000E+00 -0.38405631823E+03  0.38405631823E+03  0.00000000000E+00 0. -1.
         25    1    1    2    0    0 -0.26720267565E+03 -0.50195580473E+02  0.26774288393E+02  0.30043090502E+03  0.12500000000E+03 0.  0.
         25    1    1    2    0    0  0.19051118587E+03  0.61212046218E+02 -0.12796193204E+03  0.26840395414E+03  0.12500000000E+03 0.  0.
         25    1    1    2    0    0  0.76691489777E+02 -0.11016465746E+02  0.61200206167E+02  0.15929033981E+03  0.12500000000E+03 0.  0.
</event>
<event>
 5    0  0.5720942E-005  0.3991611E+03  0.7546771E-02  0.1044071E+00
         21   -1    0    0  502  501  0.00000000000E+00  0.00000000000E+00  0.74553816201E+02  0.74553816201E+02  0.00000000000E+00 0.  1.
         21   -1    0    0  501  502 -0.00000000000E+00 -0.00000000000E+00 -0.21371080842E+04  0.21371080842E+04  0.00000000000E+00 0.  1.
         25    1    1    2    0    0 -0.28775659140E+03 -0.71444142163E+02 -0.83411616887E+03  0.89402623256E+03  0.12500000000E+03 0.  0.
         25    1    1    2    0    0  0.25637147577E+03  0.14584140644E+03 -0.93974830457E+03  0.99284838992E+03  0.12500000000E+03 0.  0.
         25    1    1    2    0    0  0.31385115623E+02 -0.74397264282E+02 -0.28868979456E+03  0.32478727792E+03  0.12500000000E+03 0.  0.
</event>
<event>
 5    0  0.5720942E-005  0.2328877E+03  0.7546771E-02  0.1124624E+00
         21   -1    0    0  502  501  0.00000000000E+00  0.00000000000E+00  0.24600613153E+03  0.24600613153E+03  0.00000000000E+00 0. -1.
         21   -1    0    0  501  502 -0.00000000000E+00 -0.00000000000E+00 -0.22046882558E+03  0.22046882558E+03  0.00000000000E+00 0. -1.
         25    1    1    2    0    0 -0.29858134786E+02 -0.75984838154E+02 -0.95440698439E+01  0.14960378709E+03  0.12500000000E+03 0.  0.
         25    1    1    2    0    0  0.43090043971E+02 -0.23947409921E+02 -0.39157274800E+02  0.13995900293E+03  0.12500000000E+03 0.  0.
         25    1    1    2    0    0 -0.13231909185E+02  0.99932248075E+02  0.74238650594E+02  0.17691216710E+03  0.12500000000E+03 0.  0.
</event>
<event>
 5    0  0.5720942E-005  0.3419382E+03  0.7546771E-02  0.1065973E+00
         21   -1    0    0  502  501  0.00000000000E+00  0.00000000000E+00  0.90775471681E+03  0.90775471681E+03  0.00000000000E+00 0.  1.
         21   -1    0    0  501  502 -0.00000000000E+00 -0.00000000000E+00 -0.12880324458E+03  0.12880324458E+03  0.00000000000E+00 0.  1.
         25    1    1    2    0    0 -0.83531960059E+01 -0.14236967274E+03  0.68903742155E+03  0.71465828750E+03  0.12500000000E+03 0.  0.
         25    1    1    2    0    0  0.58974157530E+02  0.86351665277E+02  0.43683122151E+02  0.16872396544E+03  0.12500000000E+03 0.  0.
         25    1    1    2    0    0 -0.50620961524E+02  0.56018007464E+02  0.46230928531E+02  0.15317570845E+03  0.12500000000E+03 0.  0.
</event>
<event>
 5    0  0.5720942E-005  0.3142798E+03  0.7546771E-02  0.1078312E+00
         21   -1    0    0  502  501  0.00000000000E+00  0.00000000000E+00  0.88694589720E+02  0.88694589720E+02  0.00000000000E+00 0. -1.
         21   -1    0    0  501  502 -0.00000000000E+00 -0.00000000000E+00 -0.11136167682E+04  0.11136167682E+04  0.00000000000E+00 0. -1.
         25    1    1    2    0    0 -0.58249247428E+02 -0.14358823323E+02 -0.40948595871E+02  0.14457156753E+03  0.12500000000E+03 0.  0.
         25    1    1    2    0    0  0.17533557478E+03  0.23088651164E+02 -0.54326697763E+03  0.58484156708E+03  0.12500000000E+03 0.  0.
         25    1    1    2    0    0 -0.11708632735E+03 -0.87298278403E+01 -0.44070660498E+03  0.47289822332E+03  0.12500000000E+03 0.  0.
</event>
<event>
 5    0  0.5720942E-005  0.3876468E+03  0.7546771E-02  0.1048143E+00
         21   -1    0    0  502  501  0.00000000000E+00  0.00000000000E+00  0.10660721959E+04  0.10660721959E+04  0.00000000000E+00 0.  1.
         21   -1    0    0  501  502 -0.00000000000E+00 -0.00000000000E+00 -0.14095675744E+03  0.14095675744E+03  0.00000000000E+00 0.  1.
         25    1    1    2    0    0  0.18555852613E+03 -0.53738226594E+02  0.21588919680E+03  0.31552006103E+03  0.12500000000E+03 0.  0.
         25    1    1    2    0    0  0.11782262115E+03 -0.58625412409E+02  0.16010443654E+03  0.24202797283E+03  0.12500000000E+03 0.  0.
         25    1    1    2    0    0 -0.30338114728E+03  0.11236363900E+03  0.54912180507E+03  0.64948091943E+03  0.12500000000E+03 0.  0.
</event>
<event>
 5    0  0.5720942E-005  0.2864206E+03  0.7546771E-02  0.1092233E+00
         21   -1    0    0  502  501  0.00000000000E+00  0.00000000000E+00  0.28542430790E+03  0.28542430790E+03  0.00000000000E+00 0. -1.
         21   -1    0    0  501  502 -0.00000000000E+00 -0.00000000000E+00 -0.28742046597E+03  0.28742046597E+03  0.00000000000E+00 0. -1.
         25    1    1    2    0    0  0.84709589925E+02  0.11641567218E+03 -0.90747396191E+00  0.19066763455E+03  0.12500000000E+03 0.  0.
         25    1    1    2    0    0 -0.10295500514E+03 -0.16948013775E+03 -0.44192636353E+02  0.23853980649E+03  0.12500000000E+03 0.  0.
         25    1    1    2    0    0  0.18245415212E+02  0.53064465567E+02  0.43103952242E+02  0.14363733282E+03  0.12500000000E+03 0.  0.
</event>
<event>
 5    0  0.5720942E-005  0.3190047E+03  0.7546771E-02  0.1076108E+00
         21   -1    0    0  502  501  0.00000000000E+00  0.00000000000E+00  0.80099575236E+03  0.80099575236E+03  0.00000000000E+00 0.  1.
         21   -1    0    0  501  502 -0.00000000000E+00 -0.00000000000E+00 -0.12704687358E+03  0.12704687358E+03  0.00000000000E+00 0.  1.
         25    1    1    2    0    0 -0.10319215751E+03 -0.90497842046E+01  0.29199376231E+02  0.16494885128E+03  0.12500000000E+03 0.  0.
         25    1    1    2    0    0 -0.51704545483E+02 -0.58141060159E+02  0.46117827923E+03  0.48411171038E+03  0.12500000000E+03 0.  0.
         25    1    1    2    0    0  0.15489670299E+03  0.67190844364E+02  0.18357122332E+03  0.27898206429E+03  0.12500000000E+03 0.  0.
</event>
<event>
 5    0  0.5720942E-005  0.3130922E+03  0.7546771E-02  0.1078873E+00
         21   -1    0    0  502  501  0.00000000000E+00  0.00000000000E+00  0.14028745914E+03  0.14028745914E+03  0.00000000000E+00 0.  1.
         21   -1    0    0  501  502 -0.00000000000E+00 -0.00000000000E+00 -0.69875635671E+03  0.69875635671E+03  0.00000000000E+00 0.  1.
         25    1    1    2    0    0  0.18637682589E+03 -0.56317678081E+02 -0.58715321042E+02  0.23870586716E+03  0.12500000000E+03 0.  0.
         25    1    1    2    0    0 -0.65374851420E+02  0.23569498112E+02 -0.14390291146E+03  0.20288528869E+03  0.12500000000E+03 0.  0.
         25    1    1    2    0    0 -0.12100197447E+03  0.32748179969E+02 -0.35585066507E+03  0.39745266001E+03  0.12500000000E+03 0.  0.
</event>
<event>
 5    0  0.5720942E-005  0.2856829E+03  0.7546771E-02  0.1092625E+00
         21   -1    0    0  502  501  0.00000000000E+00  0.00000000000E+00  0.19001055676E+03  0.19001055676E+03  0.00000000000E+00 0.  1.
         21   -1    0    0  501  502 -0.00000000000E+00 -0.00000000000E+00 -0.42952737696E+03  0.42952737696E+03  0.00000000000E+00 0.  1.
         25    1    1    2    0    0 -0.18093171351E+02  0.18273665615E+02 -0.66429460445E+01  0.12779052561E+03  0.12500000000E+03 0.  0.
         25    1    1    2    0    0 -0.68644497779E+02 -0.13013768778E+02 -0.29453142874E+03  0.32749837827E+03  0.12500000000E+03 0.  0.
         25    1    1    2    0    0  0.86737669130E+02 -0.52598968368E+01  0.61657554592E+02  0.16424902983E+03  0.12500000000E+03 0.  0.
</event>
<event>
 5    0  0.5720942E-005  0.5210500E+03  0.7546771E-02  0.1008426E+00
         21   -1    0    0  502  501  0.00000000000E+00  0.00000000000E+00  0.64402729298E+03  0.64402729298E+03  0.00000000000E+00 0.  1.
         21   -1    0    0  501  502 -0.00000000000E+00 -0.00000000000E+00 -0.42155529953E+03  0.42155529953E+03  0.00000000000E+00 0.  1.
         25    1    1    2    0    0 -0.89868893919E+02 -0.14856337983E+03  0.16521011996E+03  0.27030885975E+03  0.12500000000E+03 0.  0.
         25    1    1    2    0    0  0.31370959238E+03 -0.40605945972E+02  0.25069904493E+03  0.42253705439E+03  0.12500000000E+03 0.  0.
         25    1    1    2    0    0 -0.22384069846E+03  0.18916932580E+03 -0.19343717144E+03  0.37273667837E+03  0.12500000000E+03 0.  0.
</event>
<event>
 5    0  0.5720942E-005  0.3860529E+03  0.7546771E-02  0.1048719E+00
         21   -1    0    0  502  501  0.00000000000E+00  0.00000000000E+00  0.17853615861E+03  0.17853615861E+03  0.00000000000E+00 0.  1.
         21   -1    0    0  501  502 -0.00000000000E+00 -0.00000000000E+00 -0.83477107016E+03  0.83477107016E+03  0.00000000000E+00 0.  1.
         25    1    1    2    0    0  0.11684038813E+02 -0.29085119111E+02 -0.42697112761E+03  0.44599529675E+03  0.12500000000E+03 0.  0.
         25    1    1    2    0    0  0.16915328965E+03 -0.97901860786E+02 -0.20963090060E+03  0.31267830790E+03  0.12500000000E+03 0.  0.
         25    1    1    2    0    0 -0.18083732846E+03  0.12698697990E+03 -0.19632883349E+02  0.25463362413E+03  0.12500000000E+03 0.  0.
</event>
<event>
 5    0  0.5720942E-005  0.2288994E+03  0.7546771E-02  0.1127417E+00
         21   -1    0    0  502  501  0.00000000000E+00  0.00000000000E+00  0.37164425984E+03  0.37164425984E+03  0.00000000000E+00 0. -1.
         21   -1    0    0  501  502 -0.00000000000E+00 -0.00000000000E+00 -0.14098137829E+03  0.14098137829E+03  0.00000000000E+00 0. -1.
         25    1    1    2    0    0  0.28205635013E+02  0.29467205955E+02  0.95478787399E+01  0.13183336475E+03  0.12500000000E+03 0.  0.
         25    1    1    2    0    0 -0.52506600188E+02  0.42975976959E+01  0.20810449257E+03  0.24841073293E+03  0.12500000000E+03 0.  0.
         25    1    1    2    0    0  0.24300965175E+02 -0.33764803651E+02  0.13010510240E+02  0.13238154045E+03  0.12500000000E+03 0.  0.
</event>
<event>
 5    0  0.5720942E-005  0.5103308E+03  0.7546771E-02  0.1011117E+00
         21   -1    0    0  502  501  0.00000000000E+00  0.00000000000E+00  0.20998367447E+03  0.20998367447E+03  0.00000000000E+00 0. -1.
         21   -1    0    0  501  502 -0.00000000000E+00 -0.00000000000E+00 -0.12402752027E+04  0.12402752027E+04  0.00000000000E+00 0. -1.
         25    1    1    2    0    0  0.23951327611E+03  0.36216848905E+02 -0.28659097082E+03  0.39552200208E+03  0.12500000000E+03 0.  0.
         25    1    1    2    0    0 -0.43058238960E+02 -0.31727758649E+03 -0.53027633892E+03  0.63193122604E+03  0.12500000000E+03 0.  0.
         25    1    1    2    0    0 -0.19645503715E+03  0.28106073758E+03 -0.21342421850E+03  0.42280564905E+03  0.12500000000E+03 0.  0.
</event>
<event>
 5    0  0.5720942E-005  0.3532043E+03  0.7546771E-02  0.1061308E+00
         21   -1    0    0  502  501  0.00000000000E+00  0.00000000000E+00  0.97059012960E+02  0.97059012960E+02  0.00000000000E+00 0. -1.
         21   -1    0    0  501  502 -0.00000000000E+00 -0.00000000000E+00 -0.12853341281E+04  0.12853341281E+04  0.00000000000E+00 0. -1.
         25    1    1    2    0    0  0.36433615749E+02 -0.25381353920E+03 -0.56831253766E+03  0.63588745977E+03  0.12500000000E+03 0.  0.
         25    1    1    2    0    0 -0.11046985395E+03  0.19034859366E+03 -0.43124678962E+03  0.50003496808E+03  0.12500000000E+03 0.  0.
         25    1    1    2    0    0  0.74036238198E+02  0.63464945538E+02 -0.18871578783E+03  0.24647071318E+03  0.12500000000E+03 0.  0.
</event>
<event>
 5    0  0.5720942E-005  0.3466872E+03  0.7546771E-02  0.1063983E+00
         21   -1    0    0  502  501  0.00000000000E+00  0.00000000000E+00  0.16396737707E+03  0.16396737707E+03  0.00000000000E+00 0.  1.
         21   -1    0    0  501  502 -0.00000000000E+00 -0.00000000000E+00 -0.73302374200E+03  0.73302374200E+03  0.00000000000E+00 0.  1.
         25    1    1    2    0    0 -0.16276416122E+03 -0.15239383690E+02  0.99291838110E+01  0.20602912339E+03  0.12500000000E+03 0.  0.
         25    1    1    2    0    0 -0.19048019096E+02  0.55966401176E+02 -0.31818870685E+03  0.34693532288E+03  0.12500000000E+03 0.  0.
         25    1    1    2    0    0  0.18181218031E+03 -0.40727017486E+02 -0.26079684189E+03  0.34402667281E+03  0.12500000000E+03 0.  0.
</event>
<event>
 5    0  0.5720942E-005  0.2718051E+03  0.7546771E-02  0.1100251E+00
         21   -1    0    0  502  501  0.00000000000E+00  0.00000000000E+00  0.19993124994E+04  0.19993124994E+04  0.00000000000E+00 0. -1.
         21   -1    0    0  501  502 -0.00000000000E+00 -0.00000000000E+00 -0.36951718636E+02  0.36951718636E+02  0.00000000000E+00 0. -1.
         25    1    1    2    0    0 -0.94504801878E+01  0.15099516396E+02  0.35687356679E+03  0.37855125102E+03  0.12500000000E+03 0.  0.
         25    1    1    2    0    0 -0.52134571413E+01  0.15628340388E+03  0.77765949604E+03  0.80301368248E+03  0.12500000000E+03 0.  0.
         25    1    1    2    0    0  0.14663937329E+02 -0.17138292028E+03  0.82782771795E+03  0.85469928456E+03  0.12500000000E+03 0.  0.
</event>
<event>
 5    0  0.5720942E-005  0.2287192E+03  0.7546771E-02  0.1127545E+00
         21   -1    0    0  502  501  0.00000000000E+00  0.00000000000E+00  0.64300336192E+02  0.64300336192E+02  0.00000000000E+00 0. -1.
         21   -1    0    0  501  502 -0.00000000000E+00 -0.00000000000E+00 -0.81356453402E+03  0.81356453402E+03  0.00000000000E+00 0. -1.
         25    1    1    2    0    0  0.96076751939E+02 -0.25078529731E+02 -0.20103586013E+03  0.25671013220E+03  0.12500000000E+03 0.  0.
         25    1    1    2    0    0  0.98887890278E+01  0.25144328091E+02 -0.25356337542E+03  0.28398839895E+03  0.12500000000E+03 0.  0.
         25    1    1    2    0    0 -0.10596554097E+03 -0.65798359780E-01 -0.29466496228E+03  0.33716633906E+03  0.12500000000E+03 0.  0.
</event>
<event>
 5    0  0.5720942E-005  0.4112070E+03  0.7546771E-02  0.1039967E+00
         21   -1    0    0  502  501  0.00000000000E+00  0.00000000000E+00  0.48024213429E+03  0.48024213429E+03  0.00000000000E+00 0. -1.
         21   -1    0    0  501  502 -0.00000000000E+00 -0.00000000000E+00 -0.35209572210E+03  0.35209572210E+03  0.00000000000E+00 0. -1.
         25    1    1    2    0    0  0.21045809529E+03 -0.26209955592E+02 -0.85710282177E+02  0.26067378870E+03  0.12500000000E+03 0.  0.
         25    1    1    2    0    0 -0.21695081003E+03 -0.11258161972E+03 -0.16498867250E+02  0.27502634000E+03  0.12500000000E+03 0.  0.
         25    1    1    2    0    0  0.64927147457E+01  0.13879157531E+03  0.23035556162E+03  0.29663772770E+03  0.12500000000E+03 0.  0.
</event>
<event>
 5    0  0.5720942E-005  0.2521635E+03  0.7546771E-02  0.1111945E+00
         21   -1    0    0  502  501  0.00000000000E+00  0.00000000000E+00  0.36987571752E+03  0.36987571752E+03  0.00000000000E+00 0. -1.
         21   -1    0    0  501  502 -0.00000000000E+00 -0.00000000000E+00 -0.17191295082E+03  0.17191295082E+03  0.00000000000E+00 0. -1.
         25    1    1    2    0    0 -0.63697070579E+02 -0.86869529911E+02 -0.97130735837E+01  0.16529662981E+03  0.12500000000E+03 0.  0.
         25    1    1    2    0    0 -0.86904045492E+01 -0.21513463678E+02  0.12352013581E+03  0.17725850107E+03  0.12500000000E+03 0.  0.
         25    1    1    2    0    0  0.72387475128E+02  0.10838299359E+03  0.84155704473E+02  0.19923353746E+03  0.12500000000E+03 0.  0.
</event>
<event>
 5    0  0.5720942E-005  0.2278175E+03  0.7546771E-02  0.1128185E+00
         21   -1    0    0  502  501  0.00000000000E+00  0.00000000000E+00  0.42012480493E+03  0.42012480493E+03  0.00000000000E+00 0. -1.
         21   -1    0    0  501  502 -0.00000000000E+00 -0.00000000000E+00 -0.12353668693E+03  0.12353668693E+03  0.00000000000E+00 0. -1.
         25    1    1    2    0    0  0.11888152852E+03 -0.43743424199E+01  0.14310481086E+03  0.22417836557E+03  0.12500000000E+03 0.  0.
         25    1    1    2    0    0 -0.59577370522E+02  0.23287389711E+02  0.71853508396E+02  0.15773297774E+03  0.12500000000E+03 0.  0.
         25    1    1    2    0    0 -0.59304158001E+02 -0.18913047292E+02  0.81629798749E+02  0.16175014856E+03  0.12500000000E+03 0.  0.
</event>
<event>
 5    0  0.5720942E-005  0.3048924E+03  0.7546771E-02  0.1082820E+00
         21   -1    0    0  502  501  0.00000000000E+00  0.00000000000E+00  0.56603892388E+02  0.56603892388E+02  0.00000000000E+00 0. -1.
         21   -1    0    0  501  502 -0.00000000000E+00 -0.00000000000E+00 -0.16422790486E+04  0.16422790486E+04  0.00000000000E+00 0. -1.
         25    1    1    2    0    0 -0.15535182637E+03 -0.94524631099E+02 -0.67808176183E+03  0.71308412657E+03  0.12500000000E+03 0.  0.
         25    1    1    2    0    0  0.71435271785E+02  0.55429604601E+02 -0.16026046643E+03  0.22244967121E+03  0.12500000000E+03 0.  0.
         25    1    1    2    0    0  0.83916554585E+02  0.39095026498E+02 -0.74733292792E+03  0.76334914317E+03  0.12500000000E+03 0.  0.
</event>
<event>
 5    0  0.5720942E-005  0.3905478E+03  0.7546771E-02  0.1047103E+00
         21   -1    0    0  502  501  0.00000000000E+00  0.00000000000E+00  0.14619124597E+04  0.14619124597E+04  0.00000000000E+00 0. -1.
         21   -1    0    0  501  502 -0.00000000000E+00 -0.00000000000E+00 -0.10433426744E+03  0.10433426744E+03  0.00000000000E+00 0.  1.
         25    1    1    2    0    0 -0.25290095499E+03  0.81564904167E+02  0.83975994854E+03  0.88962548177E+03  0.12500000000E+03 0.  0.
         25    1    1    2    0    0  0.25419144149E+03 -0.11005008835E+03  0.40125604217E+03  0.50334453633E+03  0.12500000000E+03 0.  0.
         25    1    1    2    0    0 -0.12904864938E+01  0.28485184187E+02  0.11656220156E+03  0.17327670907E+03  0.12500000000E+03 0.  0.
</event>
<event>
 5    0  0.5720942E-005  0.3930104E+03  0.7546771E-02  0.1046227E+00
         21   -1    0    0  502  501  0.00000000000E+00  0.00000000000E+00  0.11135915116E+03  0.11135915116E+03  0.00000000000E+00 0.  1.
         21   -1    0    0  501  502 -0.00000000000E+00 -0.00000000000E+00 -0.13870179776E+04  0.13870179776E+04  0.00000000000E+00 0.  1.
         25    1    1    2    0    0 -0.11739109116E+03 -0.23201729112E+03 -0.69926839731E+03  0.75644826864E+03  0.12500000000E+03 0.  0.
         25    1    1    2    0    0  0.21357151321E+03  0.14374066323E+03 -0.36452783185E+03  0.46344331877E+03  0.12500000000E+03 0.  0.
         25    1    1    2    0    0 -0.96180422044E+02  0.88276627882E+02 -0.21186259732E+03  0.27848554138E+03  0.12500000000E+03 0.  0.
</event>
<event>
 5    0  0.5720942E-005  0.2497415E+03  0.7546771E-02  0.1113468E+00
         21   -1    0    0  502  501  0.00000000000E+00  0.00000000000E+00  0.19292076959E+03  0.19292076959E+03  0.00000000000E+00 0.  1.
         21   -1    0    0  501  502 -0.00000000000E+00 -0.00000000000E+00 -0.32329751006E+03  0.32329751006E+03  0.00000000000E+00 0.  1.
         25    1    1    2    0    0 -0.34954798297E+02  0.25241194174E+02  0.33427745775E+02  0.13638683952E+03  0.12500000000E+03 0.  0.
         25    1    1    2    0    0 -0.80996022246E+02  0.48597135708E+02 -0.68164450254E+02  0.17086084834E+03  0.12500000000E+03 0.  0.
         25    1    1    2    0    0  0.11595082054E+03 -0.73838329882E+02 -0.95640035988E+02  0.20897059178E+03  0.12500000000E+03 0.  0.
</event>
<event>
 5    0  0.5720942E-005  0.4257033E+03  0.7546771E-02  0.1035226E+00
         21   -1    0    0  502  501  0.00000000000E+00  0.00000000000E+00  0.44365875170E+03  0.44365875170E+03  0.00000000000E+00 0. -1.
         21   -1    0    0  501  502 -0.00000000000E+00 -0.00000000000E+00 -0.40847456430E+03  0.40847456430E+03  0.00000000000E+00 0. -1.
         25    1    1    2    0    0  0.32858709351E+03  0.60763995521E+02 -0.11997635591E+03  0.37640545579E+03  0.12500000000E+03 0.  0.
         25    1    1    2    0    0 -0.86760940535E+02 -0.88337442829E+02  0.66839421915E+02  0.18821124549E+03  0.12500000000E+03 0.  0.
         25    1    1    2    0    0 -0.24182615297E+03  0.27573447309E+02  0.88321121396E+02  0.28751661473E+03  0.12500000000E+03 0.  0.
</event>
<event>
 5    0  0.5720942E-005  0.3171169E+03  0.7546771E-02  0.1076984E+00
         21   -1    0    0  502  501  0.00000000000E+00  0.00000000000E+00  0.34841535225E+03  0.34841535225E+03  0.00000000000E+00 0.  1.
         21   -1    0    0  501  502 -0.00000000000E+00 -0.00000000000E+00 -0.28862995083E+03  0.28862995083E+03  0.00000000000E+00 0.  1.
         25    1    1    2    0    0  0.12408770005E+03 -0.10342764645E+03 -0.35152117667E+02  0.20725758546E+03  0.12500000000E+03 0.  0.
         25    1    1    2    0    0 -0.11659543511E+03 -0.50301483691E+02 -0.48970309888E+02  0.18479130391E+03  0.12500000000E+03 0.  0.
         25    1    1    2    0    0 -0.74922649459E+01  0.15372913014E+03  0.14390782897E+03  0.24499641371E+03  0.12500000000E+03 0.  0.
</event>
<event>
 5    0  0.5720942E-005  0.4503304E+03  0.7546771E-02  0.1027624E+00
         21   -1    0    0  502  501  0.00000000000E+00  0.00000000000E+00  0.62768924978E+03  0.62768924978E+03  0.00000000000E+00 0.  1.
         21   -1    0    0  501  502 -0.00000000000E+00 -0.00000000000E+00 -0.32308584270E+03  0.32308584270E+03  0.00000000000E+00 0.  1.
         25    1    1    2    0    0 -0.47738122928E+02  0.12081559222E+03  0.10144149885E+03  0.20685916319E+03  0.12500000000E+03 0.  0.
         25    1    1    2    0    0 -0.13468138519E+03  0.33745821244E+02  0.37853605918E+03  0.42212842130E+03  0.12500000000E+03 0.  0.
         25    1    1    2    0    0  0.18241950812E+03 -0.15456141347E+03 -0.17537415096E+03  0.32178750799E+03  0.12500000000E+03 0.  0.
</event>
<event>
 5    0  0.5720942E-005  0.2946056E+03  0.7546771E-02  0.1087969E+00
         21   -1    0    0  502  501  0.00000000000E+00  0.00000000000E+00  0.29841202159E+03  0.29841202159E+03  0.00000000000E+00 0.  1.
         21   -1    0    0  501  502 -0.00000000000E+00 -0.00000000000E+00 -0.29084775746E+03  0.29084775746E+03  0.00000000000E+00 0.  1.
         25    1    1    2    0    0 -0.28563136797E+02 -0.13640806801E+02 -0.86548910254E+01  0.12923556605E+03  0.12500000000E+03 0.  0.
         25    1    1    2    0    0  0.25784313285E+02  0.11728215795E+03  0.16533899908E+03  0.23954523582E+03  0.12500000000E+03 0.  0.
         25    1    1    2    0    0  0.27788235127E+01 -0.10364135115E+03 -0.14911984392E+03  0.22047897719E+03  0.12500000000E+03 0.  0.
</event>
<event>
 5    0  0.5720942E-005  0.2288613E+03  0.7546771E-02  0.1127444E+00
         21   -1    0    0  502  501  0.00000000000E+00  0.00000000000E+00  0.93817104311E+02  0.93817104311E+02  0.00000000000E+00 0.  1.
         21   -1    0    0  501  502 -0.00000000000E+00 -0.00000000000E+00 -0.55829344162E+03  0.55829344162E+03  0.00000000000E+00 0.  1.
         25    1    1    2    0    0  0.18098367689E+02  0.68544175998E+02 -0.91147371319E+02  0.17017255441E+03  0.12500000000E+03 0.  0.
         25    1    1    2    0    0 -0.70568012733E+02  0.13232626156E+02 -0.14850639394E+03  0.20696399653E+03  0.12500000000E+03 0.  0.
         25    1    1    2    0    0  0.52469645044E+02 -0.81776802154E+02 -0.22482257205E+03  0.27497399500E+03  0.12500000000E+03 0.  0.
</event>
<event>
 5    0  0.5720942E-005  0.3040057E+03  0.7546771E-02  0.1083255E+00
         21   -1    0    0  502  501  0.00000000000E+00  0.00000000000E+00  0.20899332090E+03  0.20899332090E+03  0.00000000000E+00 0. -1.
         21   -1    0    0  501  502 -0.00000000000E+00 -0.00000000000E+00 -0.44221245026E+03  0.44221245026E+03  0.00000000000E+00 0. -1.
         25    1    1    2    0    0  0.91849287216E+02  0.14869524202E+03 -0.16526932643E+03  0.27108212191E+03  0.12500000000E+03 0.  0.
         25    1    1    2    0    0 -0.50172172970E+01 -0.90786115114E+02 -0.13383059199E+03  0.20445762035E+03  0.12500000000E+03 0.  0.
         25    1    1    2    0    0 -0.86832069919E+02 -0.57909126910E+02  0.65880789047E+02  0.17566602890E+03  0.12500000000E+03 0.  0.
</event>
<event>
 5    0  0.5720942E-005  0.4339203E+03  0.7546771E-02  0.1032629E+00
         21   -1    0    0  502  501  0.00000000000E+00  0.00000000000E+00  0.44750240507E+03  0.44750240507E+03  0.00000000000E+00 0. -1.
         21   -1    0    0  501  502 -0.00000000000E+00 -0.00000000000E+00 -0.42075034427E+03  0.42075034427E+03  0.00000000000E+00 0. -1.
         25    1    1    2    0    0  0.28166439688E+03  0.13861539756E+03  0.92827249713E+02  0.35041540948E+03  0.12500000000E+03 0.  0.
         25    1    1    2    0    0 -0.20526248641E+03 -0.16106993327E+03 -0.17116238104E+03  0.33615141293E+03  0.12500000000E+03 0.  0.
         25    1    1    2    0    0 -0.76401910471E+02  0.22454535711E+02  0.10508719212E+03  0.18168592693E+03  0.12500000000E+03 0.  0.
</event>
<event>
 5    0  0.5720942E-005  0.3879228E+03  0.7546771E-02  0.1048044E+00
         21   -1    0    0  502  501  0.00000000000E+00  0.00000000000E+00  0.66960678518E+02  0.66960678518E+02  0.00000000000E+00 0.  1.
         21   -1    0    0  501  502 -0.00000000000E+00 -0.00000000000E+00 -0.22473503691E+04  0.22473503691E+04  0.00000000000E+00 0.  1.
         25    1    1    2    0    0  0.15306119972E+01 -0.17183267357E+03 -0.25545249302E+03  0.33227968140E+03  0.12500000000E+03 0.  0.
         25    1    1    2    0    0 -0.12348830192E+03  0.14503105895E+03 -0.15602668651E+04  0.15768135778E+04  0.12500000000E+03 0.  0.
         25    1    1    2    0    0  0.12195768993E+03  0.26801614621E+02 -0.36467033244E+03  0.40521778840E+03  0.12500000000E+03 0.  0.
</event>
<event>
 5    0  0.5720942E-005  0.3278182E+03  0.7546771E-02  0.1072106E+00
         21   -1    0    0  502  501  0.00000000000E+00  0.00000000000E+00  0.32039215984E+03  0.32039215984E+03  0.00000000000E+00 0. -1.
         21   -1    0    0  501  502 -0.00000000000E+00 -0.00000000000E+00 -0.33541637047E+03  0.33541637047E+03  0.00000000000E+00 0. -1.
         25    1    1    2    0    0  0.18990283749E+03  0.10406896046E+03 -0.14866607972E+03  0.29089523798E+03  0.12500000000E+03 0.  0.
         25    1    1    2    0    0 -0.10497275894E+03 -0.65888103753E+02  0.32223791905E+02  0.17895221457E+03  0.12500000000E+03 0.  0.
         25    1    1    2    0    0 -0.84930078554E+02 -0.38180856703E+02  0.10141807719E+03  0.18596107776E+03  0.12500000000E+03 0.  0.
</event>
<event>
 5    0  0.5720942E-005  0.3096241E+03  0.7546771E-02  0.1080526E+00
         21   -1    0    0  502  501  0.00000000000E+00  0.00000000000E+00  0.28962619687E+03  0.28962619687E+03  0.00000000000E+00 0. -1.
         21   -1    0    0  501  502 -0.00000000000E+00 -0.00000000000E+00 -0.33100273124E+03  0.33100273124E+03  0.00000000000E+00 0. -1.
         25    1    1    2    0    0  0.76076991533E+02  0.84903461388E+02  0.11697657498E+03  0.20568136885E+03  0.12500000000E+03 0.  0.
         25    1    1    2    0    0  0.96541687371E+02 -0.28906619911E+02 -0.90834721563E+02  0.18447719836E+03  0.12500000000E+03 0.  0.
         25    1    1    2    0    0 -0.17261867890E+03 -0.55996841477E+02 -0.67518387795E+02  0.23047036090E+03  0.12500000000E+03 0.  0.
</event>
<event>
 5    0  0.5720942E-005  0.2900895E+03  0.7546771E-02  0.1090302E+00
         21   -1    0    0  502  501  0.00000000000E+00  0.00000000000E+00  0.16415082555E+03  0.16415082555E+03  0.00000000000E+00 0. -1.
         21   -1    0    0  501  502 -0.00000000000E+00 -0.00000000000E+00 -0.51264992164E+03  0.51264992164E+03  0.00000000000E+00 0.  1.
         25    1    1    2    0    0 -0.63299494504E+02 -0.15254202249E+03 -0.31192933416E+02  0.20946095991E+03  0.12500000000E+03 0.  0.
         25    1    1    2    0    0  0.11585462757E+03  0.10055075449E+03 -0.18345553938E+03  0.26984010800E+03  0.12500000000E+03 0.  0.
         25    1    1    2    0    0 -0.52555133062E+02  0.51991268005E+02 -0.13385062329E+03  0.19749967928E+03  0.12500000000E+03 0.  0.
</event>
<event>
 5    0  0.5720942E-005  0.4707490E+03  0.7546771E-02  0.1021709E+00
         21   -1    0    0  502  501  0.00000000000E+00  0.00000000000E+00  0.77034310349E+02  0.77034310349E+02  0.00000000000E+00 0. -1.
         21   -1    0    0  501  502 -0.00000000000E+00 -0.00000000000E+00 -0.28767002916E+04  0.28767002916E+04  0.00000000000E+00 0. -1.
         25    1    1    2    0    0  0.18834820126E+03 -0.36492071098E+02 -0.74980034137E+03  0.78398486470E+03  0.12500000000E+03 0.  0.
         25    1    1    2    0    0 -0.34941547874E+03 -0.13177000844E+03 -0.16019709662E+04  0.16496637501E+04  0.12500000000E+03 0.  0.
         25    1    1    2    0    0  0.16106727748E+03  0.16826207954E+03 -0.44789467366E+03  0.52008598710E+03  0.12500000000E+03 0.  0.
</event>
<event>
 5    0  0.5720942E-005  0.3565375E+03  0.7546771E-02  0.1059963E+00
         21   -1    0    0  502  501  0.00000000000E+00  0.00000000000E+00  0.11758473068E+03  0.11758473068E+03  0.00000000000E+00 0. -1.
         21   -1    0    0  501  502 -0.00000000000E+00 -0.00000000000E+00 -0.10810844021E+04  0.10810844021E+04  0.00000000000E+00 0. -1.
         25    1    1    2    0    0 -0.53285752943E+02 -0.65937426709E+02 -0.36270528872E+03  0.39289596864E+03  0.12500000000E+03 0.  0.
         25    1    1    2    0    0  0.19966548345E+03  0.83971396137E+02 -0.55255436035E+03  0.60651366167E+03  0.12500000000E+03 0.  0.
         25    1    1    2    0    0 -0.14637973051E+03 -0.18033969428E+02 -0.48240022302E+02  0.19925950243E+03  0.12500000000E+03 0.  0.
</event>
<event>
 5    0  0.5720942E-005  0.4549496E+03  0.7546771E-02  0.1026256E+00
         21   -1    0    0  502  501  0.00000000000E+00  0.00000000000E+00  0.28739358585E+03  0.28739358585E+03  0.00000000000E+00 0. -1.
         21   -1    0    0  501  502 -0.00000000000E+00 -0.00000000000E+00 -0.72019388191E+03  0.72019388191E+03  0.00000000000E+00 0. -1.
         25    1    1    2    0    0 -0.17748427445E+03 -0.28905444052E+03 -0.18740392645E+03  0.40718345854E+03  0.12500000000E+03 0.  0.
         25    1    1    2    0    0 -0.14015075367E+02  0.17324619051E+03 -0.26806558293E+03  0.34306678885E+03  0.12500000000E+03 0.  0.
         25    1    1    2    0    0  0.19149934982E+03  0.11580825001E+03  0.22669213311E+02  0.25733722037E+03  0.12500000000E+03 0.  0.
</event>
<event>
 5    0  0.5720942E-005  0.4249559E+03  0.7546771E-02  0.1035465E+00
         21   -1    0    0  502  501  0.00000000000E+00  0.00000000000E+00  0.81606178551E+03  0.81606178551E+03  0.00000000000E+00 0. -1.
         21   -1    0    0  501  502 -0.00000000000E+00 -0.00000000000E+00 -0.22129146520E+03  0.22129146520E+03  0.00000000000E+00 0. -1.
         25    1    1    2    0    0  0.21331940299E+03 -0.13495557492E+03  0.14830613157E+02  0.28206935669E+03  0.12500000000E+03 0.  0.
         25    1    1    2    0    0 -0.25372311092E+01  0.26474581003E+02  0.13329931178E+02  0.12849135397E+03  0.12500000000E+03 0.  0.
         25    1    1    2    0    0 -0.21078217188E+03  0.10848099392E+03  0.56660977597E+03  0.62679254004E+03  0.12500000000E+03 0.  0.
</event>
<event>
 5    0  0.5720942E-005  0.2249290E+03  0.7546771E-02  0.1130261E+00
         21   -1    0    0  502  501  0.00000000000E+00  0.00000000000E+00  0.35590629078E+03  0.35590629078E+03  0.00000000000E+00 0.  1.
         21   -1    0    0  501  502 -0.00000000000E+00 -0.00000000000E+00 -0.14215278683E+03  0.14215278683E+03  0.00000000000E+00 0.  1.
         25    1    1    2    0    0 -0.92621393541E+02 -0.37810723416E+02  0.68058122456E+02  0.17396919664E+03  0.12500000000E+03 0.  0.
         25    1    1    2    0    0  0.31102296394E+02 -0.21782420033E+02  0.10385367404E+03  0.16689041996E+03  0.12500000000E+03 0.  0.
         25    1    1    2    0    0  0.61519097147E+02  0.59593143449E+02  0.41841707454E+02  0.15719946101E+03  0.12500000000E+03 0.  0.
</event>
<event>
 5    0  0.6915818E-005  0.2946156E+03  0.7546771E-02  0.1087964E+00
         21   -1    0    0  502  501  0.00000000000E+00  0.00000000000E+00  0.25789571696E+03  0.25789571696E+03  0.00000000000E+00 0.  1.
         21   -1    0    0  501  502 -0.00000000000E+00 -0.00000000000E+00 -0.33656380939E+03  0.33656380939E+03  0.00000000000E+00 0.  1.
         25    1    1    2    0    0  0.10197987880E+03  0.16785482894E+03 -0.56145718592E+02  0.23948378023E+03  0.12500000000E+03 0.  0.
         25    1    1    2    0    0 -0.50126485253E+02 -0.13243352221E+03 -0.78180755332E+02  0.20442243721E+03  0.12500000000E+03 0.  0.
         25    1    1    2    0    0 -0.51853393544E+02 -0.35421306733E+02  0.55658381494E+02  0.15055330891E+03  0.12500000000E+03 0.  0.
</event>
<event>
 5    0  0.5720942E-005  0.3152276E+03  0.7546771E-02  0.1077867E+00
         21   -1    0    0  502  501  0.00000000000E+00  0.00000000000E+00  0.10342764296E+04  0.10342764296E+04  0.00000000000E+00 0. -1.
         21   -1    0    0  501  502 -0.00000000000E+00 -0.00000000000E+00 -0.96075326933E+02  0.96075326933E+02  0.00000000000E+00 0.  1.
         25    1    1    2    0    0  0.37729236392E+02  0.59609548597E+02  0.40494171731E+03  0.42962726634E+03  0.12500000000E+03 0.  0.
         25    1    1    2    0    0  0.37640922778E+02 -0.18911854164E+03  0.16153226694E+03  0.28089203464E+03  0.12500000000E+03 0.  0.
         25    1    1    2    0    0 -0.75370159170E+02  0.12950899304E+03  0.37172711839E+03  0.41983245554E+03  0.12500000000E+03 0.  0.
</event>
<event>
 5    0  0.5720942E-005  0.3341241E+03  0.7546771E-02  0.1069327E+00
         21   -1    0    0  502  501  0.00000000000E+00  0.00000000000E+00  0.11816346060E+03  0.11816346060E+03  0.00000000000E+00 0.  1.
         21   -1    0    0  501  502 -0.00000000000E+00 -0.00000000000E+00 -0.94478381828E+03  0.94478381828E+03  0.00000000000E+00 0.  1.
         25    1    1    2    0    0  0.43832428354E+02  0.37779566311E+02 -0.16192712787E+03  0.21258873946E+03  0.12500000000E+03 0.  0.
         25    1    1    2    0    0 -0.13838862284E+03  0.11250424815E+03 -0.57600049516E+03  0.61580044430E+03  0.12500000000E+03 0.  0.
         25    1    1    2    0    0  0.94556194485E+02 -0.15028381446E+03 -0.88692734647E+02  0.23455809512E+03  0.12500000000E+03 0.  0.
</event>
<event>
 5    0  0.5720942E-005  0.4610046E+03  0.7546771E-02  0.1024490E+00
         21   -1    0    0  502  501  0.00000000000E+00  0.00000000000E+00  0.39394151972E+03  0.39394151972E+03  0.00000000000E+00 0. -1.
         21   -1    0    0  501  502 -0.00000000000E+00 -0.00000000000E+00 -0.53948424722E+03  0.53948424722E+03  0.00000000000E+00 0. -1.
         25    1    1    2    0    0 -0.17461640000E+03 -0.20823770081E+02 -0.28872251819E+03  0.36043058841E+03  0.12500000000E+03 0.  0.
         25    1    1    2    0    0  0.21194552112E+03  0.11919079650E+03  0.25591387748E+03  0.37449200603E+03  0.12500000000E+03 0.  0.
         25    1    1    2    0    0 -0.37329121114E+02 -0.98367026415E+02 -0.11273408679E+03  0.19850317250E+03  0.12500000000E+03 0.  0.
</event>
<event>
 5    0  0.5720942E-005  0.3860235E+03  0.7546771E-02  0.1048730E+00
         21   -1    0    0  502  501  0.00000000000E+00  0.00000000000E+00  0.25154040388E+03  0.25154040388E+03  0.00000000000E+00 0. -1.
         21   -1    0    0  501  502 -0.00000000000E+00 -0.00000000000E+00 -0.59240652154E+03  0.59240652154E+03  0.00000000000E+00 0. -1.
         25    1    1    2    0    0  0.61884229668E+02 -0.10395427473E+03 -0.32653536670E+03  0.36998174931E+03  0.12500000000E+03 0.  0.
         25    1    1    2    0    0  0.79649051563E+02  0.56946771351E+02  0.15062758823E+03  0.21886200337E+03  0.12500000000E+03 0.  0.
         25    1    1    2    0    0 -0.14153328123E+03  0.47007503383E+02 -0.16495833919E+03  0.25510317273E+03  0.12500000000E+03 0.  0.
</event>
<event>
 5    0  0.5742979E-005  0.2881997E+03  0.7546771E-02  0.1091293E+00
         21   -1    0    0  502  501  0.00000000000E+00  0.00000000000E+00  0.37509952893E+03  0.37509952893E+03  0.00000000000E+00 0.  1.
         21   -1    0    0  501  502 -0.00000000000E+00 -0.00000000000E+00 -0.22143212773E+03  0.22143212773E+03  0.00000000000E+00 0.  1.
         25    1    1    2    0    0  0.19602095455E+02  0.12376444863E+03  0.11206911797E+03  0.20949073510E+03  0.12500000000E+03 0.  0.
         25    1    1    2    0    0 -0.19154536360E+02  0.38973717747E+02  0.10858775030E+03  0.17117869743E+03  0.12500000000E+03 0.  0.
         25    1    1    2    0    0 -0.44755909491E+00 -0.16273816638E+03 -0.66989467063E+02  0.21586222412E+03  0.12500000000E+03 0.  0.
</event>
<event>
 5    0  0.5720942E-005  0.2156742E+03  0.7546771E-02  0.1137150E+00
         21   -1    0    0  502  501  0.00000000000E+00  0.00000000000E+00  0.43405998778E+03  0.43405998778E+03  0.00000000000E+00 0. -1.
         21   -1    0    0  501  502 -0.00000000000E+00 -0.00000000000E+00 -0.10716344510E+03  0.10716344510E+03  0.00000000000E+00 0. -1.
         25    1    1    2    0    0 -0.14482779098E+02 -0.20639981984E+02  0.20020252873E+03  0.23736430282E+03  0.12500000000E+03 0.  0.
         25    1    1    2    0    0 -0.89323826052E+00  0.48471540544E+02  0.18172825527E+02  0.13529796637E+03  0.12500000000E+03 0.  0.
         25    1    1    2    0    0  0.15376017359E+02 -0.27831558560E+02  0.10852118843E+03  0.16856116368E+03  0.12500000000E+03 0.  0.
</event>
<event>
 5    0  0.5720942E-005  0.3094513E+03  0.7546771E-02  0.1080609E+00
         21   -1    0    0  502  501  0.00000000000E+00  0.00000000000E+00  0.62318069351E+03  0.62318069351E+03  0.00000000000E+00 0. -1.
         21   -1    0    0  501  502 -0.00000000000E+00 -0.00000000000E+00 -0.15366350255E+03  0.15366350255E+03  0.00000000000E+00 0. -1.
         25    1    1    2    0    0  0.58917381572E+02 -0.49412315707E+02  0.18470176779E+03  0.23590798591E+03  0.12500000000E+03 0.  0.
         25    1    1    2    0    0 -0.11130514339E+02 -0.16469565352E+03  0.11809019075E+03  0.23836702748E+03  0.12500000000E+03 0.  0.
         25    1    1    2    0    0 -0.47786867233E+02  0.21410796923E+03  0.16672523243E+03  0.30256918266E+03  0.12500000000E+03 0.  0.
</event>
<event>
 5    0  0.5720942E-005  0.2947141E+03  0.7546771E-02  0.1087913E+00
         21   -1    0    0  502  501  0.00000000000E+00  0.00000000000E+00  0.22149889125E+03  0.22149889125E+03  0.00000000000E+00 0. -1.
         21   -1    0    0  501  502 -0.00000000000E+00 -0.00000000000E+00 -0.39213028580E+03  0.39213028580E+03  0.00000000000E+00 0. -1.
         25    1    1    2    0    0  0.10712961765E+02 -0.81204814476E+02 -0.95550160502E+02  0.17738044598E+03  0.12500000000E+03 0.  0.
         25    1    1    2    0    0  0.49592161204E+02  0.19952006538E+03 -0.43764282886E+01  0.24064869014E+03  0.12500000000E+03 0.  0.
         25    1    1    2    0    0 -0.60305122969E+02 -0.11831525091E+03 -0.70704805759E+02  0.19560004093E+03  0.12500000000E+03 0.  0.
</event>
<event>
 5    0  0.5720942E-005  0.3066889E+03  0.7546771E-02  0.1081944E+00
         21   -1    0    0  502  501  0.00000000000E+00  0.00000000000E+00  0.17991849714E+04  0.17991849714E+04  0.00000000000E+00 0. -1.
         21   -1    0    0  501  502 -0.00000000000E+00 -0.00000000000E+00 -0.52278163645E+02  0.52278163645E+02  0.00000000000E+00 0. -1.
         25    1    1    2    0    0  0.62620911163E+01  0.10591881518E+03  0.57228914249E+03  0.59531325519E+03  0.12500000000E+03 0.  0.
         25    1    1    2    0    0 -0.79405228779E+02 -0.17614850701E+03  0.37104103929E+03  0.43661188682E+03  0.12500000000E+03 0.  0.
         25    1    1    2    0    0  0.73143137663E+02  0.70229691834E+02  0.80357662600E+03  0.81953799305E+03  0.12500000000E+03 0.  0.
</event>
<event>
 5    0  0.5720942E-005  0.3031423E+03  0.7546771E-02  0.1083680E+00
         21   -1    0    0  502  501  0.00000000000E+00  0.00000000000E+00  0.34087748088E+03  0.34087748088E+03  0.00000000000E+00 0.  1.
         21   -1    0    0  501  502 -0.00000000000E+00 -0.00000000000E+00 -0.26958435810E+03  0.26958435810E+03  0.00000000000E+00 0.  1.
         25    1    1    2    0    0 -0.27018787546E+02 -0.54849710504E+02  0.21699199115E+03  0.25777709333E+03  0.12500000000E+03 0.  0.
         25    1    1    2    0    0 -0.69366370544E+01  0.12226929002E+03 -0.85020382712E+02  0.19455426413E+03  0.12500000000E+03 0.  0.
         25    1    1    2    0    0  0.33955424600E+02 -0.67419579515E+02 -0.60678485657E+02  0.15813048151E+03  0.12500000000E+03 0.  0.
</event>
<event>
 5    0  0.5720942E-005  0.2964858E+03  0.7546771E-02  0.1087011E+00
         21   -1    0    0  502  501  0.00000000000E+00  0.00000000000E+00  0.20965062029E+03  0.20965062029E+03  0.00000000000E+00 0. -1.
         21   -1    0    0  501  502 -0.00000000000E+00 -0.00000000000E+00 -0.41928736665E+03  0.41928736665E+03  0.00000000000E+00 0. -1.
         25    1    1    2    0    0  0.47041458490E+02  0.12421899233E+03  0.49190301050E+02  0.18891252629E+03  0.12500000000E+03 0.  0.
         25    1    1    2    0    0 -0.58616424975E+01 -0.16332313697E+03 -0.21081155182E+03  0.29457650331E+03  0.12500000000E+03 0.  0.
         25    1    1    2    0    0 -0.41179815993E+02  0.39104144642E+02 -0.48015495591E+02  0.14544895734E+03  0.12500000000E+03 0.  0.
</event>
<event>
 5    0  0.5720942E-005  0.2963017E+03  0.7546771E-02  0.1087104E+00
         21   -1    0    0  502  501  0.00000000000E+00  0.00000000000E+00  0.28674820362E+03  0.28674820362E+03  0.00000000000E+00 0.  1.
         21   -1    0    0  501  502 -0.00000000000E+00 -0.00000000000E+00 -0.30617342008E+03  0.30617342008E+03  0.00000000000E+00 0.  1.
         25    1    1    2    0    0  0.31976978206E+02 -0.23313930692E+02 -0.12161188825E+03  0.17883097568E+03  0.12500000000E+03 0.  0.
         25    1    1    2    0    0 -0.14893197496E+03 -0.33539728984E+02  0.12301499861E+03  0.23251523922E+03  0.12500000000E+03 0.  0.
         25    1    1    2    0    0  0.11695499676E+03  0.56853659676E+02 -0.20828326816E+02  0.18157540881E+03  0.12500000000E+03 0.  0.
</event>
<event>
 5    0  0.5720942E-005  0.3863988E+03  0.7546771E-02  0.1048594E+00
         21   -1    0    0  502  501  0.00000000000E+00  0.00000000000E+00  0.61513612702E+03  0.61513612702E+03  0.00000000000E+00 0.  1.
         21   -1    0    0  501  502 -0.00000000000E+00 -0.00000000000E+00 -0.24271700322E+03  0.24271700322E+03  0.00000000000E+00 0.  1.
         25    1    1    2    0    0 -0.14301588193E+03  0.21582118485E+03  0.22908612568E+03  0.36761090747E+03  0.12500000000E+03 0.  0.
         25    1    1    2    0    0 -0.85894010319E+02 -0.54606828825E+02  0.64734174499E+02  0.17371010365E+03  0.12500000000E+03 0.  0.
         25    1    1    2    0    0  0.22890989224E+03 -0.16121435602E+03  0.78598823614E+02  0.31653211911E+03  0.12500000000E+03 0.  0.
</event>
<event>
 5    0  0.5720942E-005  0.3254068E+03  0.7546771E-02  0.1073188E+00
         21   -1    0    0  502  501  0.00000000000E+00  0.00000000000E+00  0.15813441399E+03  0.15813441399E+03  0.00000000000E+00 0. -1.
         21   -1    0    0  501  502 -0.00000000000E+00 -0.00000000000E+00 -0.66961738964E+03  0.66961738964E+03  0.00000000000E+00 0. -1.
         25    1    1    2    0    0 -0.44834513882E+02  0.54447941829E+01 -0.64875024209E+02  0.14789708647E+03  0.12500000000E+03 0.  0.
         25    1    1    2    0    0  0.11774817473E+02  0.88882599952E+02  0.47078520091E+02  0.16087308648E+03  0.12500000000E+03 0.  0.
         25    1    1    2    0    0  0.33059696409E+02 -0.94327394134E+02 -0.49368647154E+03  0.51898163069E+03  0.12500000000E+03 0.  0.
</event>
<event>
 5    0  0.5720942E-005  0.3629705E+03  0.7546771E-02  0.1057414E+00
         21   -1    0    0  502  501  0.00000000000E+00  0.00000000000E+00  0.30832077948E+03  0.30832077948E+03  0.00000000000E+00 0.  1.
         21   -1    0    0  501  502 -0.00000000000E+00 -0.00000000000E+00 -0.42730685121E+03  0.42730685121E+03  0.00000000000E+00 0.  1.
         25    1    1    2    0    0 -0.11532982702E+03 -0.14416613033E+03 -0.49269524039E+02  0.22833599833E+03  0.12500000000E+03 0.  0.
         25    1    1    2    0    0  0.10583539599E+03 -0.11853848228E+03 -0.76393113191E+02  0.21613285398E+03  0.12500000000E+03 0.  0.
         25    1    1    2    0    0  0.94944310316E+01  0.26270461260E+03  0.66765654923E+01  0.29115877838E+03  0.12500000000E+03 0.  0.
</event>
<event>
 5    0  0.5720942E-005  0.3353546E+03  0.7546771E-02  0.1068792E+00
         21   -1    0    0  502  501  0.00000000000E+00  0.00000000000E+00  0.32337209363E+03  0.32337209363E+03  0.00000000000E+00 0. -1.
         21   -1    0    0  501  502 -0.00000000000E+00 -0.00000000000E+00 -0.34778113178E+03  0.34778113178E+03  0.00000000000E+00 0. -1.
         25    1    1    2    0    0  0.56475116165E+02 -0.33935402746E+02  0.90340823380E+02  0.16771259546E+03  0.12500000000E+03 0.  0.
         25    1    1    2    0    0  0.15339823989E+03 -0.15128831222E+02 -0.15401593118E+03  0.25120869530E+03  0.12500000000E+03 0.  0.
         25    1    1    2    0    0 -0.20987335605E+03  0.49064233968E+02  0.39266069652E+02  0.25223193466E+03  0.12500000000E+03 0.  0.
</event>
<event>
 5    0  0.5720942E-005  0.3235076E+03  0.7546771E-02  0.1074046E+00
         21   -1    0    0  502  501  0.00000000000E+00  0.00000000000E+00  0.44968814820E+03  0.44968814820E+03  0.00000000000E+00 0. -1.
         21   -1    0    0  501  502 -0.00000000000E+00 -0.00000000000E+00 -0.23273283735E+03  0.23273283735E+03  0.00000000000E+00 0. -1.
         25    1    1    2    0    0  0.13116645801E+03 -0.10189316668E+03  0.18733524150E+03  0.27983271758E+03  0.12500000000E+03 0.  0.
         25    1    1    2    0    0  0.93468994506E+01  0.13818048041E+03  0.82344769363E+02  0.20392859225E+03  0.12500000000E+03 0.  0.
         25    1    1    2    0    0 -0.14051335746E+03 -0.36287313728E+02 -0.52724700016E+02  0.19865967571E+03  0.12500000000E+03 0.  0.
</event>
<event>
 5    0  0.5720942E-005  0.2741762E+03  0.7546771E-02  0.1098913E+00
         21   -1    0    0  502  501  0.00000000000E+00  0.00000000000E+00  0.21125752612E+03  0.21125752612E+03  0.00000000000E+00 0. -1.
         21   -1    0    0  501  502 -0.00000000000E+00 -0.00000000000E+00 -0.35583380879E+03  0.35583380879E+03  0.00000000000E+00 0. -1.
         25    1    1    2    0    0 -0.15896166532E+02  0.12311351519E+03  0.67911076499E+02  0.18880291323E+03  0.12500000000E+03 0.  0.
         25    1    1    2    0    0  0.76509815899E+02 -0.59101498278E+02 -0.86670885842E+02  0.18023202124E+03  0.12500000000E+03 0.  0.
         25    1    1    2    0    0 -0.60613649367E+02 -0.64012016909E+02 -0.12581647333E+03  0.19805640045E+03  0.12500000000E+03 0.  0.
</event>
<event>
 5    0  0.5720942E-005  0.2616107E+03  0.7546771E-02  0.1106179E+00
         21   -1    0    0  502  501  0.00000000000E+00  0.00000000000E+00  0.33825903427E+03  0.33825903427E+03  0.00000000000E+00 0.  1.
         21   -1    0    0  501  502 -0.00000000000E+00 -0.00000000000E+00 -0.20233062619E+03  0.20233062619E+03  0.00000000000E+00 0.  1.
         25    1    1    2    0    0  0.32550473696E+02 -0.68057708617E+02  0.20868164925E+03  0.25468493433E+03  0.12500000000E+03 0.  0.
         25    1    1    2    0    0 -0.46122486935E+01  0.78232087605E+02 -0.47196562550E+02  0.15490012229E+03  0.12500000000E+03 0.  0.
         25    1    1    2    0    0 -0.27938225003E+02 -0.10174378988E+02 -0.25556678616E+02  0.13100460384E+03  0.12500000000E+03 0.  0.
</event>
<event>
 5    0  0.5720942E-005  0.2881512E+03  0.7546771E-02  0.1091318E+00
         21   -1    0    0  502  501  0.00000000000E+00  0.00000000000E+00  0.47336933609E+02  0.47336933609E+02  0.00000000000E+00 0. -1.
         21   -1    0    0  501  502 -0.00000000000E+00 -0.00000000000E+00 -0.17540453028E+04  0.17540453028E+04  0.00000000000E+00 0. -1.
         25    1    1    2    0    0  0.15398964694E+03  0.48763165038E+02 -0.55240128075E+03  0.58895061984E+03  0.12500000000E+03 0.  0.
         25    1    1    2    0    0 -0.28461373394E+02  0.32286772086E+02 -0.77319205075E+03  0.78441279487E+03  0.12500000000E+03 0.  0.
         25    1    1    2    0    0 -0.12552827355E+03 -0.81049937124E+02 -0.38111503765E+03  0.42801882166E+03  0.12500000000E+03 0.  0.
</event>
<event>
 5    0  0.5720942E-005  0.2467542E+03  0.7546771E-02  0.1115373E+00
         21   -1    0    0  502  501  0.00000000000E+00  0.00000000000E+00  0.60543946753E+03  0.60543946753E+03  0.00000000000E+00 0. -1.
         21   -1    0    0  501  502 -0.00000000000E+00 -0.00000000000E+00 -0.10056767187E+03  0.10056767187E+03  0.00000000000E+00 0. -1.
         25    1    1    2    0    0  0.95926908386E+02  0.13013234447E+02  0.77057731477E+02  0.17588123835E+03  0.12500000000E+03 0.  0.
         25    1    1    2    0    0 -0.33812572461E+02 -0.29570675479E+02  0.80179726183E+02  0.15514993843E+03  0.12500000000E+03 0.  0.
         25    1    1    2    0    0 -0.62114335924E+02  0.16557441032E+02  0.34763433800E+03  0.37497596261E+03  0.12500000000E+03 0.  0.
</event>
<event>
 5    0  0.5720942E-005  0.2395481E+03  0.7546771E-02  0.1120094E+00
         21   -1    0    0  502  501  0.00000000000E+00  0.00000000000E+00  0.65653420640E+03  0.65653420640E+03  0.00000000000E+00 0.  1.
         21   -1    0    0  501  502 -0.00000000000E+00 -0.00000000000E+00 -0.87403352785E+02  0.87403352785E+02  0.00000000000E+00 0.  1.
         25    1    1    2    0    0 -0.76624097534E+02  0.58791053540E+02  0.18395275859E+03  0.24246908606E+03  0.12500000000E+03 0.  0.
         25    1    1    2    0    0  0.12274533473E+03 -0.47064754074E+02  0.26815538828E+03  0.32374962632E+03  0.12500000000E+03 0.  0.
         25    1    1    2    0    0 -0.46121237199E+02 -0.11726299466E+02  0.11702270674E+03  0.17771884682E+03  0.12500000000E+03 0.  0.
</event>
<event>
 5    0  0.5720942E-005  0.2208129E+03  0.7546771E-02  0.1133278E+00
         21   -1    0    0  502  501  0.00000000000E+00  0.00000000000E+00  0.59736087634E+03  0.59736087634E+03  0.00000000000E+00 0.  1.
         21   -1    0    0  501  502 -0.00000000000E+00 -0.00000000000E+00 -0.81622938056E+02  0.81622938056E+02  0.00000000000E+00 0.  1.
         25    1    1    2    0    0  0.72938402664E+02 -0.10831911225E+01  0.90310099495E+02  0.17059337020E+03  0.12500000000E+03 0.  0.
         25    1    1    2    0    0 -0.36708197086E+02 -0.17319998444E+01  0.12317583100E+03  0.17929801142E+03  0.12500000000E+03 0.  0.
         25    1    1    2    0    0 -0.36230205578E+02  0.28151909670E+01  0.30225200778E+03  0.32909243276E+03  0.12500000000E+03 0.  0.
</event>
<event>
 5    0  0.5720942E-005  0.3953677E+03  0.7546771E-02  0.1045396E+00
         21   -1    0    0  502  501  0.00000000000E+00  0.00000000000E+00  0.27948495770E+03  0.27948495770E+03  0.00000000000E+00 0.  1.
         21   -1    0    0  501  502 -0.00000000000E+00 -0.00000000000E+00 -0.55929882975E+03  0.55929882975E+03  0.00000000000E+00 0.  1.
         25    1    1    2    0    0  0.19852585972E+03  0.28262807572E+02 -0.66457596866E+02  0.24546469288E+03  0.12500000000E+03 0.  0.
         25    1    1    2    0    0 -0.16390760593E+03 -0.18059242680E+03  0.32916145550E+02  0.27602137696E+03  0.12500000000E+03 0.  0.
         25    1    1    2    0    0 -0.34618253795E+02  0.15232961923E+03 -0.24627242073E+03  0.31729771761E+03  0.12500000000E+03 0.  0.
</event>
<event>
 5    0  0.5720942E-005  0.2581375E+03  0.7546771E-02  0.1108267E+00
         21   -1    0    0  502  501  0.00000000000E+00  0.00000000000E+00  0.87026570081E+03  0.87026570081E+03  0.00000000000E+00 0. -1.
         21   -1    0    0  501  502 -0.00000000000E+00 -0.00000000000E+00 -0.76568516647E+02  0.76568516647E+02  0.00000000000E+00 0. -1.
         25    1    1    2    0    0  0.57321672363E+02 -0.11178831461E+03  0.13228339462E+03  0.22114768346E+03  0.12500000000E+03 0.  0.
         25    1    1    2    0    0 -0.18021463594E+02  0.52157107565E+02  0.19910130330E+03  0.24147767183E+03  0.12500000000E+03 0.  0.
         25    1    1    2    0    0 -0.39300208768E+02  0.59631207046E+02  0.46231248624E+03  0.48420886217E+03  0.12500000000E+03 0.  0.
</event>
<event>
 5    0  0.5720942E-005  0.3106804E+03  0.7546771E-02  0.1080020E+00
         21   -1    0    0  502  501  0.00000000000E+00  0.00000000000E+00  0.49261475299E+02  0.49261475299E+02  0.00000000000E+00 0. -1.
         21   -1    0    0  501  502 -0.00000000000E+00 -0.00000000000E+00 -0.19593871999E+04  0.19593871999E+04  0.00000000000E+00 0. -1.
         25    1    1    2    0    0 -0.23418403021E+02 -0.53508558645E+02 -0.14204174019E+03  0.19802132058E+03  0.12500000000E+03 0.  0.
         25    1    1    2    0    0  0.14647028473E+03 -0.30631074149E+02 -0.83189431676E+03  0.85443838939E+03  0.12500000000E+03 0.  0.
         25    1    1    2    0    0 -0.12305188171E+03  0.84139632794E+02 -0.93618966765E+03  0.95618896522E+03  0.12500000000E+03 0.  0.
</event>
<event>
 5    0  0.5720942E-005  0.3575503E+03  0.7546771E-02  0.1059558E+00
         21   -1    0    0  502  501  0.00000000000E+00  0.00000000000E+00  0.64128917205E+03  0.64128917205E+03  0.00000000000E+00 0. -1.
         21   -1    0    0  501  502 -0.00000000000E+00 -0.00000000000E+00 -0.19935190998E+03  0.19935190998E+03  0.00000000000E+00 0. -1.
         25    1    1    2    0    0 -0.88797877091E+02 -0.86867104921E+02  0.34914088115E+03  0.39109501631E+03  0.12500000000E+03 0.  0.
         25    1    1    2    0    0 -0.47163797320E+02 -0.77637879185E+01  0.18012411725E+03  0.22439785604E+03  0.12500000000E+03 0.  0.
         25    1    1    2    0    0  0.13596167441E+03  0.94630892839E+02 -0.87327736326E+02  0.22514820968E+03  0.12500000000E+03 0.  0.
</event>
<event>
 5    0  0.5720942E-005  0.3291554E+03  0.7546771E-02  0.1071511E+00
         21   -1    0    0  502  501  0.00000000000E+00  0.00000000000E+00  0.31991852200E+02  0.31991852200E+02  0.00000000000E+00 0. -1.
         21   -1    0    0  501  502 -0.00000000000E+00 -0.00000000000E+00 -0.33865897177E+04  0.33865897177E+04  0.00000000000E+00 0. -1.
         25    1    1    2    0    0 -0.12686304059E+03 -0.14788535310E+03 -0.13571315710E+04  0.13767336016E+04  0.12500000000E+03 0.  0.
         25    1    1    2    0    0  0.89988754344E+02 -0.24820617582E+01 -0.34988341522E+03  0.38229248068E+03  0.12500000000E+03 0.  0.
         25    1    1    2    0    0  0.36874286248E+02  0.15036741486E+03 -0.16475828793E+04  0.16595554877E+04  0.12500000000E+03 0.  0.
</event>
<event>
 5    0  0.5720942E-005  0.4076806E+03  0.7546771E-02  0.1041152E+00
         21   -1    0    0  502  501  0.00000000000E+00  0.00000000000E+00  0.34143373994E+03  0.34143373994E+03  0.00000000000E+00 0. -1.
         21   -1    0    0  501  502 -0.00000000000E+00 -0.00000000000E+00 -0.48678115223E+03  0.48678115223E+03  0.00000000000E+00 0. -1.
         25    1    1    2    0    0 -0.64374245960E+02  0.10319952252E+03 -0.16441111264E+03  0.23968771130E+03  0.12500000000E+03 0.  0.
         25    1    1    2    0    0  0.10153829878E+03 -0.20847879893E+03 -0.18689010763E+03  0.32299589479E+03  0.12500000000E+03 0.  0.
         25    1    1    2    0    0 -0.37164052815E+02  0.10527927642E+03  0.20595380797E+03  0.26553128607E+03  0.12500000000E+03 0.  0.
</event>
<event>
 5    0  0.5720942E-005  0.2972590E+03  0.7546771E-02  0.1086619E+00
         21   -1    0    0  502  501  0.00000000000E+00  0.00000000000E+00  0.20983572888E+03  0.20983572888E+03  0.00000000000E+00 0.  1.
         21   -1    0    0  501  502 -0.00000000000E+00 -0.00000000000E+00 -0.42110505397E+03  0.42110505397E+03  0.00000000000E+00 0.  1.
         25    1    1    2    0    0 -0.10098281171E+03 -0.40176685210E+02 -0.10996200683E+03  0.19881734643E+03  0.12500000000E+03 0.  0.
         25    1    1    2    0    0  0.43529822272E+02 -0.40382355529E+02 -0.20104748280E+03  0.24407103558E+03  0.12500000000E+03 0.  0.
         25    1    1    2    0    0  0.57452989437E+02  0.80559040739E+02  0.99740164551E+02  0.18805240085E+03  0.12500000000E+03 0.  0.
</event>
<event>
 5    0  0.5720942E-005  0.3623689E+03  0.7546771E-02  0.1057650E+00
         21   -1    0    0  502  501  0.00000000000E+00  0.00000000000E+00  0.66596749492E+02  0.66596749492E+02  0.00000000000E+00 0. -1.
         21   -1    0    0  501  502 -0.00000000000E+00 -0.00000000000E+00 -0.19717360445E+04  0.19717360445E+04  0.00000000000E+00 0. -1.
         25    1    1    2    0    0 -0.63797107573E+01 -0.22762524885E+03 -0.50777344512E+03  0.57036201328E+03  0.12500000000E+03 0.  0.
         25    1    1    2    0    0 -0.65511159967E+02  0.13611372648E+03 -0.11547172843E+04  0.11712453480E+04  0.12500000000E+03 0.  0.
         25    1    1    2    0    0  0.71890870724E+02  0.91511522365E+02 -0.24264856558E+03  0.29672543268E+03  0.12500000000E+03 0.  0.
</event>
<event>
 5    0  0.5976571E-005  0.2805525E+03  0.7546771E-02  0.1095388E+00
         21   -1    0    0  502  501  0.00000000000E+00  0.00000000000E+00  0.20778604967E+03  0.20778604967E+03  0.00000000000E+00 0. -1.
         21   -1    0    0  501  502 -0.00000000000E+00 -0.00000000000E+00 -0.37880177537E+03  0.37880177537E+03  0.00000000000E+00 0. -1.
         25    1    1    2    0    0  0.12685580415E+03 -0.81752780099E+02 -0.18963660662E+03  0.27269571810E+03  0.12500000000E+03 0.  0.
         25    1    1    2    0    0 -0.27287412607E+02  0.62813225802E+02  0.47816389736E+02  0.15033799037E+03  0.12500000000E+03 0.  0.
         25    1    1    2    0    0 -0.99568391543E+02  0.18939554297E+02 -0.29195508814E+02  0.16355411657E+03  0.12500000000E+03 0.  0.
</event>
<event>
 5    0  0.5720942E-005  0.3748068E+03  0.7546771E-02  0.1052870E+00
         21   -1    0    0  502  501  0.00000000000E+00  0.00000000000E+00  0.85821051904E+03  0.85821051904E+03  0.00000000000E+00 0. -1.
         21   -1    0    0  501  502 -0.00000000000E+00 -0.00000000000E+00 -0.16368958514E+03  0.16368958514E+03  0.00000000000E+00 0. -1.
         25    1    1    2    0    0  0.45465614030E+02  0.46636314159E+02  0.14188356467E+03  0.19999503439E+03  0.12500000000E+03 0.  0.
         25    1    1    2    0    0 -0.15151679034E+03  0.17182963845E+03  0.74743115161E+02  0.27146693292E+03  0.12500000000E+03 0.  0.
         25    1    1    2    0    0  0.10605117630E+03 -0.21846595261E+03  0.47789425408E+03  0.55043813687E+03  0.12500000000E+03 0.  0.
</event>
<event>
 5    0  0.5720942E-005  0.2382555E+03  0.7546771E-02  0.1120960E+00
         21   -1    0    0  502  501  0.00000000000E+00  0.00000000000E+00  0.21725596119E+03  0.21725596119E+03  0.00000000000E+00 0. -1.
         21   -1    0    0  501  502 -0.00000000000E+00 -0.00000000000E+00 -0.26128481354E+03  0.26128481354E+03  0.00000000000E+00 0. -1.
         25    1    1    2    0    0 -0.14874473267E+02 -0.13584624397E+03 -0.84589564419E+01  0.18539688751E+03  0.12500000000E+03 0.  0.
         25    1    1    2    0    0  0.11867156988E+02  0.37869993851E+02 -0.28056321478E+02  0.13411608041E+03  0.12500000000E+03 0.  0.
         25    1    1    2    0    0  0.30073162792E+01  0.97976250118E+02 -0.75135744328E+01  0.15902780681E+03  0.12500000000E+03 0.  0.
</event>
<event>
 5    0  0.5720942E-005  0.2467411E+03  0.7546771E-02  0.1115382E+00
         21   -1    0    0  502  501  0.00000000000E+00  0.00000000000E+00  0.78258338969E+03  0.78258338969E+03  0.00000000000E+00 0. -1.
         21   -1    0    0  501  502 -0.00000000000E+00 -0.00000000000E+00 -0.77795122239E+02  0.77795122239E+02  0.00000000000E+00 0. -1.
         25    1    1    2    0    0 -0.13489139557E+02  0.46765114178E+02  0.12020680985E+03  0.18012109794E+03  0.12500000000E+03 0.  0.
         25    1    1    2    0    0  0.81984822627E+01 -0.84886512860E+02  0.50494063649E+03  0.52712710190E+03  0.12500000000E+03 0.  0.
         25    1    1    2    0    0  0.52906572938E+01  0.38121398682E+02  0.79640821110E+02  0.15313031208E+03  0.12500000000E+03 0.  0.
</event>
<event>
 5    0  0.5720942E-005  0.2541043E+03  0.7546771E-02  0.1110738E+00
         21   -1    0    0  502  501  0.00000000000E+00  0.00000000000E+00  0.96529642316E+03  0.96529642316E+03  0.00000000000E+00 0.  1.
         21   -1    0    0  501  502 -0.00000000000E+00 -0.00000000000E+00 -0.66890352218E+02  0.66890352218E+02  0.00000000000E+00 0.  1.
         25    1    1    2    0    0  0.17261842311E+02  0.45226930562E+02  0.21580737208E+03  0.25404973587E+03  0.12500000000E+03 0.  0.
         25    1    1    2    0    0 -0.12274563038E+03 -0.67897782393E+02  0.48801323807E+03  0.52293261436E+03  0.12500000000E+03 0.  0.
         25    1    1    2    0    0  0.10548378806E+03  0.22670851831E+02  0.19458546079E+03  0.25520442515E+03  0.12500000000E+03 0.  0.
</event>
<event>
 5    0  0.5720942E-005  0.2235249E+03  0.7546771E-02  0.1131282E+00
         21   -1    0    0  502  501  0.00000000000E+00  0.00000000000E+00  0.12883843866E+03  0.12883843866E+03  0.00000000000E+00 0. -1.
         21   -1    0    0  501  502 -0.00000000000E+00 -0.00000000000E+00 -0.38779881013E+03  0.38779881013E+03  0.00000000000E+00 0. -1.
         25    1    1    2    0    0 -0.15368254003E+02  0.54639859080E+01 -0.85633744219E+02  0.15239480477E+03  0.12500000000E+03 0.  0.
         25    1    1    2    0    0 -0.65693052953E+01  0.20867720468E+02  0.23022106717E+02  0.12897145005E+03  0.12500000000E+03 0.  0.
         25    1    1    2    0    0  0.21937559298E+02 -0.26331706376E+02 -0.19634873397E+03  0.23527099396E+03  0.12500000000E+03 0.  0.
</event>
<event>
 5    0  0.5720942E-005  0.2655674E+03  0.7546771E-02  0.1103844E+00
         21   -1    0    0  502  501  0.00000000000E+00  0.00000000000E+00  0.10817804581E+04  0.10817804581E+04  0.00000000000E+00 0. -1.
         21   -1    0    0  501  502 -0.00000000000E+00 -0.00000000000E+00 -0.65194406819E+02  0.65194406819E+02  0.00000000000E+00 0. -1.
         25    1    1    2    0    0 -0.45856640144E+02  0.16176746486E+03  0.27572341202E+03  0.34629459146E+03  0.12500000000E+03 0.  0.
         25    1    1    2    0    0  0.30068845992E+02 -0.63183301079E+02  0.37138414460E+03  0.39805457904E+03  0.12500000000E+03 0.  0.
         25    1    1    2    0    0  0.15787794152E+02 -0.98584163783E+02  0.36947849460E+03  0.40262569437E+03  0.12500000000E+03 0.  0.
</event>
<event>
 5    0  0.5720942E-005  0.3482803E+03  0.7546771E-02  0.1063323E+00
         21   -1    0    0  502  501  0.00000000000E+00  0.00000000000E+00  0.29351322499E+03  0.29351322499E+03  0.00000000000E+00 0. -1.
         21   -1    0    0  501  502 -0.00000000000E+00 -0.00000000000E+00 -0.41326647207E+03  0.41326647207E+03  0.00000000000E+00 0. -1.
         25    1    1    2    0    0 -0.23104817016E+02 -0.44012500143E+02  0.15312241455E+03  0.20381954414E+03  0.12500000000E+03 0.  0.
         25    1    1    2    0    0  0.87303079408E+02  0.50355972256E+02  0.35117976960E+02  0.16436491086E+03  0.12500000000E+03 0.  0.
         25    1    1    2    0    0 -0.64198262392E+02 -0.63434721130E+01 -0.30799363859E+03  0.33859524206E+03  0.12500000000E+03 0.  0.
</event>
<event>
 5    0  0.5720942E-005  0.4052148E+03  0.7546771E-02  0.1041989E+00
         21   -1    0    0  502  501  0.00000000000E+00  0.00000000000E+00  0.11973526160E+03  0.11973526160E+03  0.00000000000E+00 0.  1.
         21   -1    0    0  501  502 -0.00000000000E+00 -0.00000000000E+00 -0.13713507967E+04  0.13713507967E+04  0.00000000000E+00 0.  1.
         25    1    1    2    0    0  0.81595462081E+02  0.26286334471E+03 -0.60832369386E+03  0.67929203877E+03  0.12500000000E+03 0.  0.
         25    1    1    2    0    0 -0.10186765219E+03 -0.22832252138E+03 -0.61778502435E+03  0.67807929378E+03  0.12500000000E+03 0.  0.
         25    1    1    2    0    0  0.20272190111E+02 -0.34540823326E+02 -0.25506816858E+02  0.13371472572E+03  0.12500000000E+03 0.  0.
</event>
<event>
 5    0  0.5720942E-005  0.3081401E+03  0.7546771E-02  0.1081241E+00
         21   -1    0    0  502  501  0.00000000000E+00  0.00000000000E+00  0.67685125105E+03  0.67685125105E+03  0.00000000000E+00 0. -1.
         21   -1    0    0  501  502 -0.00000000000E+00 -0.00000000000E+00 -0.14028243509E+03  0.14028243509E+03  0.00000000000E+00 0. -1.
         25    1    1    2    0    0  0.49466836041E+02  0.16196654974E+03  0.43773009440E+03  0.48570852025E+03  0.12500000000E+03 0.  0.
         25    1    1    2    0    0 -0.46754362600E+02 -0.34656864929E+02  0.45013557823E+02  0.14504581723E+03  0.12500000000E+03 0.  0.
         25    1    1    2    0    0 -0.27124734413E+01 -0.12730968481E+03  0.53825163741E+02  0.18637934867E+03  0.12500000000E+03 0.  0.
</event>
<event>
 5    0  0.5720942E-005  0.3814699E+03  0.7546771E-02  0.1050392E+00
         21   -1    0    0  502  501  0.00000000000E+00  0.00000000000E+00  0.33736900712E+03  0.33736900712E+03  0.00000000000E+00 0. -1.
         21   -1    0    0  501  502 -0.00000000000E+00 -0.00000000000E+00 -0.43133577347E+03  0.43133577347E+03  0.00000000000E+00 0. -1.
         25    1    1    2    0    0  0.20280767431E+03 -0.62146435414E+02 -0.12679739024E+03  0.27693990389E+03  0.12500000000E+03 0.  0.
         25    1    1    2    0    0 -0.63639298447E+02  0.13593402680E+03 -0.12862819887E+03  0.23387653472E+03  0.12500000000E+03 0.  0.
         25    1    1    2    0    0 -0.13916837586E+03 -0.73787591390E+02  0.16145882275E+03  0.25788834198E+03  0.12500000000E+03 0.  0.
</event>
<event>
 5    0  0.6188005E-005  0.2563153E+03  0.7546771E-02  0.1109378E+00
         21   -1    0    0  502  501  0.00000000000E+00  0.00000000000E+00  0.19150608701E+03  0.19150608701E+03  0.00000000000E+00 0.  1.
         21   -1    0    0  501  502 -0.00000000000E+00 -0.00000000000E+00 -0.34305704247E+03  0.34305704247E+03  0.00000000000E+00 0.  1.
         25    1    1    2    0    0  0.13924038608E+02 -0.47430516360E+02 -0.40450236504E+02  0.14037362418E+03  0.12500000000E+03 0.  0.
         25    1    1    2    0    0 -0.64548761861E+02 -0.49889797873E+02  0.55059146542E+02  0.15909759334E+03  0.12500000000E+03 0.  0.
         25    1    1    2    0    0  0.50624723253E+02  0.97320314233E+02 -0.16615986549E+03  0.23509191196E+03  0.12500000000E+03 0.  0.
</event>
<event>
 5    0  0.5720942E-005  0.4864713E+03  0.7546771E-02  0.1017372E+00
         21   -1    0    0  502  501  0.00000000000E+00  0.00000000000E+00  0.20558928076E+03  0.20558928076E+03  0.00000000000E+00 0.  1.
         21   -1    0    0  501  502 -0.00000000000E+00 -0.00000000000E+00 -0.11511023463E+04  0.11511023463E+04  0.00000000000E+00 0.  1.
         25    1    1    2    0    0  0.43447843334E+02  0.19881221949E+01 -0.55214473063E+03  0.56778558566E+03  0.12500000000E+03 0.  0.
         25    1    1    2    0    0 -0.14127832109E+03  0.27309460776E+03 -0.77209241163E+02  0.34077337883E+03  0.12500000000E+03 0.  0.
         25    1    1    2    0    0  0.97830477757E+02 -0.27508272996E+03 -0.31615909375E+03  0.44813266257E+03  0.12500000000E+03 0.  0.
</event>
<event>
 5    0  0.5720942E-005  0.2396816E+03  0.7546771E-02  0.1120005E+00
         21   -1    0    0  502  501  0.00000000000E+00  0.00000000000E+00  0.66163531318E+02  0.66163531318E+02  0.00000000000E+00 0. -1.
         21   -1    0    0  501  502 -0.00000000000E+00 -0.00000000000E+00 -0.86826179355E+03  0.86826179355E+03  0.00000000000E+00 0. -1.
         25    1    1    2    0    0  0.64029619202E+02  0.12020343605E+03 -0.37950423529E+03  0.42213401045E+03  0.12500000000E+03 0.  0.
         25    1    1    2    0    0 -0.52484900126E+02 -0.68496511531E+02 -0.19356100656E+03  0.24604328906E+03  0.12500000000E+03 0.  0.
         25    1    1    2    0    0 -0.11544719076E+02 -0.51706924516E+02 -0.22903302038E+03  0.26624802536E+03  0.12500000000E+03 0.  0.
</event>
<event>
 5    0  0.5720942E-005  0.2479509E+03  0.7546771E-02  0.1114607E+00
         21   -1    0    0  502  501  0.00000000000E+00  0.00000000000E+00  0.14197719153E+03  0.14197719153E+03  0.00000000000E+00 0. -1.
         21   -1    0    0  501  502 -0.00000000000E+00 -0.00000000000E+00 -0.43302495992E+03  0.43302495992E+03  0.00000000000E+00 0. -1.
         25    1    1    2    0    0 -0.11930012369E+03 -0.27898088610E+02 -0.76243103919E+02  0.19091577661E+03  0.12500000000E+03 0.  0.
         25    1    1    2    0    0  0.10139477102E+03  0.71180196210E+02 -0.16608754518E+03  0.24198676118E+03  0.12500000000E+03 0.  0.
         25    1    1    2    0    0  0.17905352677E+02 -0.43282107601E+02 -0.48717119295E+02  0.14209961367E+03  0.12500000000E+03 0.  0.
</event>
<event>
 5    0  0.5768271E-005  0.2935815E+03  0.7546771E-02  0.1088494E+00
         21   -1    0    0  502  501  0.00000000000E+00  0.00000000000E+00  0.15176478651E+03  0.15176478651E+03  0.00000000000E+00 0.  1.
         21   -1    0    0  501  502 -0.00000000000E+00 -0.00000000000E+00 -0.56791883158E+03  0.56791883158E+03  0.00000000000E+00 0.  1.
         25    1    1    2    0    0 -0.75967976011E+02 -0.66010567893E+02 -0.62801191726E+02  0.17232967863E+03  0.12500000000E+03 0.  0.
         25    1    1    2    0    0 -0.69580371694E+02  0.19059027612E+02 -0.31452142289E+03  0.34605404219E+03  0.12500000000E+03 0.  0.
         25    1    1    2    0    0  0.14554834771E+03  0.46951540281E+02 -0.38831430449E+02  0.20129989728E+03  0.12500000000E+03 0.  0.
</event>
<event>
 5    0  0.5720942E-005  0.2302245E+03  0.7546771E-02  0.1126482E+00
         21   -1    0    0  502  501  0.00000000000E+00  0.00000000000E+00  0.48197998900E+03  0.48197998900E+03  0.00000000000E+00 0. -1.
         21   -1    0    0  501  502 -0.00000000000E+00 -0.00000000000E+00 -0.10996997460E+03  0.10996997460E+03  0.00000000000E+00 0. -1.
         25    1    1    2    0    0  0.17231896809E+02  0.85922691473E+02  0.18851490026E+03  0.24257476125E+03  0.12500000000E+03 0.  0.
         25    1    1    2    0    0  0.58950153905E+02 -0.44006135703E+02  0.89333603220E+02  0.17034422001E+03  0.12500000000E+03 0.  0.
         25    1    1    2    0    0 -0.76182050714E+02 -0.41916555770E+02  0.94161510919E+02  0.17903098234E+03  0.12500000000E+03 0.  0.
</event>
<event>
 5    0  0.5720942E-005  0.3658393E+03  0.7546771E-02  0.1056295E+00
         21   -1    0    0  502  501  0.00000000000E+00  0.00000000000E+00  0.88816327813E+03  0.88816327813E+03  0.00000000000E+00 0.  1.
         21   -1    0    0  501  502 -0.00000000000E+00 -0.00000000000E+00 -0.15069123717E+03  0.15069123717E+03  0.00000000000E+00 0.  1.
         25    1    1    2    0    0 -0.12545917354E+03  0.10690860054E+03  0.31868929648E+03  0.37994383899E+03  0.12500000000E+03 0.  0.
         25    1    1    2    0    0  0.16335757276E+03  0.88548669251E+02  0.34722050025E+03  0.41317507088E+03  0.12500000000E+03 0.  0.
         25    1    1    2    0    0 -0.37898399216E+02 -0.19545726979E+03  0.71562244224E+02  0.24573560543E+03  0.12500000000E+03 0.  0.
</event>
<event>
 5    0  0.5720942E-005  0.2801214E+03  0.7546771E-02  0.1095623E+00
         21   -1    0    0  502  501  0.00000000000E+00  0.00000000000E+00  0.18961259585E+03  0.18961259585E+03  0.00000000000E+00 0. -1.
         21   -1    0    0  501  502 -0.00000000000E+00 -0.00000000000E+00 -0.41383325736E+03  0.41383325736E+03  0.00000000000E+00 0. -1.
         25    1    1    2    0    0  0.10545433958E+03  0.42118547735E+02  0.74110501034E+02  0.18442330700E+03  0.12500000000E+03 0.  0.
         25    1    1    2    0    0 -0.45997875375E+02 -0.53394744773E+02 -0.21030182136E+03  0.25459508906E+03  0.12500000000E+03 0.  0.
         25    1    1    2    0    0 -0.59456464207E+02  0.11276197038E+02 -0.88029341191E+02  0.16442745715E+03  0.12500000000E+03 0.  0.
</event>
<event>
 5    0  0.5720942E-005  0.7437146E+03  0.7546771E-02  0.9645263E-01
         21   -1    0    0  502  501  0.00000000000E+00  0.00000000000E+00  0.95007922451E+03  0.95007922451E+03  0.00000000000E+00 0. -1.
         21   -1    0    0  501  502 -0.00000000000E+00 -0.00000000000E+00 -0.58217399370E+03  0.58217399370E+03  0.00000000000E+00 0. -1.
         25    1    1    2    0    0 -0.88110886770E+02  0.26136890388E+03 -0.40479168433E+03  0.50552798140E+03  0.12500000000E+03 0.  0.
         25    1    1    2    0    0  0.14208165004E+02 -0.26520309933E+03  0.82238515394E+03  0.87319923114E+03  0.12500000000E+03 0.  0.
         25    1    1    2    0    0  0.73902721766E+02  0.38341954490E+01 -0.49688238803E+02  0.15352600566E+03  0.12500000000E+03 0.  0.
</event>
<event>
 5    0  0.5720942E-005  0.3128830E+03  0.7546771E-02  0.1078972E+00
         21   -1    0    0  502  501  0.00000000000E+00  0.00000000000E+00  0.96496840660E+02  0.96496840660E+02  0.00000000000E+00 0.  1.
         21   -1    0    0  501  502 -0.00000000000E+00 -0.00000000000E+00 -0.10144968764E+04  0.10144968764E+04  0.00000000000E+00 0.  1.
         25    1    1    2    0    0  0.99565513666E+02  0.62543828738E+02 -0.22479843315E+03  0.28281505895E+03  0.12500000000E+03 0.  0.
         25    1    1    2    0    0  0.58780130799E+02  0.93371477846E+02 -0.13509566708E+03  0.21459071722E+03  0.12500000000E+03 0.  0.
         25    1    1    2    0    0 -0.15834564447E+03 -0.15591530658E+03 -0.55810593548E+03  0.61358794086E+03  0.12500000000E+03 0.  0.
</event>
<event>
 5    0  0.5720942E-005  0.2765768E+03  0.7546771E-02  0.1097573E+00
         21   -1    0    0  502  501  0.00000000000E+00  0.00000000000E+00  0.67085899538E+03  0.67085899538E+03  0.00000000000E+00 0. -1.
         21   -1    0    0  501  502 -0.00000000000E+00 -0.00000000000E+00 -0.11402505978E+03  0.11402505978E+03  0.00000000000E+00 0. -1.
         25    1    1    2    0    0 -0.57991966537E+02 -0.58943673933E+02 -0.69650195857E+00  0.14987631566E+03  0.12500000000E+03 0.  0.
         25    1    1    2    0    0 -0.15304713527E+02 -0.16857021255E+02  0.15431113829E+03  0.19988827085E+03  0.12500000000E+03 0.  0.
         25    1    1    2    0    0  0.73296680064E+02  0.75800695188E+02  0.40321929926E+03  0.43511946865E+03  0.12500000000E+03 0.  0.
</event>
<event>
 5    0  0.5720942E-005  0.2595275E+03  0.7546771E-02  0.1107427E+00
         21   -1    0    0  502  501  0.00000000000E+00  0.00000000000E+00  0.41869627765E+03  0.41869627765E+03  0.00000000000E+00 0. -1.
         21   -1    0    0  501  502 -0.00000000000E+00 -0.00000000000E+00 -0.16086731657E+03  0.16086731657E+03  0.00000000000E+00 0. -1.
         25    1    1    2    0    0 -0.12698322537E+03  0.87028690997E+02  0.67320170623E+02  0.20941761615E+03  0.12500000000E+03 0.  0.
         25    1    1    2    0    0  0.66194666734E+00 -0.50659397088E+02  0.66237249473E+02  0.15026372119E+03  0.12500000000E+03 0.  0.
         25    1    1    2    0    0  0.12632127871E+03 -0.36369293908E+02  0.12427154099E+03  0.21988225688E+03  0.12500000000E+03 0.  0.
</event>
<event>
 5    0  0.5720942E-005  0.2619902E+03  0.7546771E-02  0.1105953E+00
         21   -1    0    0  502  501  0.00000000000E+00  0.00000000000E+00  0.61917680331E+02  0.61917680331E+02  0.00000000000E+00 0.  1.
         21   -1    0    0  501  502 -0.00000000000E+00 -0.00000000000E+00 -0.11085500067E+04  0.11085500067E+04  0.00000000000E+00 0.  1.
         25    1    1    2    0    0 -0.11012601593E+02 -0.30334675761E+02 -0.15570951665E+03  0.20226696103E+03  0.12500000000E+03 0.  0.
         25    1    1    2    0    0  0.36516754214E+02  0.15232269676E+03 -0.42230709183E+03  0.46744406841E+03  0.12500000000E+03 0.  0.
         25    1    1    2    0    0 -0.25504152621E+02 -0.12198802100E+03 -0.46861571789E+03  0.50075665759E+03  0.12500000000E+03 0.  0.
</event>
<event>
 5    0  0.5720942E-005  0.8409381E+03  0.7546771E-02  0.9502581E-01
         21   -1    0    0  502  501  0.00000000000E+00  0.00000000000E+00  0.26835823525E+04  0.26835823525E+04  0.00000000000E+00 0. -1.
         21   -1    0    0  501  502 -0.00000000000E+00 -0.00000000000E+00 -0.26351969735E+03  0.26351969735E+03  0.00000000000E+00 0. -1.
         25    1    1    2    0    0 -0.53421535132E+03 -0.49144080023E+02  0.19447591754E+03  0.58416355987E+03  0.12500000000E+03 0.  0.
         25    1    1    2    0    0  0.21109361892E+03  0.28130861899E+03  0.93994502559E+03  0.10113440098E+04  0.12500000000E+03 0.  0.
         25    1    1    2    0    0  0.32312173240E+03 -0.23216453897E+03  0.12856417120E+04  0.13515944801E+04  0.12500000000E+03 0.  0.
</event>
<event>
 5    0  0.5720942E-005  0.3159742E+03  0.7546771E-02  0.1077517E+00
         21   -1    0    0  502  501  0.00000000000E+00  0.00000000000E+00  0.89017937458E+02  0.89017937458E+02  0.00000000000E+00 0.  1.
         21   -1    0    0  501  502 -0.00000000000E+00 -0.00000000000E+00 -0.11215683540E+04  0.11215683540E+04  0.00000000000E+00 0.  1.
         25    1    1    2    0    0  0.50605539967E+02 -0.97903876204E+02 -0.37455654198E+03  0.40995572053E+03  0.12500000000E+03 0.  0.
         25    1    1    2    0    0 -0.30610450192E+00  0.21360069806E+02 -0.63064834314E+03  0.64327185465E+03  0.12500000000E+03 0.  0.
         25    1    1    2    0    0 -0.50299435466E+02  0.76543806398E+02 -0.27345531441E+02  0.15735871630E+03  0.12500000000E+03 0.  0.
</event>
<event>
 5    0  0.5720942E-005  0.3241269E+03  0.7546771E-02  0.1073765E+00
         21   -1    0    0  502  501  0.00000000000E+00  0.00000000000E+00  0.42990407177E+03  0.42990407177E+03  0.00000000000E+00 0. -1.
         21   -1    0    0  501  502 -0.00000000000E+00 -0.00000000000E+00 -0.24437607051E+03  0.24437607051E+03  0.00000000000E+00 0. -1.
         25    1    1    2    0    0 -0.16841250879E+02  0.12132048682E+03 -0.13716969877E+03  0.22235740266E+03  0.12500000000E+03 0.  0.
         25    1    1    2    0    0  0.48660807935E+02 -0.27458664592E+02  0.71791861814E+02  0.15459923646E+03  0.12500000000E+03 0.  0.
         25    1    1    2    0    0 -0.31819557056E+02 -0.93861822230E+02  0.25090583822E+03  0.29732350317E+03  0.12500000000E+03 0.  0.
</event>
<event>
 5    0  0.5720942E-005  0.2669923E+03  0.7546771E-02  0.1103013E+00
         21   -1    0    0  502  501  0.00000000000E+00  0.00000000000E+00  0.90082393520E+03  0.90082393520E+03  0.00000000000E+00 0.  1.
         21   -1    0    0  501  502 -0.00000000000E+00 -0.00000000000E+00 -0.79132963816E+02  0.79132963816E+02  0.00000000000E+00 0.  1.
         25    1    1    2    0    0 -0.15183240171E+03 -0.37770459587E+01  0.26282520170E+03  0.32828254741E+03  0.12500000000E+03 0.  0.
         25    1    1    2    0    0  0.91970463832E+02 -0.15294421542E+02  0.13824060522E+03  0.20839373906E+03  0.12500000000E+03 0.  0.
         25    1    1    2    0    0  0.59861937878E+02  0.19071467501E+02  0.42062516446E+03  0.44328061255E+03  0.12500000000E+03 0.  0.
</event>
<event>
 5    0  0.5720942E-005  0.2610445E+03  0.7546771E-02  0.1106517E+00
         21   -1    0    0  502  501  0.00000000000E+00  0.00000000000E+00  0.57720683961E+02  0.57720683961E+02  0.00000000000E+00 0. -1.
         21   -1    0    0  501  502 -0.00000000000E+00 -0.00000000000E+00 -0.11805859168E+04  0.11805859168E+04  0.00000000000E+00 0. -1.
         25    1    1    2    0    0  0.76036551676E+02 -0.28190482585E+02 -0.52262796217E+03  0.54345307740E+03  0.12500000000E+03 0.  0.
         25    1    1    2    0    0 -0.14673011298E+03 -0.21806942222E+02 -0.38769079718E+03  0.43351404015E+03  0.12500000000E+03 0.  0.
         25    1    1    2    0    0  0.70693561299E+02  0.49997424807E+02 -0.21254647351E+03  0.26133948324E+03  0.12500000000E+03 0.  0.
</event>
<event>
 5    0  0.5720942E-005  0.3704142E+03  0.7546771E-02  0.1054535E+00
         21   -1    0    0  502  501  0.00000000000E+00  0.00000000000E+00  0.21894302427E+03  0.21894302427E+03  0.00000000000E+00 0.  1.
         21   -1    0    0  501  502 -0.00000000000E+00 -0.00000000000E+00 -0.62667743453E+03  0.62667743453E+03  0.00000000000E+00 0.  1.
         25    1    1    2    0    0  0.17143583627E+03 -0.92580214326E+01  0.88939366035E+02  0.23024154219E+03  0.12500000000E+03 0.  0.
         25    1    1    2    0    0 -0.61541082166E+02 -0.71533702848E+02 -0.33450494071E+03  0.36935474925E+03  0.12500000000E+03 0.  0.
         25    1    1    2    0    0 -0.10989475410E+03  0.80791724280E+02 -0.16216883558E+03  0.24602416736E+03  0.12500000000E+03 0.  0.
</event>
<event>
 5    0  0.5720942E-005  0.3360723E+03  0.7546771E-02  0.1068481E+00
         21   -1    0    0  502  501  0.00000000000E+00  0.00000000000E+00  0.20143810072E+03  0.20143810072E+03  0.00000000000E+00 0. -1.
         21   -1    0    0  501  502 -0.00000000000E+00 -0.00000000000E+00 -0.56069125522E+03  0.56069125522E+03  0.00000000000E+00 0. -1.
         25    1    1    2    0    0 -0.11493796375E+03 -0.53796146118E+01 -0.42752196567E+02  0.17519254001E+03  0.12500000000E+03 0.  0.
         25    1    1    2    0    0 -0.13516480305E+03  0.27271532962E+02 -0.34625616861E+02  0.18930714153E+03  0.12500000000E+03 0.  0.
         25    1    1    2    0    0  0.25010276680E+03 -0.21891918351E+02 -0.28187534107E+03  0.39762967439E+03  0.12500000000E+03 0.  0.
</event>
<event>
 5    0  0.5720942E-005  0.2192465E+03  0.7546771E-02  0.1134446E+00
         21   -1    0    0  502  501  0.00000000000E+00  0.00000000000E+00  0.34075630870E+02  0.34075630870E+02  0.00000000000E+00 0. -1.
         21   -1    0    0  501  502 -0.00000000000E+00 -0.00000000000E+00 -0.14106575137E+04  0.14106575137E+04  0.00000000000E+00 0. -1.
         25    1    1    2    0    0  0.14752153575E+02  0.16747399447E+02 -0.25134544716E+03  0.28159835800E+03  0.12500000000E+03 0.  0.
         25    1    1    2    0    0 -0.36789398542E+02 -0.60610591643E+02 -0.38781727846E+03  0.41358716752E+03  0.12500000000E+03 0.  0.
         25    1    1    2    0    0  0.22037244967E+02  0.43863192196E+02 -0.73741915720E+03  0.74954761903E+03  0.12500000000E+03 0.  0.
</event>
<event>
 5    0  0.6656997E-005  0.4383289E+03  0.7546771E-02  0.1031261E+00
         21   -1    0    0  502  501  0.00000000000E+00  0.00000000000E+00  0.89830969378E+03  0.89830969378E+03  0.00000000000E+00 0.  1.
         21   -1    0    0  501  502 -0.00000000000E+00 -0.00000000000E+00 -0.21388198993E+03  0.21388198993E+03  0.00000000000E+00 0.  1.
         25    1    1    2    0    0 -0.22298116508E+03  0.24613031702E+02  0.26391103919E+02  0.25816252957E+03  0.12500000000E+03 0.  0.
         25    1    1    2    0    0  0.87808757105E+02 -0.20939054103E+03  0.20178305356E+03  0.32847553516E+03  0.12500000000E+03 0.  0.
         25    1    1    2    0    0  0.13517240797E+03  0.18477750933E+03  0.45625354637E+03  0.52555361897E+03  0.12500000000E+03 0.  0.
</event>
<event>
 5    0  0.5720942E-005  0.3252834E+03  0.7546771E-02  0.1073243E+00
         21   -1    0    0  502  501  0.00000000000E+00  0.00000000000E+00  0.31312481200E+03  0.31312481200E+03  0.00000000000E+00 0. -1.
         21   -1    0    0  501  502 -0.00000000000E+00 -0.00000000000E+00 -0.33791403074E+03  0.33791403074E+03  0.00000000000E+00 0. -1.
         25    1    1    2    0    0  0.17384491488E+03 -0.77375701964E+02  0.15972065361E+03  0.27810922472E+03  0.12500000000E+03 0.  0.
         25    1    1    2    0    0 -0.11603388124E+03  0.10729616485E+02 -0.10382262175E+03  0.19995780318E+03  0.12500000000E+03 0.  0.
         25    1    1    2    0    0 -0.57811033639E+02  0.66646085479E+02 -0.80687250601E+02  0.17297181484E+03  0.12500000000E+03 0.  0.
</event>
<event>
 5    0  0.5720942E-005  0.2788766E+03  0.7546771E-02  0.1096304E+00
         21   -1    0    0  502  501  0.00000000000E+00  0.00000000000E+00  0.31225436064E+03  0.31225436064E+03  0.00000000000E+00 0. -1.
         21   -1    0    0  501  502 -0.00000000000E+00 -0.00000000000E+00 -0.24906660156E+03  0.24906660156E+03  0.00000000000E+00 0. -1.
         25    1    1    2    0    0 -0.94624994455E+02  0.50108818338E+02 -0.28134354427E+02  0.16697701983E+03  0.12500000000E+03 0.  0.
         25    1    1    2    0    0 -0.51552084657E+02  0.42093139151E+02 -0.35764302196E+02  0.14606003939E+03  0.12500000000E+03 0.  0.
         25    1    1    2    0    0  0.14617707911E+03 -0.92201957490E+02  0.12708641570E+03  0.24828390298E+03  0.12500000000E+03 0.  0.
</event>
<event>
 5    0  0.5720942E-005  0.3339987E+03  0.7546771E-02  0.1069381E+00
         21   -1    0    0  502  501  0.00000000000E+00  0.00000000000E+00  0.92203003423E+03  0.92203003423E+03  0.00000000000E+00 0.  1.
         21   -1    0    0  501  502 -0.00000000000E+00 -0.00000000000E+00 -0.12098860199E+03  0.12098860199E+03  0.00000000000E+00 0.  1.
         25    1    1    2    0    0  0.95059612341E+02 -0.11368057390E+03  0.14621523878E+03  0.24282400794E+03  0.12500000000E+03 0.  0.
         25    1    1    2    0    0 -0.21337958112E+03 -0.63065772356E-01  0.42194682075E+03  0.48907562724E+03  0.12500000000E+03 0.  0.
         25    1    1    2    0    0  0.11831996878E+03  0.11374363967E+03  0.23287937270E+03  0.31111900104E+03  0.12500000000E+03 0.  0.
</event>
<event>
 5    0  0.5720942E-005  0.2900463E+03  0.7546771E-02  0.1090325E+00
         21   -1    0    0  502  501  0.00000000000E+00  0.00000000000E+00  0.75824027080E+02  0.75824027080E+02  0.00000000000E+00 0.  1.
         21   -1    0    0  501  502 -0.00000000000E+00 -0.00000000000E+00 -0.11095014012E+04  0.11095014012E+04  0.00000000000E+00 0.  1.
         25    1    1    2    0    0 -0.11813389024E+03  0.25930884840E+02 -0.24847982878E+03  0.30330719102E+03  0.12500000000E+03 0.  0.
         25    1    1    2    0    0  0.16353977782E+03 -0.12076252459E+02 -0.68379057953E+03  0.71420280835E+03  0.12500000000E+03 0.  0.
         25    1    1    2    0    0 -0.45405887573E+02 -0.13854632381E+02 -0.10140696580E+03  0.16781542890E+03  0.12500000000E+03 0.  0.
</event>
<event>
 5    0  0.5720942E-005  0.3037921E+03  0.7546771E-02  0.1083360E+00
         21   -1    0    0  502  501  0.00000000000E+00  0.00000000000E+00  0.13022244336E+03  0.13022244336E+03  0.00000000000E+00 0.  1.
         21   -1    0    0  501  502 -0.00000000000E+00 -0.00000000000E+00 -0.70870773992E+03  0.70870773992E+03  0.00000000000E+00 0.  1.
         25    1    1    2    0    0  0.12753195895E+03  0.45481787609E+02 -0.18011199063E+03  0.25767871997E+03  0.12500000000E+03 0.  0.
         25    1    1    2    0    0 -0.35429347653E+02  0.11873800374E+03 -0.86539126573E+02  0.19613253844E+03  0.12500000000E+03 0.  0.
         25    1    1    2    0    0 -0.92102611299E+02 -0.16421979135E+03 -0.31183417935E+03  0.38511892487E+03  0.12500000000E+03 0.  0.
</event>
<event>
 5    0  0.5720942E-005  0.2792501E+03  0.7546771E-02  0.1096099E+00
         21   -1    0    0  502  501  0.00000000000E+00  0.00000000000E+00  0.11217964180E+04  0.11217964180E+04  0.00000000000E+00 0.  1.
         21   -1    0    0  501  502 -0.00000000000E+00 -0.00000000000E+00 -0.69514062363E+02  0.69514062363E+02  0.00000000000E+00 0.  1.
         25    1    1    2    0    0 -0.16884003592E+02  0.52180551131E+02  0.46496473514E+03  0.48458754051E+03  0.12500000000E+03 0.  0.
         25    1    1    2    0    0  0.38266790596E+02  0.79643317845E+02  0.45746968784E+03  0.48240120297E+03  0.12500000000E+03 0.  0.
         25    1    1    2    0    0 -0.21382787004E+02 -0.13182386898E+03  0.12984793261E+03  0.22432173683E+03  0.12500000000E+03 0.  0.
</event>
<event>
 5    0  0.5720942E-005  0.3035853E+03  0.7546771E-02  0.1083462E+00
         21   -1    0    0  502  501  0.00000000000E+00  0.00000000000E+00  0.17254728981E+03  0.17254728981E+03  0.00000000000E+00 0.  1.
         21   -1    0    0  501  502 -0.00000000000E+00 -0.00000000000E+00 -0.53413778188E+03  0.53413778188E+03  0.00000000000E+00 0.  1.
         25    1    1    2    0    0  0.29943158748E+02 -0.56885344851E+02 -0.20684753469E+03  0.25008686056E+03  0.12500000000E+03 0.  0.
         25    1    1    2    0    0  0.11059523213E+03  0.30414412394E+02  0.50446734723E+02  0.17699213230E+03  0.12500000000E+03 0.  0.
         25    1    1    2    0    0 -0.14053839088E+03  0.26470932457E+02 -0.20518969211E+03  0.27960607884E+03  0.12500000000E+03 0.  0.
</event>
<event>
 5    0  0.5720942E-005  0.2710250E+03  0.7546771E-02  0.1100694E+00
         21   -1    0    0  502  501  0.00000000000E+00  0.00000000000E+00  0.29643712762E+03  0.29643712762E+03  0.00000000000E+00 0. -1.
         21   -1    0    0  501  502 -0.00000000000E+00 -0.00000000000E+00 -0.24779125118E+03  0.24779125118E+03  0.00000000000E+00 0. -1.
         25    1    1    2    0    0  0.37881289809E+01  0.11859474061E+03  0.73610301810E+02  0.18741008232E+03  0.12500000000E+03 0.  0.
         25    1    1    2    0    0 -0.50904642855E+02 -0.14213898715E+03 -0.78293028335E+02  0.21106769677E+03  0.12500000000E+03 0.  0.
         25    1    1    2    0    0  0.47116513875E+02  0.23544246540E+02  0.53328602961E+02  0.14575059972E+03  0.12500000000E+03 0.  0.
</event>
<event>
 5    0  0.5720942E-005  0.2956869E+03  0.7546771E-02  0.1087417E+00
         21   -1    0    0  502  501  0.00000000000E+00  0.00000000000E+00  0.25228184984E+03  0.25228184984E+03  0.00000000000E+00 0.  1.
         21   -1    0    0  501  502 -0.00000000000E+00 -0.00000000000E+00 -0.34655981527E+03  0.34655981527E+03  0.00000000000E+00 0.  1.
         25    1    1    2    0    0 -0.71391330891E+02  0.41316228892E+02 -0.16141339734E+03  0.22018864125E+03  0.12500000000E+03 0.  0.
         25    1    1    2    0    0  0.39588782048E+02  0.91142276171E+02  0.10341152826E+03  0.19024492200E+03  0.12500000000E+03 0.  0.
         25    1    1    2    0    0  0.31802548844E+02 -0.13245850506E+03 -0.36276096356E+02  0.18840810185E+03  0.12500000000E+03 0.  0.
</event>
<event>
 5    0  0.5988894E-005  0.3370191E+03  0.7546771E-02  0.1068073E+00
         21   -1    0    0  502  501  0.00000000000E+00  0.00000000000E+00  0.36675938420E+03  0.36675938420E+03  0.00000000000E+00 0. -1.
         21   -1    0    0  501  502 -0.00000000000E+00 -0.00000000000E+00 -0.30969039121E+03  0.30969039121E+03  0.00000000000E+00 0. -1.
         25    1    1    2    0    0  0.17222012572E+02  0.27327039257E+02 -0.17561459102E+03  0.21796524808E+03  0.12500000000E+03 0.  0.
         25    1    1    2    0    0  0.11048144954E+03  0.81587603949E+02  0.10509898959E+03  0.21338576668E+03  0.12500000000E+03 0.  0.
         25    1    1    2    0    0 -0.12770346211E+03 -0.10891464321E+03  0.12758459442E+03  0.24509876065E+03  0.12500000000E+03 0.  0.
</event>
<event>
 5    0  0.5720942E-005  0.3298006E+03  0.7546771E-02  0.1071225E+00
         21   -1    0    0  502  501  0.00000000000E+00  0.00000000000E+00  0.26363327191E+03  0.26363327191E+03  0.00000000000E+00 0. -1.
         21   -1    0    0  501  502 -0.00000000000E+00 -0.00000000000E+00 -0.41257476025E+03  0.41257476025E+03  0.00000000000E+00 0. -1.
         25    1    1    2    0    0  0.69410146814E+02  0.84393060093E+02 -0.12275210930E+03  0.20647769228E+03  0.12500000000E+03 0.  0.
         25    1    1    2    0    0  0.70584124345E+02 -0.17459699766E+02 -0.17060141445E+03  0.22364436577E+03  0.12500000000E+03 0.  0.
         25    1    1    2    0    0 -0.13999427116E+03 -0.66933360327E+02  0.14441203541E+03  0.24608597411E+03  0.12500000000E+03 0.  0.
</event>
<event>
 5    0  0.5720942E-005  0.3438779E+03  0.7546771E-02  0.1065156E+00
         21   -1    0    0  502  501  0.00000000000E+00  0.00000000000E+00  0.46029946354E+03  0.46029946354E+03  0.00000000000E+00 0.  1.
         21   -1    0    0  501  502 -0.00000000000E+00 -0.00000000000E+00 -0.25690228177E+03  0.25690228177E+03  0.00000000000E+00 0.  1.
         25    1    1    2    0    0 -0.72806687634E+02 -0.84490880235E+02  0.20796066137E+03  0.26704336592E+03  0.12500000000E+03 0.  0.
         25    1    1    2    0    0 -0.37229507970E+02  0.17264838978E+03  0.95839277446E+02  0.23665094519E+03  0.12500000000E+03 0.  0.
         25    1    1    2    0    0  0.11003619560E+03 -0.88157509549E+02 -0.10040275705E+03  0.21350743419E+03  0.12500000000E+03 0.  0.
</event>
<event>
 5    0  0.5811985E-005  0.2740172E+03  0.7546771E-02  0.1099002E+00
         21   -1    0    0  502  501  0.00000000000E+00  0.00000000000E+00  0.15235536022E+03  0.15235536022E+03  0.00000000000E+00 0.  1.
         21   -1    0    0  501  502 -0.00000000000E+00 -0.00000000000E+00 -0.49283093411E+03  0.49283093411E+03  0.00000000000E+00 0.  1.
         25    1    1    2    0    0  0.58707532738E+02  0.22758530974E+02  0.31685648208E+02  0.14350437427E+03  0.12500000000E+03 0.  0.
         25    1    1    2    0    0  0.70623199455E+02  0.17144293878E+02 -0.21727406230E+03  0.26098770328E+03  0.12500000000E+03 0.  0.
         25    1    1    2    0    0 -0.12933073219E+03 -0.39902824852E+02 -0.15488715981E+03  0.24069421679E+03  0.12500000000E+03 0.  0.
</event>
<event>
 5    0  0.5720942E-005  0.3592636E+03  0.7546771E-02  0.1058876E+00
         21   -1    0    0  502  501  0.00000000000E+00  0.00000000000E+00  0.69294964090E+03  0.69294964090E+03  0.00000000000E+00 0. -1.
         21   -1    0    0  501  502 -0.00000000000E+00 -0.00000000000E+00 -0.18626221635E+03  0.18626221635E+03  0.00000000000E+00 0. -1.
         25    1    1    2    0    0 -0.97162236553E+01  0.10454069268E+03  0.47479052647E+00  0.16324333633E+03  0.12500000000E+03 0.  0.
         25    1    1    2    0    0  0.19893267133E+03 -0.27562746924E+02  0.12979459028E+03  0.26982503295E+03  0.12500000000E+03 0.  0.
         25    1    1    2    0    0 -0.18921644767E+03 -0.76977945761E+02  0.37641804375E+03  0.44614348798E+03  0.12500000000E+03 0.  0.
</event>
<event>
 5    0  0.5720942E-005  0.2514553E+03  0.7546771E-02  0.1112389E+00
         21   -1    0    0  502  501  0.00000000000E+00  0.00000000000E+00  0.51682929036E+02  0.51682929036E+02  0.00000000000E+00 0. -1.
         21   -1    0    0  501  502 -0.00000000000E+00 -0.00000000000E+00 -0.12234171470E+04  0.12234171470E+04  0.00000000000E+00 0. -1.
         25    1    1    2    0    0  0.46241281851E+02 -0.66371626664E+02 -0.57731355889E+03  0.59620415485E+03  0.12500000000E+03 0.  0.
         25    1    1    2    0    0 -0.43160510190E+02 -0.42005080004E+02 -0.40114703793E+03  0.42446578476E+03  0.12500000000E+03 0.  0.
         25    1    1    2    0    0 -0.30807716610E+01  0.10837670667E+03 -0.19327362117E+03  0.25443013647E+03  0.12500000000E+03 0.  0.
</event>
<event>
 5    0  0.5720942E-005  0.1984152E+03  0.7546771E-02  0.1151083E+00
         21   -1    0    0  502  501  0.00000000000E+00  0.00000000000E+00  0.96475224486E+03  0.96475224486E+03  0.00000000000E+00 0. -1.
         21   -1    0    0  501  502 -0.00000000000E+00 -0.00000000000E+00 -0.40806945452E+02  0.40806945452E+02  0.00000000000E+00 0. -1.
         25    1    1    2    0    0 -0.65837639751E+01 -0.76441091247E+01  0.21377159604E+03  0.24784082316E+03  0.12500000000E+03 0.  0.
         25    1    1    2    0    0  0.21531250009E+02  0.23917924211E+02  0.26441434882E+03  0.29423733564E+03  0.12500000000E+03 0.  0.
         25    1    1    2    0    0 -0.14947486034E+02 -0.16273815087E+02  0.44575935455E+03  0.46348103151E+03  0.12500000000E+03 0.  0.
</event>
<event>
 5    0  0.5720942E-005  0.3652385E+03  0.7546771E-02  0.1056529E+00
         21   -1    0    0  502  501  0.00000000000E+00  0.00000000000E+00  0.38112176003E+03  0.38112176003E+03  0.00000000000E+00 0.  1.
         21   -1    0    0  501  502 -0.00000000000E+00 -0.00000000000E+00 -0.35001710845E+03  0.35001710845E+03  0.00000000000E+00 0.  1.
         25    1    1    2    0    0 -0.17148465916E+02 -0.74634621365E+02 -0.63600024408E+02  0.15979474239E+03  0.12500000000E+03 0.  0.
         25    1    1    2    0    0 -0.81000916172E+02  0.25133171078E+03 -0.45103992398E+02  0.29561486329E+03  0.12500000000E+03 0.  0.
         25    1    1    2    0    0  0.98149382088E+02 -0.17669708942E+03  0.13980866839E+03  0.27572926281E+03  0.12500000000E+03 0.  0.
</event>
<event>
 5    0  0.5720942E-005  0.2870868E+03  0.7546771E-02  0.1091880E+00
         21   -1    0    0  502  501  0.00000000000E+00  0.00000000000E+00  0.56204542584E+03  0.56204542584E+03  0.00000000000E+00 0. -1.
         21   -1    0    0  501  502 -0.00000000000E+00 -0.00000000000E+00 -0.14664091423E+03  0.14664091423E+03  0.00000000000E+00 0. -1.
         25    1    1    2    0    0  0.89253895614E+02 -0.52582597145E+02  0.27875025894E+02  0.16472159686E+03  0.12500000000E+03 0.  0.
         25    1    1    2    0    0 -0.11767093520E+02 -0.74433575660E+02  0.49617800403E+02  0.15416143419E+03  0.12500000000E+03 0.  0.
         25    1    1    2    0    0 -0.77486802095E+02  0.12701617280E+03  0.33791168531E+03  0.38980330902E+03  0.12500000000E+03 0.  0.
</event>
<event>
 5    0  0.5720942E-005  0.4398506E+03  0.7546771E-02  0.1030793E+00
         21   -1    0    0  502  501  0.00000000000E+00  0.00000000000E+00  0.26762203271E+03  0.26762203271E+03  0.00000000000E+00 0. -1.
         21   -1    0    0  501  502 -0.00000000000E+00 -0.00000000000E+00 -0.72291716311E+03  0.72291716311E+03  0.00000000000E+00 0. -1.
         25    1    1    2    0    0  0.21269866176E+03 -0.10902621441E+03 -0.13737185461E+03  0.30269367780E+03  0.12500000000E+03 0.  0.
         25    1    1    2    0    0 -0.11959295762E+03  0.26613075829E+03 -0.21800072058E+02  0.31816395013E+03  0.12500000000E+03 0.  0.
         25    1    1    2    0    0 -0.93105704131E+02 -0.15710454388E+03 -0.29612320374E+03  0.36968156790E+03  0.12500000000E+03 0.  0.
</event>
<event>
 5    0  0.5720942E-005  0.2397428E+03  0.7546771E-02  0.1119964E+00
         21   -1    0    0  502  501  0.00000000000E+00  0.00000000000E+00  0.31302191515E+03  0.31302191515E+03  0.00000000000E+00 0. -1.
         21   -1    0    0  501  502 -0.00000000000E+00 -0.00000000000E+00 -0.18361847806E+03  0.18361847806E+03  0.00000000000E+00 0. -1.
         25    1    1    2    0    0 -0.34357618736E+02  0.87074652813E+02  0.60214199169E+02  0.16737141605E+03  0.12500000000E+03 0.  0.
         25    1    1    2    0    0  0.78612169351E+02  0.40894995883E+00 -0.16817929085E+02  0.14861992850E+03  0.12500000000E+03 0.  0.
         25    1    1    2    0    0 -0.44254550615E+02 -0.87483602771E+02  0.86007167002E+02  0.18064904865E+03  0.12500000000E+03 0.  0.
</event>
<event>
 5    0  0.5720942E-005  0.2430436E+03  0.7546771E-02  0.1117782E+00
         21   -1    0    0  502  501  0.00000000000E+00  0.00000000000E+00  0.19620342271E+03  0.19620342271E+03  0.00000000000E+00 0.  1.
         21   -1    0    0  501  502 -0.00000000000E+00 -0.00000000000E+00 -0.30106596013E+03  0.30106596013E+03  0.00000000000E+00 0.  1.
         25    1    1    2    0    0  0.62772262174E+01  0.83382690746E+02 -0.45900399448E+02  0.15723842836E+03  0.12500000000E+03 0.  0.
         25    1    1    2    0    0 -0.95228807806E+02 -0.46917825344E+01 -0.58105255322E+02  0.16760596456E+03  0.12500000000E+03 0.  0.
         25    1    1    2    0    0  0.88951581588E+02 -0.78690908211E+02 -0.85688265189E+00  0.17242498992E+03  0.12500000000E+03 0.  0.
</event>
<event>
 5    0  0.5720942E-005  0.2262692E+03  0.7546771E-02  0.1129294E+00
         21   -1    0    0  502  501  0.00000000000E+00  0.00000000000E+00  0.38292578680E+03  0.38292578680E+03  0.00000000000E+00 0. -1.
         21   -1    0    0  501  502 -0.00000000000E+00 -0.00000000000E+00 -0.13370152748E+03  0.13370152748E+03  0.00000000000E+00 0. -1.
         25    1    1    2    0    0 -0.95718177135E+02  0.43743709625E+02  0.37040068026E+02  0.16754834587E+03  0.12500000000E+03 0.  0.
         25    1    1    2    0    0  0.34474134834E+02 -0.32368197791E+01  0.76897727499E+02  0.15078860524E+03  0.12500000000E+03 0.  0.
         25    1    1    2    0    0  0.61244042301E+02 -0.40506889846E+02  0.13528646379E+03  0.19829036317E+03  0.12500000000E+03 0.  0.
</event>
<event>
 5    0  0.5720942E-005  0.2947203E+03  0.7546771E-02  0.1087910E+00
         21   -1    0    0  502  501  0.00000000000E+00  0.00000000000E+00  0.40173855396E+03  0.40173855396E+03  0.00000000000E+00 0.  1.
         21   -1    0    0  501  502 -0.00000000000E+00 -0.00000000000E+00 -0.21621034877E+03  0.21621034877E+03  0.00000000000E+00 0.  1.
         25    1    1    2    0    0  0.35486677007E+02  0.86562744294E+02  0.25643580179E+03  0.30022780248E+03  0.12500000000E+03 0.  0.
         25    1    1    2    0    0 -0.52188010141E+01 -0.10335487556E+03 -0.91646800940E+02  0.18636953160E+03  0.12500000000E+03 0.  0.
         25    1    1    2    0    0 -0.30267875993E+02  0.16792131265E+02  0.20739204347E+02  0.13135156865E+03  0.12500000000E+03 0.  0.
</event>
<event>
 5    0  0.5720942E-005  0.2209471E+03  0.7546771E-02  0.1133179E+00
         21   -1    0    0  502  501  0.00000000000E+00  0.00000000000E+00  0.11347871794E+04  0.11347871794E+04  0.00000000000E+00 0.  1.
         21   -1    0    0  501  502 -0.00000000000E+00 -0.00000000000E+00 -0.43019198485E+02  0.43019198485E+02  0.00000000000E+00 0.  1.
         25    1    1    2    0    0  0.30174700216E+02  0.15148263509E+02  0.57159590033E+03  0.58607751679E+03  0.12500000000E+03 0.  0.
         25    1    1    2    0    0 -0.16330096385E+02  0.17945099028E+02  0.13675197455E+03  0.18685502714E+03  0.12500000000E+03 0.  0.
         25    1    1    2    0    0 -0.13844603832E+02 -0.33093362536E+02  0.38342010608E+03  0.40487383399E+03  0.12500000000E+03 0.  0.
</event>
<event>
 5    0  0.5720942E-005  0.3015504E+03  0.7546771E-02  0.1084468E+00
         21   -1    0    0  502  501  0.00000000000E+00  0.00000000000E+00  0.97497344058E+02  0.97497344058E+02  0.00000000000E+00 0. -1.
         21   -1    0    0  501  502 -0.00000000000E+00 -0.00000000000E+00 -0.93266763984E+03  0.93266763984E+03  0.00000000000E+00 0. -1.
         25    1    1    2    0    0  0.12233504578E+02  0.65914432272E+02 -0.65092585315E+03  0.66620104872E+03  0.12500000000E+03 0.  0.
         25    1    1    2    0    0 -0.86384501602E+01  0.57722669205E+02 -0.85022216518E+02  0.16205032139E+03  0.12500000000E+03 0.  0.
         25    1    1    2    0    0 -0.35950544173E+01 -0.12363710148E+03 -0.99222226114E+02  0.20191361379E+03  0.12500000000E+03 0.  0.
</event>
<event>
 5    0  0.5720942E-005  0.2901285E+03  0.7546771E-02  0.1090282E+00
         21   -1    0    0  502  501  0.00000000000E+00  0.00000000000E+00  0.10638025288E+03  0.10638025288E+03  0.00000000000E+00 0.  1.
         21   -1    0    0  501  502 -0.00000000000E+00 -0.00000000000E+00 -0.79126112699E+03  0.79126112699E+03  0.00000000000E+00 0.  1.
         25    1    1    2    0    0 -0.29485928441E+02 -0.14238383456E+03 -0.20735598160E+03  0.28242535195E+03  0.12500000000E+03 0.  0.
         25    1    1    2    0    0  0.12822970612E+03  0.35839803818E+02 -0.15262087235E+03  0.23800310869E+03  0.12500000000E+03 0.  0.
         25    1    1    2    0    0 -0.98743777678E+02  0.10654403074E+03 -0.32490402016E+03  0.37721291922E+03  0.12500000000E+03 0.  0.
</event>
<event>
 5    0  0.5720942E-005  0.2890579E+03  0.7546771E-02  0.1090842E+00
         21   -1    0    0  502  501  0.00000000000E+00  0.00000000000E+00  0.79181843069E+03  0.79181843069E+03  0.00000000000E+00 0.  1.
         21   -1    0    0  501  502 -0.00000000000E+00 -0.00000000000E+00 -0.10552224359E+03  0.10552224359E+03  0.00000000000E+00 0.  1.
         25    1    1    2    0    0 -0.99580885664E+02  0.24820512991E+02  0.32266308340E+02  0.16491975415E+03  0.12500000000E+03 0.  0.
         25    1    1    2    0    0  0.90639149159E+02 -0.76651457496E+02  0.23130399409E+03  0.28847432984E+03  0.12500000000E+03 0.  0.
         25    1    1    2    0    0  0.89417365043E+01  0.51830944505E+02  0.42272588467E+03  0.44394659029E+03  0.12500000000E+03 0.  0.
</event>
<event>
 5    0  0.5720942E-005  0.3194639E+03  0.7546771E-02  0.1075896E+00
         21   -1    0    0  502  501  0.00000000000E+00  0.00000000000E+00  0.31132239166E+03  0.31132239166E+03  0.00000000000E+00 0.  1.
         21   -1    0    0  501  502 -0.00000000000E+00 -0.00000000000E+00 -0.32781822335E+03  0.32781822335E+03  0.00000000000E+00 0.  1.
         25    1    1    2    0    0 -0.97358610096E+02 -0.19267153499E+03 -0.19288401323E+02  0.25019604670E+03  0.12500000000E+03 0.  0.
         25    1    1    2    0    0 -0.34863227254E+02  0.14072005442E+03 -0.38523213177E+02  0.19526038074E+03  0.12500000000E+03 0.  0.
         25    1    1    2    0    0  0.13222183735E+03  0.51951480569E+02  0.41315782810E+02  0.19368418757E+03  0.12500000000E+03 0.  0.
</event>
<event>
 5    0  0.5720942E-005  0.2736999E+03  0.7546771E-02  0.1099181E+00
         21   -1    0    0  502  501  0.00000000000E+00  0.00000000000E+00  0.63828815756E+02  0.63828815756E+02  0.00000000000E+00 0. -1.
         21   -1    0    0  501  502 -0.00000000000E+00 -0.00000000000E+00 -0.11736337269E+04  0.11736337269E+04  0.00000000000E+00 0. -1.
         25    1    1    2    0    0  0.66817108485E+02  0.20297503549E+02 -0.30319634609E+03  0.33530514300E+03  0.12500000000E+03 0.  0.
         25    1    1    2    0    0  0.14739911281E+02  0.12265890989E+03 -0.22885671360E+03  0.28855306014E+03  0.12500000000E+03 0.  0.
         25    1    1    2    0    0 -0.81557019765E+02 -0.14295641343E+03 -0.57775185146E+03  0.61360433952E+03  0.12500000000E+03 0.  0.
</event>
<event>
 5    0  0.5720942E-005  0.2941725E+03  0.7546771E-02  0.1088191E+00
         21   -1    0    0  502  501  0.00000000000E+00  0.00000000000E+00  0.24594514070E+03  0.24594514070E+03  0.00000000000E+00 0. -1.
         21   -1    0    0  501  502 -0.00000000000E+00 -0.00000000000E+00 -0.35185668029E+03  0.35185668029E+03  0.00000000000E+00 0. -1.
         25    1    1    2    0    0 -0.10629178308E+03 -0.50310769826E+02  0.91907930506E+01  0.17186793589E+03  0.12500000000E+03 0.  0.
         25    1    1    2    0    0 -0.42649263951E+02  0.37416364406E+02 -0.17467494922E+03  0.22216048687E+03  0.12500000000E+03 0.  0.
         25    1    1    2    0    0  0.14894104703E+03  0.12894405421E+02  0.59572616578E+02  0.20377339823E+03  0.12500000000E+03 0.  0.
</event>
<event>
 5    0  0.5720942E-005  0.2351430E+03  0.7546771E-02  0.1123071E+00
         21   -1    0    0  502  501  0.00000000000E+00  0.00000000000E+00  0.50591040728E+03  0.50591040728E+03  0.00000000000E+00 0. -1.
         21   -1    0    0  501  502 -0.00000000000E+00 -0.00000000000E+00 -0.10929257904E+03  0.10929257904E+03  0.00000000000E+00 0. -1.
         25    1    1    2    0    0  0.76014548779E+02 -0.53756889294E+02  0.10084539535E+03  0.18564161316E+03  0.12500000000E+03 0.  0.
         25    1    1    2    0    0 -0.80329795049E+00 -0.47250074760E+02  0.11578783498E+03  0.17681922289E+03  0.12500000000E+03 0.  0.
         25    1    1    2    0    0 -0.75211250828E+02  0.10100696405E+03  0.17998459791E+03  0.25274215027E+03  0.12500000000E+03 0.  0.
</event>
<event>
 5    0  0.5720942E-005  0.2951463E+03  0.7546771E-02  0.1087692E+00
         21   -1    0    0  502  501  0.00000000000E+00  0.00000000000E+00  0.25648684401E+04  0.25648684401E+04  0.00000000000E+00 0. -1.
         21   -1    0    0  501  502 -0.00000000000E+00 -0.00000000000E+00 -0.33963284349E+02  0.33963284349E+02  0.00000000000E+00 0. -1.
         25    1    1    2    0    0  0.67483485440E+01 -0.90919163195E+02  0.13966914725E+04  0.14052344657E+04  0.12500000000E+03 0.  0.
         25    1    1    2    0    0  0.19998637283E+02  0.58989950028E+02  0.98368793415E+03  0.99355257107E+03  0.12500000000E+03 0.  0.
         25    1    1    2    0    0 -0.26746985828E+02  0.31929213167E+02  0.15052574920E+03  0.20004468770E+03  0.12500000000E+03 0.  0.
</event>
<event>
 5    0  0.5720942E-005  0.3039958E+03  0.7546771E-02  0.1083260E+00
         21   -1    0    0  502  501  0.00000000000E+00  0.00000000000E+00  0.18375070247E+04  0.18375070247E+04  0.00000000000E+00 0.  1.
         21   -1    0    0  501  502 -0.00000000000E+00 -0.00000000000E+00 -0.50292836222E+02  0.50292836222E+02  0.00000000000E+00 0.  1.
         25    1    1    2    0    0 -0.62872807980E+02  0.10003137613E+03  0.42549333367E+03  0.45894318079E+03  0.12500000000E+03 0.  0.
         25    1    1    2    0    0  0.13397357287E+03  0.12829054622E+02  0.10621440210E+04  0.10779092839E+04  0.12500000000E+03 0.  0.
         25    1    1    2    0    0 -0.71100764895E+02 -0.11286043075E+03  0.29957683377E+03  0.35094739624E+03  0.12500000000E+03 0.  0.
</event>
<event>
 5    0  0.5720942E-005  0.5087202E+03  0.7546771E-02  0.1011528E+00
         21   -1    0    0  502  501  0.00000000000E+00  0.00000000000E+00  0.32695896231E+03  0.32695896231E+03  0.00000000000E+00 0. -1.
         21   -1    0    0  501  502 -0.00000000000E+00 -0.00000000000E+00 -0.79152518021E+03  0.79152518021E+03  0.00000000000E+00 0.  1.
         25    1    1    2    0    0  0.38040940401E+02 -0.78609239714E+02  0.45636354571E+02  0.15916721576E+03  0.12500000000E+03 0.  0.
         25    1    1    2    0    0  0.28506223210E+03 -0.12054611347E+03 -0.44208931294E+03  0.55394927769E+03  0.12500000000E+03 0.  0.
         25    1    1    2    0    0 -0.32310317250E+03  0.19915535318E+03 -0.68113259535E+02  0.40536764906E+03  0.12500000000E+03 0.  0.
</event>
<event>
 5    0  0.5720942E-005  0.2805876E+03  0.7546771E-02  0.1095368E+00
         21   -1    0    0  502  501  0.00000000000E+00  0.00000000000E+00  0.48646896791E+03  0.48646896791E+03  0.00000000000E+00 0. -1.
         21   -1    0    0  501  502 -0.00000000000E+00 -0.00000000000E+00 -0.16183853023E+03  0.16183853023E+03  0.00000000000E+00 0. -1.
         25    1    1    2    0    0 -0.23278347687E+02 -0.10514762620E+03  0.12512636918E+03  0.20707368985E+03  0.12500000000E+03 0.  0.
         25    1    1    2    0    0  0.54450424190E+02  0.77328994659E+02  0.25411508167E+03  0.29857008699E+03  0.12500000000E+03 0.  0.
         25    1    1    2    0    0 -0.31172076503E+02  0.27818631536E+02 -0.54611013171E+02  0.14266372129E+03  0.12500000000E+03 0.  0.
</event>
<event>
 5    0  0.6109743E-005  0.3911242E+03  0.7546771E-02  0.1046897E+00
         21   -1    0    0  502  501  0.00000000000E+00  0.00000000000E+00  0.16747308846E+03  0.16747308846E+03  0.00000000000E+00 0.  1.
         21   -1    0    0  501  502 -0.00000000000E+00 -0.00000000000E+00 -0.91344912104E+03  0.91344912104E+03  0.00000000000E+00 0.  1.
         25    1    1    2    0    0  0.58331311934E+02  0.21095999261E+03 -0.12715204438E+03  0.28231064951E+03  0.12500000000E+03 0.  0.
         25    1    1    2    0    0  0.74090849794E+02 -0.21281363201E+03 -0.15595775488E+03  0.30120909232E+03  0.12500000000E+03 0.  0.
         25    1    1    2    0    0 -0.13242216173E+03  0.18536393975E+01 -0.46286623332E+03  0.49740246767E+03  0.12500000000E+03 0.  0.
</event>
<event>
 5    0  0.5720942E-005  0.2748298E+03  0.7546771E-02  0.1098547E+00
         21   -1    0    0  502  501  0.00000000000E+00  0.00000000000E+00  0.12136005721E+03  0.12136005721E+03  0.00000000000E+00 0. -1.
         21   -1    0    0  501  502 -0.00000000000E+00 -0.00000000000E+00 -0.62237467289E+03  0.62237467289E+03  0.00000000000E+00 0. -1.
         25    1    1    2    0    0 -0.43898260657E+02  0.11375111768E+02 -0.11405314412E+03  0.17518438898E+03  0.12500000000E+03 0.  0.
         25    1    1    2    0    0 -0.66633889881E+02  0.42679700979E+02 -0.47527913214E+01  0.14801763808E+03  0.12500000000E+03 0.  0.
         25    1    1    2    0    0  0.11053215054E+03 -0.54054812747E+02 -0.38220868023E+03  0.42053270304E+03  0.12500000000E+03 0.  0.
</event>
<event>
 5    0  0.5720942E-005  0.4131596E+03  0.7546771E-02  0.1039316E+00
         21   -1    0    0  502  501  0.00000000000E+00  0.00000000000E+00  0.18999986650E+04  0.18999986650E+04  0.00000000000E+00 0. -1.
         21   -1    0    0  501  502 -0.00000000000E+00 -0.00000000000E+00 -0.89842596826E+02  0.89842596826E+02  0.00000000000E+00 0. -1.
         25    1    1    2    0    0 -0.22565085645E+03  0.74313843228E+01  0.84989676408E+03  0.88821340008E+03  0.12500000000E+03 0.  0.
         25    1    1    2    0    0 -0.98977118028E+02  0.79479556063E+02  0.26432470008E+03  0.31875698706E+03  0.12500000000E+03 0.  0.
         25    1    1    2    0    0  0.32462797448E+03 -0.86910940386E+02  0.69593460403E+03  0.78287087470E+03  0.12500000000E+03 0.  0.
</event>
<event>
 5    0  0.5720942E-005  0.2683230E+03  0.7546771E-02  0.1102243E+00
         21   -1    0    0  502  501  0.00000000000E+00  0.00000000000E+00  0.57536863851E+02  0.57536863851E+02  0.00000000000E+00 0. -1.
         21   -1    0    0  501  502 -0.00000000000E+00 -0.00000000000E+00 -0.12513235160E+04  0.12513235160E+04  0.00000000000E+00 0. -1.
         25    1    1    2    0    0  0.45579376356E+02 -0.25742736319E+02 -0.32834620021E+03  0.35521316870E+03  0.12500000000E+03 0.  0.
         25    1    1    2    0    0 -0.17184644618E+03 -0.26321911887E+02 -0.42564858966E+03  0.47647220904E+03  0.12500000000E+03 0.  0.
         25    1    1    2    0    0  0.12626706982E+03  0.52064648206E+02 -0.43979186227E+03  0.47717500211E+03  0.12500000000E+03 0.  0.
</event>
<event>
 5    0  0.5720942E-005  0.2389996E+03  0.7546771E-02  0.1120461E+00
         21   -1    0    0  502  501  0.00000000000E+00  0.00000000000E+00  0.13827870121E+03  0.13827870121E+03  0.00000000000E+00 0.  1.
         21   -1    0    0  501  502 -0.00000000000E+00 -0.00000000000E+00 -0.41308452938E+03  0.41308452938E+03  0.00000000000E+00 0.  1.
         25    1    1    2    0    0 -0.37313681514E+02  0.75368741792E+01  0.34986121361E+02  0.13527063239E+03  0.12500000000E+03 0.  0.
         25    1    1    2    0    0 -0.70788331530E+01 -0.25415673358E+02 -0.22164259628E+03  0.25582514891E+03  0.12500000000E+03 0.  0.
         25    1    1    2    0    0  0.44392514667E+02  0.17878799179E+02 -0.88149353251E+02  0.16026744927E+03  0.12500000000E+03 0.  0.
</event>
<event>
 5    0  0.5720942E-005  0.2868185E+03  0.7546771E-02  0.1092022E+00
         21   -1    0    0  502  501  0.00000000000E+00  0.00000000000E+00  0.11573670535E+03  0.11573670535E+03  0.00000000000E+00 0. -1.
         21   -1    0    0  501  502 -0.00000000000E+00 -0.00000000000E+00 -0.71079291512E+03  0.71079291512E+03  0.00000000000E+00 0. -1.
         25    1    1    2    0    0 -0.10711988791E+03  0.91872745102E+02 -0.40027111919E+02  0.19272374365E+03  0.12500000000E+03 0.  0.
         25    1    1    2    0    0  0.36056986847E+02  0.54001206811E+01 -0.20074597195E+03  0.23927643607E+03  0.12500000000E+03 0.  0.
         25    1    1    2    0    0  0.71062901065E+02 -0.97272865783E+02 -0.35428312589E+03  0.39452944075E+03  0.12500000000E+03 0.  0.
</event>
<event>
 5    0  0.5720942E-005  0.2799212E+03  0.7546771E-02  0.1095732E+00
         21   -1    0    0  502  501  0.00000000000E+00  0.00000000000E+00  0.93112722791E+02  0.93112722791E+02  0.00000000000E+00 0.  1.
         21   -1    0    0  501  502 -0.00000000000E+00 -0.00000000000E+00 -0.84151635190E+03  0.84151635190E+03  0.00000000000E+00 0.  1.
         25    1    1    2    0    0  0.28831916074E+02  0.25432171985E+02 -0.60922882073E+03  0.62310739906E+03  0.12500000000E+03 0.  0.
         25    1    1    2    0    0 -0.32705872375E+02  0.30034676134E+02 -0.10836100899E+03  0.17128591339E+03  0.12500000000E+03 0.  0.
         25    1    1    2    0    0  0.38739563008E+01 -0.55466848119E+02 -0.30813799395E+02  0.14023576224E+03  0.12500000000E+03 0.  0.
</event>
<event>
 5    0  0.5720942E-005  0.2444140E+03  0.7546771E-02  0.1116887E+00
         21   -1    0    0  502  501  0.00000000000E+00  0.00000000000E+00  0.38674634594E+03  0.38674634594E+03  0.00000000000E+00 0. -1.
         21   -1    0    0  501  502 -0.00000000000E+00 -0.00000000000E+00 -0.15446350219E+03  0.15446350219E+03  0.00000000000E+00 0. -1.
         25    1    1    2    0    0 -0.13494386227E+02  0.19428683914E+02  0.11191204159E+03  0.16943694187E+03  0.12500000000E+03 0.  0.
         25    1    1    2    0    0 -0.89814384458E+02 -0.32500834355E+02  0.13650606274E+03  0.20828305993E+03  0.12500000000E+03 0.  0.
         25    1    1    2    0    0  0.10330877068E+03  0.13072150440E+02 -0.16135260587E+02  0.16348984633E+03  0.12500000000E+03 0.  0.
</event>
<event>
 5    0  0.5720942E-005  0.2886794E+03  0.7546771E-02  0.1091041E+00
         21   -1    0    0  502  501  0.00000000000E+00  0.00000000000E+00  0.39615917892E+02  0.39615917892E+02  0.00000000000E+00 0.  1.
         21   -1    0    0  501  502 -0.00000000000E+00 -0.00000000000E+00 -0.21035934651E+04  0.21035934651E+04  0.00000000000E+00 0.  1.
         25    1    1    2    0    0 -0.82109146418E+02 -0.39125178601E+02 -0.13426712022E+04  0.13515412124E+04  0.12500000000E+03 0.  0.
         25    1    1    2    0    0  0.34974385782E+02  0.79835330679E+02 -0.54961548314E+03  0.57034995134E+03  0.12500000000E+03 0.  0.
         25    1    1    2    0    0  0.47134760636E+02 -0.40710152078E+02 -0.17169086193E+03  0.22131821934E+03  0.12500000000E+03 0.  0.
</event>
<event>
 5    0  0.5720942E-005  0.2876195E+03  0.7546771E-02  0.1091599E+00
         21   -1    0    0  502  501  0.00000000000E+00  0.00000000000E+00  0.19886298421E+03  0.19886298421E+03  0.00000000000E+00 0. -1.
         21   -1    0    0  501  502 -0.00000000000E+00 -0.00000000000E+00 -0.41598994826E+03  0.41598994826E+03  0.00000000000E+00 0. -1.
         25    1    1    2    0    0 -0.10085487676E+03 -0.11667351805E+03 -0.59073809720E+02  0.20712105392E+03  0.12500000000E+03 0.  0.
         25    1    1    2    0    0  0.16720223301E+02  0.60926093785E+02 -0.19766994545E+03  0.24226011249E+03  0.12500000000E+03 0.  0.
         25    1    1    2    0    0  0.84134653456E+02  0.55747424268E+02  0.39616791119E+02  0.16547176606E+03  0.12500000000E+03 0.  0.
</event>
<event>
 5    0  0.5720942E-005  0.3947059E+03  0.7546771E-02  0.1045628E+00
         21   -1    0    0  502  501  0.00000000000E+00  0.00000000000E+00  0.27563814619E+03  0.27563814619E+03  0.00000000000E+00 0.  1.
         21   -1    0    0  501  502 -0.00000000000E+00 -0.00000000000E+00 -0.56520762592E+03  0.56520762592E+03  0.00000000000E+00 0.  1.
         25    1    1    2    0    0  0.11023375272E+02 -0.35778389479E+02 -0.12468501328E+03  0.18047980633E+03  0.12500000000E+03 0.  0.
         25    1    1    2    0    0 -0.28707342338E+02  0.15003825514E+03 -0.35435874802E+03  0.40562385508E+03  0.12500000000E+03 0.  0.
         25    1    1    2    0    0  0.17683967066E+02 -0.11425986566E+03  0.18947428157E+03  0.25474211071E+03  0.12500000000E+03 0.  0.
</event>
<event>
 5    0  0.5720942E-005  0.3995985E+03  0.7546771E-02  0.1043919E+00
         21   -1    0    0  502  501  0.00000000000E+00  0.00000000000E+00  0.16723598183E+03  0.16723598183E+03  0.00000000000E+00 0.  1.
         21   -1    0    0  501  502 -0.00000000000E+00 -0.00000000000E+00 -0.95481200553E+03  0.95481200553E+03  0.00000000000E+00 0.  1.
         25    1    1    2    0    0  0.34983198734E+02  0.17890150840E+03 -0.40720971638E+03  0.46332960948E+03  0.12500000000E+03 0.  0.
         25    1    1    2    0    0 -0.18729293173E+03 -0.39907004002E+02 -0.34659046881E+03  0.41523627529E+03  0.12500000000E+03 0.  0.
         25    1    1    2    0    0  0.15230973299E+03 -0.13899450440E+03 -0.33775838516E+02  0.24348210260E+03  0.12500000000E+03 0.  0.
</event>
<event>
 5    0  0.5720942E-005  0.2680688E+03  0.7546771E-02  0.1102390E+00
         21   -1    0    0  502  501  0.00000000000E+00  0.00000000000E+00  0.12430574367E+03  0.12430574367E+03  0.00000000000E+00 0. -1.
         21   -1    0    0  501  502 -0.00000000000E+00 -0.00000000000E+00 -0.57809766447E+03  0.57809766447E+03  0.00000000000E+00 0. -1.
         25    1    1    2    0    0 -0.89792212535E+02  0.29818789989E+02 -0.41244153034E+02  0.16210453981E+03  0.12500000000E+03 0.  0.
         25    1    1    2    0    0  0.81473967014E+02 -0.92188077163E+02 -0.34022417792E+03  0.38277165532E+03  0.12500000000E+03 0.  0.
         25    1    1    2    0    0  0.83182455208E+01  0.62369287174E+02 -0.72323589843E+02  0.15752721301E+03  0.12500000000E+03 0.  0.
</event>
<event>
 5    0  0.5720942E-005  0.4551987E+03  0.7546771E-02  0.1026183E+00
         21   -1    0    0  502  501  0.00000000000E+00  0.00000000000E+00  0.88122856760E+03  0.88122856760E+03  0.00000000000E+00 0. -1.
         21   -1    0    0  501  502 -0.00000000000E+00 -0.00000000000E+00 -0.23513296309E+03  0.23513296309E+03  0.00000000000E+00 0. -1.
         25    1    1    2    0    0 -0.27819560372E+02  0.13520649710E+03  0.23212518763E+03  0.29759339295E+03  0.12500000000E+03 0.  0.
         25    1    1    2    0    0  0.16823906288E+03  0.15709654264E+03 -0.20108313430E+02  0.26270335030E+03  0.12500000000E+03 0.  0.
         25    1    1    2    0    0 -0.14041950251E+03 -0.29230303973E+03  0.43407873030E+03  0.55606478743E+03  0.12500000000E+03 0.  0.
</event>
<event>
 5    0  0.5720942E-005  0.3733352E+03  0.7546771E-02  0.1053425E+00
         21   -1    0    0  502  501  0.00000000000E+00  0.00000000000E+00  0.52622757164E+03  0.52622757164E+03  0.00000000000E+00 0.  1.
         21   -1    0    0  501  502 -0.00000000000E+00 -0.00000000000E+00 -0.26486480782E+03  0.26486480782E+03  0.00000000000E+00 0.  1.
         25    1    1    2    0    0  0.23954802423E+03  0.18542191562E+03  0.10311123794E+03  0.34354253026E+03  0.12500000000E+03 0.  0.
         25    1    1    2    0    0 -0.11477951260E+03 -0.16724311242E+03  0.11621421419E+03  0.26509496175E+03  0.12500000000E+03 0.  0.
         25    1    1    2    0    0 -0.12476851163E+03 -0.18178803201E+02  0.42037311687E+02  0.18245488745E+03  0.12500000000E+03 0.  0.
</event>
<event>
 5    0  0.6066653E-005  0.3252287E+03  0.7546771E-02  0.1073268E+00
         21   -1    0    0  502  501  0.00000000000E+00  0.00000000000E+00  0.93069774153E+02  0.93069774153E+02  0.00000000000E+00 0. -1.
         21   -1    0    0  501  502 -0.00000000000E+00 -0.00000000000E+00 -0.11364990254E+04  0.11364990254E+04  0.00000000000E+00 0. -1.
         25    1    1    2    0    0 -0.16958207847E+03  0.38380057903E+01 -0.17179758960E+03  0.27186802573E+03  0.12500000000E+03 0.  0.
         25    1    1    2    0    0  0.95365134086E+02 -0.69769209337E+01 -0.13650324444E+03  0.20832983936E+03  0.12500000000E+03 0.  0.
         25    1    1    2    0    0  0.74216944380E+02  0.31389151434E+01 -0.73512841721E+03  0.74937093445E+03  0.12500000000E+03 0.  0.
</event>
<event>
 5    0  0.5720942E-005  0.4587729E+03  0.7546771E-02  0.1025138E+00
         21   -1    0    0  502  501  0.00000000000E+00  0.00000000000E+00  0.12639294789E+03  0.12639294789E+03  0.00000000000E+00 0. -1.
         21   -1    0    0  501  502 -0.00000000000E+00 -0.00000000000E+00 -0.16652240921E+04  0.16652240921E+04  0.00000000000E+00 0. -1.
         25    1    1    2    0    0 -0.42955455687E+02 -0.10905261280E+03 -0.65422819494E+03  0.67629666167E+03  0.12500000000E+03 0.  0.
         25    1    1    2    0    0  0.81863474342E+02  0.30700367950E+03 -0.21157279196E+03  0.40167267016E+03  0.12500000000E+03 0.  0.
         25    1    1    2    0    0 -0.38908018655E+02 -0.19795106670E+03 -0.67303015727E+03  0.71364770813E+03  0.12500000000E+03 0.  0.
</event>
<event>
 5    0  0.5720942E-005  0.3765011E+03  0.7546771E-02  0.1052235E+00
         21   -1    0    0  502  501  0.00000000000E+00  0.00000000000E+00  0.64034914743E+03  0.64034914743E+03  0.00000000000E+00 0. -1.
         21   -1    0    0  501  502 -0.00000000000E+00 -0.00000000000E+00 -0.22136841283E+03  0.22136841283E+03  0.00000000000E+00 0. -1.
         25    1    1    2    0    0 -0.10091351175E+03  0.16801738881E+03  0.12167389766E+03  0.26237933830E+03  0.12500000000E+03 0.  0.
         25    1    1    2    0    0  0.13086627384E+03  0.52226471346E+02  0.28804215186E+03  0.34416110644E+03  0.12500000000E+03 0.  0.
         25    1    1    2    0    0 -0.29952762099E+02 -0.22024386016E+03  0.92646850773E+01  0.25517711552E+03  0.12500000000E+03 0.  0.
</event>
<event>
 5    0  0.5720942E-005  0.2752089E+03  0.7546771E-02  0.1098335E+00
         21   -1    0    0  502  501  0.00000000000E+00  0.00000000000E+00  0.16256041945E+04  0.16256041945E+04  0.00000000000E+00 0. -1.
         21   -1    0    0  501  502 -0.00000000000E+00 -0.00000000000E+00 -0.46591876215E+02  0.46591876215E+02  0.00000000000E+00 0. -1.
         25    1    1    2    0    0 -0.77269909670E+02  0.94821143642E+02  0.10519657336E+04  0.10664045166E+04  0.12500000000E+03 0.  0.
         25    1    1    2    0    0  0.74520544695E+02 -0.12910852494E+02  0.21704443560E+03  0.26163579403E+03  0.12500000000E+03 0.  0.
         25    1    1    2    0    0  0.27493649752E+01 -0.81910291148E+02  0.31000214908E+03  0.34415576014E+03  0.12500000000E+03 0.  0.
</event>
<event>
 5    0  0.5720942E-005  0.3130550E+03  0.7546771E-02  0.1078891E+00
         21   -1    0    0  502  501  0.00000000000E+00  0.00000000000E+00  0.70771154439E+02  0.70771154439E+02  0.00000000000E+00 0. -1.
         21   -1    0    0  501  502 -0.00000000000E+00 -0.00000000000E+00 -0.13847935190E+04  0.13847935190E+04  0.00000000000E+00 0. -1.
         25    1    1    2    0    0  0.21571464560E+03  0.25284267234E+02 -0.67807311400E+03  0.72289712298E+03  0.12500000000E+03 0.  0.
         25    1    1    2    0    0 -0.19030739002E+03 -0.51301915911E+02 -0.42110568943E+03  0.48146006163E+03  0.12500000000E+03 0.  0.
         25    1    1    2    0    0 -0.25407255572E+02  0.26017648677E+02 -0.21484356111E+03  0.25120748880E+03  0.12500000000E+03 0.  0.
</event>
<event>
 5    0  0.5720942E-005  0.2641520E+03  0.7546771E-02  0.1104674E+00
         21   -1    0    0  502  501  0.00000000000E+00  0.00000000000E+00  0.10290240525E+03  0.10290240525E+03  0.00000000000E+00 0.  1.
         21   -1    0    0  501  502 -0.00000000000E+00 -0.00000000000E+00 -0.67808188615E+03  0.67808188615E+03  0.00000000000E+00 0.  1.
         25    1    1    2    0    0 -0.65846085556E+01  0.12758635058E+03 -0.58430089164E+02  0.18804443423E+03  0.12500000000E+03 0.  0.
         25    1    1    2    0    0 -0.28852109840E+02 -0.49255158380E+02 -0.21432353718E+03  0.25459397766E+03  0.12500000000E+03 0.  0.
         25    1    1    2    0    0  0.35436718396E+02 -0.78331192202E+02 -0.30242585455E+03  0.33834587952E+03  0.12500000000E+03 0.  0.
</event>
<event>
 5    0  0.5720942E-005  0.2324263E+03  0.7546771E-02  0.1124944E+00
         21   -1    0    0  502  501  0.00000000000E+00  0.00000000000E+00  0.32904972104E+03  0.32904972104E+03  0.00000000000E+00 0.  1.
         21   -1    0    0  501  502 -0.00000000000E+00 -0.00000000000E+00 -0.16417577622E+03  0.16417577622E+03  0.00000000000E+00 0.  1.
         25    1    1    2    0    0  0.36545256155E+02 -0.24360547403E+02  0.58968516105E+02  0.14502164635E+03  0.12500000000E+03 0.  0.
         25    1    1    2    0    0 -0.26319376580E+02 -0.87974018207E+02  0.12368490854E+02  0.15559600583E+03  0.12500000000E+03 0.  0.
         25    1    1    2    0    0 -0.10225879576E+02  0.11233456561E+03  0.93536937867E+02  0.19260784509E+03  0.12500000000E+03 0.  0.
</event>
<event>
 5    0  0.5720942E-005  0.2278491E+03  0.7546771E-02  0.1128163E+00
         21   -1    0    0  502  501  0.00000000000E+00  0.00000000000E+00  0.13548034726E+03  0.13548034726E+03  0.00000000000E+00 0.  1.
         21   -1    0    0  501  502 -0.00000000000E+00 -0.00000000000E+00 -0.38319382191E+03  0.38319382191E+03  0.00000000000E+00 0.  1.
         25    1    1    2    0    0 -0.99076567803E+01 -0.35453926759E+02 -0.45723373311E+02  0.13809695671E+03  0.12500000000E+03 0.  0.
         25    1    1    2    0    0 -0.57046778185E+02  0.12140403054E+02 -0.19215090697E+03  0.23653476560E+03  0.12500000000E+03 0.  0.
         25    1    1    2    0    0  0.66954434965E+02  0.23313523705E+02 -0.98391943666E+01  0.14404244685E+03  0.12500000000E+03 0.  0.
</event>
<event>
 5    0  0.5720942E-005  0.2562815E+03  0.7546771E-02  0.1109398E+00
         21   -1    0    0  502  501  0.00000000000E+00  0.00000000000E+00  0.88954192423E+03  0.88954192423E+03  0.00000000000E+00 0.  1.
         21   -1    0    0  501  502 -0.00000000000E+00 -0.00000000000E+00 -0.73835961184E+02  0.73835961184E+02  0.00000000000E+00 0.  1.
         25    1    1    2    0    0  0.69675988277E+02  0.55329231049E+02  0.84870714418E+02  0.17533997068E+03  0.12500000000E+03 0.  0.
         25    1    1    2    0    0 -0.18551186613E+02 -0.68643926677E+02  0.24991531620E+03  0.28833799692E+03  0.12500000000E+03 0.  0.
         25    1    1    2    0    0 -0.51124801664E+02  0.13314695628E+02  0.48091993243E+03  0.49969991782E+03  0.12500000000E+03 0.  0.
</event>
<event>
 5    0  0.5720942E-005  0.3661406E+03  0.7546771E-02  0.1056179E+00
         21   -1    0    0  502  501  0.00000000000E+00  0.00000000000E+00  0.10217381523E+04  0.10217381523E+04  0.00000000000E+00 0. -1.
         21   -1    0    0  501  502 -0.00000000000E+00 -0.00000000000E+00 -0.13120673564E+03  0.13120673564E+03  0.00000000000E+00 0. -1.
         25    1    1    2    0    0 -0.15961100012E+03  0.11833245011E+03  0.26818312997E+03  0.35640627283E+03  0.12500000000E+03 0.  0.
         25    1    1    2    0    0  0.12831707494E+03  0.12730397208E+03  0.27503028123E+03  0.35204861685E+03  0.12500000000E+03 0.  0.
         25    1    1    2    0    0  0.31293925183E+02 -0.24563642219E+03  0.34731800549E+03  0.44448999831E+03  0.12500000000E+03 0.  0.
</event>
<event>
 5    0  0.5720942E-005  0.3094208E+03  0.7546771E-02  0.1080624E+00
         21   -1    0    0  502  501  0.00000000000E+00  0.00000000000E+00  0.91377217843E+03  0.91377217843E+03  0.00000000000E+00 0.  1.
         21   -1    0    0  501  502 -0.00000000000E+00 -0.00000000000E+00 -0.10477581888E+03  0.10477581888E+03  0.00000000000E+00 0.  1.
         25    1    1    2    0    0 -0.14021504699E+03 -0.60604845420E+02  0.50211106802E+03  0.53951249413E+03  0.12500000000E+03 0.  0.
         25    1    1    2    0    0  0.12321108052E+03  0.44647401872E+02  0.30156454954E+03  0.35176773359E+03  0.12500000000E+03 0.  0.
         25    1    1    2    0    0  0.17003966474E+02  0.15957443549E+02  0.53207419825E+01  0.12726776959E+03  0.12500000000E+03 0.  0.
</event>
<event>
 5    0  0.5964831E-005  0.2818245E+03  0.7546771E-02  0.1094697E+00
         21   -1    0    0  502  501  0.00000000000E+00  0.00000000000E+00  0.48283691501E+03  0.48283691501E+03  0.00000000000E+00 0. -1.
         21   -1    0    0  501  502 -0.00000000000E+00 -0.00000000000E+00 -0.16449666709E+03  0.16449666709E+03  0.00000000000E+00 0. -1.
         25    1    1    2    0    0 -0.14642435783E+02  0.73445860183E+02 -0.22213208875E+02  0.14740122778E+03  0.12500000000E+03 0.  0.
         25    1    1    2    0    0 -0.37232315689E+02 -0.26133061502E+02  0.28431178503E+01  0.13304986116E+03  0.12500000000E+03 0.  0.
         25    1    1    2    0    0  0.51874751472E+02 -0.47312798681E+02  0.33771033894E+03  0.36688249316E+03  0.12500000000E+03 0.  0.
</event>
<event>
 5    0  0.5720942E-005  0.4695425E+03  0.7546771E-02  0.1022049E+00
         21   -1    0    0  502  501  0.00000000000E+00  0.00000000000E+00  0.47697476928E+03  0.47697476928E+03  0.00000000000E+00 0.  1.
         21   -1    0    0  501  502 -0.00000000000E+00 -0.00000000000E+00 -0.46222599365E+03  0.46222599365E+03  0.00000000000E+00 0.  1.
         25    1    1    2    0    0  0.98651515048E+02  0.14187492874E+03 -0.16973795891E+01  0.21328032709E+03  0.12500000000E+03 0.  0.
         25    1    1    2    0    0 -0.59406896414E+02  0.22879821379E+03  0.15499802760E+03  0.30907473293E+03  0.12500000000E+03 0.  0.
         25    1    1    2    0    0 -0.39244618634E+02 -0.37067314254E+03 -0.13855187238E+03  0.41684570291E+03  0.12500000000E+03 0.  0.
</event>
<event>
 5    0  0.5720942E-005  0.4573537E+03  0.7546771E-02  0.1025552E+00
         21   -1    0    0  502  501  0.00000000000E+00  0.00000000000E+00  0.91862424957E+03  0.91862424957E+03  0.00000000000E+00 0.  1.
         21   -1    0    0  501  502 -0.00000000000E+00 -0.00000000000E+00 -0.22770182783E+03  0.22770182783E+03  0.00000000000E+00 0.  1.
         25    1    1    2    0    0  0.11658417496E+03 -0.17369379127E+02 -0.35381307634E+02  0.17541494267E+03  0.12500000000E+03 0.  0.
         25    1    1    2    0    0 -0.13133770596E+03 -0.62754318063E+02  0.78683789743E+03  0.80989294001E+03  0.12500000000E+03 0.  0.
         25    1    1    2    0    0  0.14753531001E+02  0.80123697190E+02 -0.60534168057E+02  0.16101819472E+03  0.12500000000E+03 0.  0.
</event>
<event>
 5    0  0.5720942E-005  0.3345638E+03  0.7546771E-02  0.1069135E+00
         21   -1    0    0  502  501  0.00000000000E+00  0.00000000000E+00  0.13258846222E+04  0.13258846222E+04  0.00000000000E+00 0.  1.
         21   -1    0    0  501  502 -0.00000000000E+00 -0.00000000000E+00 -0.84421342807E+02  0.84421342807E+02  0.00000000000E+00 0.  1.
         25    1    1    2    0    0 -0.11502985956E+03 -0.86955299937E+02  0.45576352002E+03  0.49410371276E+03  0.12500000000E+03 0.  0.
         25    1    1    2    0    0  0.55693329654E+02  0.19997734493E+03  0.23621150124E+03  0.33839852065E+03  0.12500000000E+03 0.  0.
         25    1    1    2    0    0  0.59336529906E+02 -0.11302204500E+03  0.54948825810E+03  0.57780373158E+03  0.12500000000E+03 0.  0.
</event>
<event>
 5    0  0.5720942E-005  0.2392773E+03  0.7546771E-02  0.1120275E+00
         21   -1    0    0  502  501  0.00000000000E+00  0.00000000000E+00  0.38754995782E+03  0.38754995782E+03  0.00000000000E+00 0.  1.
         21   -1    0    0  501  502 -0.00000000000E+00 -0.00000000000E+00 -0.14773219736E+03  0.14773219736E+03  0.00000000000E+00 0.  1.
         25    1    1    2    0    0 -0.74602177095E+01  0.28455863941E+02 -0.70856428182E+01  0.12861025377E+03  0.12500000000E+03 0.  0.
         25    1    1    2    0    0  0.58082929956E+02 -0.14358341655E+02  0.16811140672E+02  0.13959728929E+03  0.12500000000E+03 0.  0.
         25    1    1    2    0    0 -0.50622712247E+02 -0.14097522286E+02  0.23009226260E+03  0.26707461212E+03  0.12500000000E+03 0.  0.
</event>
<event>
 5    0  0.5720942E-005  0.4621451E+03  0.7546771E-02  0.1024161E+00
         21   -1    0    0  502  501  0.00000000000E+00  0.00000000000E+00  0.13057978197E+03  0.13057978197E+03  0.00000000000E+00 0.  1.
         21   -1    0    0  501  502 -0.00000000000E+00 -0.00000000000E+00 -0.16356139298E+04  0.16356139298E+04  0.00000000000E+00 0.  1.
         25    1    1    2    0    0  0.22734925646E+03 -0.15770431467E+03 -0.11700465099E+04  0.12087978204E+04  0.12500000000E+03 0.  0.
         25    1    1    2    0    0 -0.10228507191E+03  0.14568196504E+03 -0.30958237194E+03  0.37835395582E+03  0.12500000000E+03 0.  0.
         25    1    1    2    0    0 -0.12506418454E+03  0.12022349630E+02 -0.25405265996E+02  0.17904193555E+03  0.12500000000E+03 0.  0.
</event>
<event>
 5    0  0.5720942E-005  0.2369732E+03  0.7546771E-02  0.1121826E+00
         21   -1    0    0  502  501  0.00000000000E+00  0.00000000000E+00  0.13989561492E+04  0.13989561492E+04  0.00000000000E+00 0.  1.
         21   -1    0    0  501  502 -0.00000000000E+00 -0.00000000000E+00 -0.40141555416E+02  0.40141555416E+02  0.00000000000E+00 0.  1.
         25    1    1    2    0    0 -0.70879163680E+00 -0.20595337670E+02  0.37095394163E+03  0.39199042990E+03  0.12500000000E+03 0.  0.
         25    1    1    2    0    0  0.55454498292E+02  0.94101159823E+02  0.70790109859E+03  0.72710329049E+03  0.12500000000E+03 0.  0.
         25    1    1    2    0    0 -0.54745706655E+02 -0.73505822153E+02  0.27995955355E+03  0.32000398421E+03  0.12500000000E+03 0.  0.
</event>
<event>
 5    0  0.5720942E-005  0.2153773E+03  0.7546771E-02  0.1137377E+00
         21   -1    0    0  502  501  0.00000000000E+00  0.00000000000E+00  0.25011129008E+02  0.25011129008E+02  0.00000000000E+00 0.  1.
         21   -1    0    0  501  502 -0.00000000000E+00 -0.00000000000E+00 -0.18546695226E+04  0.18546695226E+04  0.00000000000E+00 0.  1.
         25    1    1    2    0    0  0.79390698195E+02 -0.16274191586E+02 -0.60005680270E+03  0.61827251171E+03  0.12500000000E+03 0.  0.
         25    1    1    2    0    0 -0.25590759635E+02  0.46879958715E+02 -0.47703643604E+03  0.49602558282E+03  0.12500000000E+03 0.  0.
         25    1    1    2    0    0 -0.53799938560E+02 -0.30605767128E+02 -0.75256515482E+03  0.76538255704E+03  0.12500000000E+03 0.  0.
</event>
<event>
 5    0  0.5720942E-005  0.2209091E+03  0.7546771E-02  0.1133207E+00
         21   -1    0    0  502  501  0.00000000000E+00  0.00000000000E+00  0.26471502624E+03  0.26471502624E+03  0.00000000000E+00 0.  1.
         21   -1    0    0  501  502 -0.00000000000E+00 -0.00000000000E+00 -0.18435227119E+03  0.18435227119E+03  0.00000000000E+00 0.  1.
         25    1    1    2    0    0 -0.25557924086E+02  0.55745945623E+02  0.23580602316E+02  0.14121566040E+03  0.12500000000E+03 0.  0.
         25    1    1    2    0    0 -0.14583185140E+01 -0.93756134032E+02 -0.13885556362E+02  0.15687621884E+03  0.12500000000E+03 0.  0.
         25    1    1    2    0    0  0.27016242600E+02  0.38010188408E+02  0.70667709102E+02  0.15097541819E+03  0.12500000000E+03 0.  0.
</event>
<event>
 5    0  0.5720942E-005  0.3580688E+03  0.7546771E-02  0.1059351E+00
         21   -1    0    0  502  501  0.00000000000E+00  0.00000000000E+00  0.37540368650E+03  0.37540368650E+03  0.00000000000E+00 0.  1.
         21   -1    0    0  501  502 -0.00000000000E+00 -0.00000000000E+00 -0.34153444031E+03  0.34153444031E+03  0.00000000000E+00 0.  1.
         25    1    1    2    0    0 -0.93547306895E+02 -0.16805912625E+03 -0.10748633313E+03  0.25332445669E+03  0.12500000000E+03 0.  0.
         25    1    1    2    0    0  0.17387998761E+03  0.12450429264E+03  0.17734011718E+03  0.30464747847E+03  0.12500000000E+03 0.  0.
         25    1    1    2    0    0 -0.80332680719E+02  0.43554833618E+02 -0.35984537849E+02  0.15896619165E+03  0.12500000000E+03 0.  0.
</event>
<event>
 5    0  0.5720942E-005  0.3135357E+03  0.7546771E-02  0.1078663E+00
         21   -1    0    0  502  501  0.00000000000E+00  0.00000000000E+00  0.11466810411E+04  0.11466810411E+04  0.00000000000E+00 0. -1.
         21   -1    0    0  501  502 -0.00000000000E+00 -0.00000000000E+00 -0.85729690662E+02  0.85729690662E+02  0.00000000000E+00 0. -1.
         25    1    1    2    0    0  0.11086313222E+03 -0.83758389246E+02  0.61956804420E+03  0.64714423682E+03  0.12500000000E+03 0.  0.
         25    1    1    2    0    0  0.45411735256E+02 -0.45872088187E+02  0.21182783584E+03  0.25428823451E+03  0.12500000000E+03 0.  0.
         25    1    1    2    0    0 -0.15627486748E+03  0.12963047743E+03  0.22955547038E+03  0.33097826041E+03  0.12500000000E+03 0.  0.
</event>
<event>
 5    0  0.5720942E-005  0.2650837E+03  0.7546771E-02  0.1104127E+00
         21   -1    0    0  502  501  0.00000000000E+00  0.00000000000E+00  0.10653295907E+03  0.10653295907E+03  0.00000000000E+00 0.  1.
         21   -1    0    0  501  502 -0.00000000000E+00 -0.00000000000E+00 -0.65960228095E+03  0.65960228095E+03  0.00000000000E+00 0.  1.
         25    1    1    2    0    0 -0.48744548505E+02  0.15984115769E+03 -0.33106568839E+03  0.39134986487E+03  0.12500000000E+03 0.  0.
         25    1    1    2    0    0  0.11213760595E+02 -0.73397412533E+02 -0.10450867947E+03  0.17905304431E+03  0.12500000000E+03 0.  0.
         25    1    1    2    0    0  0.37530787911E+02 -0.86443745154E+02 -0.11749495402E+03  0.19573233085E+03  0.12500000000E+03 0.  0.
</event>
<event>
 5    0  0.5720942E-005  0.5013139E+03  0.7546771E-02  0.1013437E+00
         21   -1    0    0  502  501  0.00000000000E+00  0.00000000000E+00  0.12196172366E+04  0.12196172366E+04  0.00000000000E+00 0. -1.
         21   -1    0    0  501  502 -0.00000000000E+00 -0.00000000000E+00 -0.20606108683E+03  0.20606108683E+03  0.00000000000E+00 0. -1.
         25    1    1    2    0    0 -0.44199437607E+02 -0.59955715123E+01  0.93040958013E+02  0.16208379632E+03  0.12500000000E+03 0.  0.
         25    1    1    2    0    0  0.29293096057E+03  0.96228599810E+02  0.91204938072E+03  0.97083858800E+03  0.12500000000E+03 0.  0.
         25    1    1    2    0    0 -0.24873152296E+03 -0.90233028298E+02  0.84658110046E+01  0.29275593908E+03  0.12500000000E+03 0.  0.
</event>
<event>
 5    0  0.5720942E-005  0.3126709E+03  0.7546771E-02  0.1079073E+00
         21   -1    0    0  502  501  0.00000000000E+00  0.00000000000E+00  0.93982887906E+02  0.93982887906E+02  0.00000000000E+00 0. -1.
         21   -1    0    0  501  502 -0.00000000000E+00 -0.00000000000E+00 -0.10402219578E+04  0.10402219578E+04  0.00000000000E+00 0. -1.
         25    1    1    2    0    0 -0.11495525116E+02  0.85719470880E+02 -0.54913300860E+03  0.56978244613E+03  0.12500000000E+03 0.  0.
         25    1    1    2    0    0 -0.12443005288E+03 -0.97984986594E+02 -0.28104588692E+03  0.34597064357E+03  0.12500000000E+03 0.  0.
         25    1    1    2    0    0  0.13592557800E+03  0.12265515714E+02 -0.11606017439E+03  0.21845175602E+03  0.12500000000E+03 0.  0.
</event>
<event>
 5    0  0.5720942E-005  0.2889234E+03  0.7546771E-02  0.1090913E+00
         21   -1    0    0  502  501  0.00000000000E+00  0.00000000000E+00  0.31069488257E+04  0.31069488257E+04  0.00000000000E+00 0. -1.
         21   -1    0    0  501  502 -0.00000000000E+00 -0.00000000000E+00 -0.26867747690E+02  0.26867747690E+02  0.00000000000E+00 0. -1.
         25    1    1    2    0    0 -0.73059727271E+02 -0.15360098832E+03  0.64742367206E+03  0.68096504940E+03  0.12500000000E+03 0.  0.
         25    1    1    2    0    0  0.27125179025E+02  0.91347507016E+02  0.15600475963E+04  0.15679456768E+04  0.12500000000E+03 0.  0.
         25    1    1    2    0    0  0.45934548246E+02  0.62253481307E+02  0.87260980960E+03  0.88490584723E+03  0.12500000000E+03 0.  0.
</event>
<event>
 5    0  0.5720942E-005  0.2282355E+03  0.7546771E-02  0.1127888E+00
         21   -1    0    0  502  501  0.00000000000E+00  0.00000000000E+00  0.27846527463E+03  0.27846527463E+03  0.00000000000E+00 0. -1.
         21   -1    0    0  501  502 -0.00000000000E+00 -0.00000000000E+00 -0.18706622670E+03  0.18706622670E+03  0.00000000000E+00 0. -1.
         25    1    1    2    0    0  0.15194982905E+02  0.19668918408E+02  0.25467280195E+02  0.12996667349E+03  0.12500000000E+03 0.  0.
         25    1    1    2    0    0  0.52226523953E+02 -0.79360200349E+02  0.87920080544E+02  0.17994608016E+03  0.12500000000E+03 0.  0.
         25    1    1    2    0    0 -0.67421506857E+02  0.59691281941E+02 -0.21988312812E+02  0.15561874767E+03  0.12500000000E+03 0.  0.
</event>
<event>
 5    0  0.5720942E-005  0.2682432E+03  0.7546771E-02  0.1102289E+00
         21   -1    0    0  502  501  0.00000000000E+00  0.00000000000E+00  0.24374230441E+03  0.24374230441E+03  0.00000000000E+00 0.  1.
         21   -1    0    0  501  502 -0.00000000000E+00 -0.00000000000E+00 -0.29520684695E+03  0.29520684695E+03  0.00000000000E+00 0.  1.
         25    1    1    2    0    0 -0.56654255314E+02  0.17365368745E+02 -0.46024631660E+01  0.13841041631E+03  0.12500000000E+03 0.  0.
         25    1    1    2    0    0  0.95177072523E+02  0.48966443895E+02  0.10034408677E+03  0.19274419190E+03  0.12500000000E+03 0.  0.
         25    1    1    2    0    0 -0.38522817210E+02 -0.66331812640E+02 -0.14720616614E+03  0.20779454315E+03  0.12500000000E+03 0.  0.
</event>
<event>
 5    0  0.5720942E-005  0.3920315E+03  0.7546771E-02  0.1046574E+00
         21   -1    0    0  502  501  0.00000000000E+00  0.00000000000E+00  0.43921041953E+03  0.43921041953E+03  0.00000000000E+00 0.  1.
         21   -1    0    0  501  502 -0.00000000000E+00 -0.00000000000E+00 -0.34992037424E+03  0.34992037424E+03  0.00000000000E+00 0.  1.
         25    1    1    2    0    0 -0.14893579622E+03 -0.12112033180E+03  0.67003632355E+02  0.23867654455E+03  0.12500000000E+03 0.  0.
         25    1    1    2    0    0  0.28942911888E+03 -0.16041042042E+02 -0.77112168722E+01  0.31577047479E+03  0.12500000000E+03 0.  0.
         25    1    1    2    0    0 -0.14049332266E+03  0.13716137384E+03  0.29997629800E+02  0.23468377443E+03  0.12500000000E+03 0.  0.
</event>
<event>
 5    0  0.5720942E-005  0.4155320E+03  0.7546771E-02  0.1038530E+00
         21   -1    0    0  502  501  0.00000000000E+00  0.00000000000E+00  0.32271362931E+03  0.32271362931E+03  0.00000000000E+00 0.  1.
         21   -1    0    0  501  502 -0.00000000000E+00 -0.00000000000E+00 -0.53504659360E+03  0.53504659360E+03  0.00000000000E+00 0.  1.
         25    1    1    2    0    0  0.14182861408E+03 -0.13042247560E+02 -0.34776349966E+03  0.39604281042E+03  0.12500000000E+03 0.  0.
         25    1    1    2    0    0 -0.12518871065E+03  0.12262471517E+03 -0.40579825565E+02  0.21904510104E+03  0.12500000000E+03 0.  0.
         25    1    1    2    0    0 -0.16639903427E+02 -0.10958246761E+03  0.17601036093E+03  0.24267231146E+03  0.12500000000E+03 0.  0.
</event>
<event>
 5    0  0.5720942E-005  0.5367250E+03  0.7546771E-02  0.1004614E+00
         21   -1    0    0  502  501  0.00000000000E+00  0.00000000000E+00  0.85308661252E+03  0.85308661252E+03  0.00000000000E+00 0. -1.
         21   -1    0    0  501  502 -0.00000000000E+00 -0.00000000000E+00 -0.33768398409E+03  0.33768398409E+03  0.00000000000E+00 0.  1.
         25    1    1    2    0    0  0.13151721734E+03 -0.31525236440E+03  0.31744227501E+03  0.48277886209E+03  0.12500000000E+03 0.  0.
         25    1    1    2    0    0  0.11710975254E+03 -0.56072797730E+02  0.16239403746E+03  0.24260188826E+03  0.12500000000E+03 0.  0.
         25    1    1    2    0    0 -0.24862696987E+03  0.37132516213E+03  0.35566315963E+02  0.46538984627E+03  0.12500000000E+03 0.  0.
</event>
<event>
 5    0  0.5720942E-005  0.3187102E+03  0.7546771E-02  0.1076244E+00
         21   -1    0    0  502  501  0.00000000000E+00  0.00000000000E+00  0.38849947555E+02  0.38849947555E+02  0.00000000000E+00 0.  1.
         21   -1    0    0  501  502 -0.00000000000E+00 -0.00000000000E+00 -0.26145776255E+04  0.26145776255E+04  0.00000000000E+00 0.  1.
         25    1    1    2    0    0 -0.12859648995E+03  0.25751334948E+02 -0.64850960030E+03  0.67334232761E+03  0.12500000000E+03 0.  0.
         25    1    1    2    0    0 -0.81366214531E+02  0.34500768337E+02 -0.33786459554E+03  0.37092889993E+03  0.12500000000E+03 0.  0.
         25    1    1    2    0    0  0.20996270448E+03 -0.60252103285E+02 -0.15893534821E+04  0.16091563455E+04  0.12500000000E+03 0.  0.
</event>
<event>
 5    0  0.5720942E-005  0.3136275E+03  0.7546771E-02  0.1078620E+00
         21   -1    0    0  502  501  0.00000000000E+00  0.00000000000E+00  0.68263852623E+03  0.68263852623E+03  0.00000000000E+00 0. -1.
         21   -1    0    0  501  502 -0.00000000000E+00 -0.00000000000E+00 -0.14409117053E+03  0.14409117053E+03  0.00000000000E+00 0. -1.
         25    1    1    2    0    0 -0.16945382570E+02  0.12508948671E+03  0.22005950126E+03  0.28281744955E+03  0.12500000000E+03 0.  0.
         25    1    1    2    0    0  0.15127295542E+03 -0.81818893659E+02  0.54437158708E+02  0.21946809027E+03  0.12500000000E+03 0.  0.
         25    1    1    2    0    0 -0.13432757285E+03 -0.43270593050E+02  0.26405069573E+03  0.32444415693E+03  0.12500000000E+03 0.  0.
</event>
<event>
 5    0  0.5720942E-005  0.4417936E+03  0.7546771E-02  0.1030198E+00
         21   -1    0    0  502  501  0.00000000000E+00  0.00000000000E+00  0.60052602650E+03  0.60052602650E+03  0.00000000000E+00 0. -1.
         21   -1    0    0  501  502 -0.00000000000E+00 -0.00000000000E+00 -0.32501770690E+03  0.32501770690E+03  0.00000000000E+00 0. -1.
         25    1    1    2    0    0 -0.86323999479E+02 -0.48852857626E+02  0.61424515491E+02  0.17098656581E+03  0.12500000000E+03 0.  0.
         25    1    1    2    0    0  0.32583529372E+02 -0.74642785293E+02 -0.22989162386E+03  0.27405910039E+03  0.12500000000E+03 0.  0.
         25    1    1    2    0    0  0.53740470108E+02  0.12349564292E+03  0.44397542797E+03  0.48049806721E+03  0.12500000000E+03 0.  0.
</event>
<event>
 5    0  0.5720942E-005  0.2715373E+03  0.7546771E-02  0.1100403E+00
         21   -1    0    0  502  501  0.00000000000E+00  0.00000000000E+00  0.87859036208E+03  0.87859036208E+03  0.00000000000E+00 0. -1.
         21   -1    0    0  501  502 -0.00000000000E+00 -0.00000000000E+00 -0.83921397928E+02  0.83921397928E+02  0.00000000000E+00 0. -1.
         25    1    1    2    0    0 -0.52894185703E+02  0.39816249510E+02  0.89238720556E+02  0.16724735529E+03  0.12500000000E+03 0.  0.
         25    1    1    2    0    0 -0.68572654974E+02 -0.87586428073E+02  0.21396515788E+03  0.27162415243E+03  0.12500000000E+03 0.  0.
         25    1    1    2    0    0  0.12146684068E+03  0.47770178563E+02  0.49146508571E+03  0.52364025229E+03  0.12500000000E+03 0.  0.
</event>
<event>
 5    0  0.5720942E-005  0.3094904E+03  0.7546771E-02  0.1080590E+00
         21   -1    0    0  502  501  0.00000000000E+00  0.00000000000E+00  0.15026708647E+03  0.15026708647E+03  0.00000000000E+00 0. -1.
         21   -1    0    0  501  502 -0.00000000000E+00 -0.00000000000E+00 -0.63742705028E+03  0.63742705028E+03  0.00000000000E+00 0. -1.
         25    1    1    2    0    0  0.20385594654E+02  0.13159578967E+03 -0.14375478719E+03  0.23242947999E+03  0.12500000000E+03 0.  0.
         25    1    1    2    0    0  0.21469007315E+02  0.51822882101E+02 -0.29355641915E+03  0.32395509042E+03  0.12500000000E+03 0.  0.
         25    1    1    2    0    0 -0.41854601969E+02 -0.18341867177E+03 -0.49848757467E+02  0.23130956634E+03  0.12500000000E+03 0.  0.
</event>
<event>
 5    0  0.5720942E-005  0.4390512E+03  0.7546771E-02  0.1031038E+00
         21   -1    0    0  502  501  0.00000000000E+00  0.00000000000E+00  0.44534752554E+03  0.44534752554E+03  0.00000000000E+00 0. -1.
         21   -1    0    0  501  502 -0.00000000000E+00 -0.00000000000E+00 -0.43284389046E+03  0.43284389046E+03  0.00000000000E+00 0. -1.
         25    1    1    2    0    0  0.19150560792E+03 -0.32261083941E+02 -0.11842979175E+03  0.25954920724E+03  0.12500000000E+03 0.  0.
         25    1    1    2    0    0 -0.11494964376E+03  0.26695308466E+03  0.12967699776E+03  0.34193346393E+03  0.12500000000E+03 0.  0.
         25    1    1    2    0    0 -0.76555964169E+02 -0.23469200071E+03  0.12564290663E+01  0.27670874483E+03  0.12500000000E+03 0.  0.
</event>
<event>
 5    0  0.5720942E-005  0.2492476E+03  0.7546771E-02  0.1113781E+00
         21   -1    0    0  502  501  0.00000000000E+00  0.00000000000E+00  0.43687251216E+03  0.43687251216E+03  0.00000000000E+00 0. -1.
         21   -1    0    0  501  502 -0.00000000000E+00 -0.00000000000E+00 -0.14220245514E+03  0.14220245514E+03  0.00000000000E+00 0. -1.
         25    1    1    2    0    0  0.60151581360E+02 -0.62053490568E+02  0.31096227734E+02  0.15511551763E+03  0.12500000000E+03 0.  0.
         25    1    1    2    0    0 -0.11681412183E+03 -0.85185986244E+00  0.87972116952E+02  0.19238076329E+03  0.12500000000E+03 0.  0.
         25    1    1    2    0    0  0.56662540473E+02  0.62905350431E+02  0.17560171234E+03  0.23157868637E+03  0.12500000000E+03 0.  0.
</event>
<event>
 5    0  0.5720942E-005  0.4699278E+03  0.7546771E-02  0.1021941E+00
         21   -1    0    0  502  501  0.00000000000E+00  0.00000000000E+00  0.21325753814E+03  0.21325753814E+03  0.00000000000E+00 0.  1.
         21   -1    0    0  501  502 -0.00000000000E+00 -0.00000000000E+00 -0.10355184626E+04  0.10355184626E+04  0.00000000000E+00 0.  1.
         25    1    1    2    0    0  0.29942109345E+03 -0.21520788572E+03 -0.19912722411E+03  0.43731461976E+03  0.12500000000E+03 0.  0.
         25    1    1    2    0    0  0.10540124937E+02  0.51683473228E+02 -0.25044025686E+03  0.28482906785E+03  0.12500000000E+03 0.  0.
         25    1    1    2    0    0 -0.30996121839E+03  0.16352441249E+03 -0.37269344345E+03  0.52663231307E+03  0.12500000000E+03 0.  0.
</event>
<event>
 5    0  0.5720942E-005  0.2613383E+03  0.7546771E-02  0.1106342E+00
         21   -1    0    0  502  501  0.00000000000E+00  0.00000000000E+00  0.20386025474E+03  0.20386025474E+03  0.00000000000E+00 0. -1.
         21   -1    0    0  501  502 -0.00000000000E+00 -0.00000000000E+00 -0.33502222554E+03  0.33502222554E+03  0.00000000000E+00 0.  1.
         25    1    1    2    0    0  0.64040308647E+01  0.15785437902E+03 -0.13198036218E+03  0.24083777234E+03  0.12500000000E+03 0.  0.
         25    1    1    2    0    0 -0.43341833959E+01 -0.58872202461E+02  0.75608688191E+01  0.13844453079E+03  0.12500000000E+03 0.  0.
         25    1    1    2    0    0 -0.20698474688E+01 -0.98982176559E+02 -0.67424774408E+01  0.15960017715E+03  0.12500000000E+03 0.  0.
</event>
<event>
 5    0  0.5720942E-005  0.2518139E+03  0.7546771E-02  0.1112164E+00
         21   -1    0    0  502  501  0.00000000000E+00  0.00000000000E+00  0.25459257942E+03  0.25459257942E+03  0.00000000000E+00 0. -1.
         21   -1    0    0  501  502 -0.00000000000E+00 -0.00000000000E+00 -0.24906555857E+03  0.24906555857E+03  0.00000000000E+00 0. -1.
         25    1    1    2    0    0  0.32575297149E+02 -0.55800411118E+02  0.11795792570E+03  0.18361347473E+03  0.12500000000E+03 0.  0.
         25    1    1    2    0    0  0.35647957025E+02 -0.29931179286E+02 -0.47450445215E+02  0.14157399862E+03  0.12500000000E+03 0.  0.
         25    1    1    2    0    0 -0.68223254173E+02  0.85731590403E+02 -0.64980459637E+02  0.17847066464E+03  0.12500000000E+03 0.  0.
</event>
<event>
 5    0  0.5720942E-005  0.2491671E+03  0.7546771E-02  0.1113832E+00
         21   -1    0    0  502  501  0.00000000000E+00  0.00000000000E+00  0.20542050483E+03  0.20542050483E+03  0.00000000000E+00 0. -1.
         21   -1    0    0  501  502 -0.00000000000E+00 -0.00000000000E+00 -0.30222998463E+03  0.30222998463E+03  0.00000000000E+00 0. -1.
         25    1    1    2    0    0  0.97526417802E+02 -0.47005290398E+02  0.32592459685E+02  0.16854722757E+03  0.12500000000E+03 0.  0.
         25    1    1    2    0    0 -0.62732396046E+02  0.98618899731E+02 -0.93117073006E+02  0.19482512719E+03  0.12500000000E+03 0.  0.
         25    1    1    2    0    0 -0.34794021756E+02 -0.51613609333E+02 -0.36284866472E+02  0.14427813470E+03  0.12500000000E+03 0.  0.
</event>
<event>
 5    0  0.5720942E-005  0.2511314E+03  0.7546771E-02  0.1112592E+00
         21   -1    0    0  502  501  0.00000000000E+00  0.00000000000E+00  0.14970069075E+03  0.14970069075E+03  0.00000000000E+00 0. -1.
         21   -1    0    0  501  502 -0.00000000000E+00 -0.00000000000E+00 -0.42128712955E+03  0.42128712955E+03  0.00000000000E+00 0. -1.
         25    1    1    2    0    0 -0.22310154191E+02  0.83461360840E+01 -0.23345173820E+03  0.26587988836E+03  0.12500000000E+03 0.  0.
         25    1    1    2    0    0 -0.48098569158E+02 -0.63344232561E+02 -0.30544055871E+02  0.15127426583E+03  0.12500000000E+03 0.  0.
         25    1    1    2    0    0  0.70408723349E+02  0.54998096477E+02 -0.75906447320E+01  0.15383366610E+03  0.12500000000E+03 0.  0.
</event>
<event>
 5    0  0.6155836E-005  0.4120496E+03  0.7546771E-02  0.1039685E+00
         21   -1    0    0  502  501  0.00000000000E+00  0.00000000000E+00  0.84414339224E+03  0.84414339224E+03  0.00000000000E+00 0.  1.
         21   -1    0    0  501  502 -0.00000000000E+00 -0.00000000000E+00 -0.20113274293E+03  0.20113274293E+03  0.00000000000E+00 0.  1.
         25    1    1    2    0    0 -0.53727519390E+02  0.92746330885E+01 -0.67629849383E+02  0.15222175169E+03  0.12500000000E+03 0.  0.
         25    1    1    2    0    0 -0.10899022333E+03  0.18380660090E+03  0.42495271045E+03  0.49180640646E+03  0.12500000000E+03 0.  0.
         25    1    1    2    0    0  0.16271774272E+03 -0.19308123399E+03  0.28568778824E+03  0.40124797702E+03  0.12500000000E+03 0.  0.
</event>
<event>
 5    0  0.5720942E-005  0.3309527E+03  0.7546771E-02  0.1070716E+00
         21   -1    0    0  502  501  0.00000000000E+00  0.00000000000E+00  0.94067220089E+03  0.94067220089E+03  0.00000000000E+00 0.  1.
         21   -1    0    0  501  502 -0.00000000000E+00 -0.00000000000E+00 -0.11643769561E+03  0.11643769561E+03  0.00000000000E+00 0.  1.
         25    1    1    2    0    0  0.10477244099E+03  0.26170027188E+02  0.85279760395E+02  0.18590258806E+03  0.12500000000E+03 0.  0.
         25    1    1    2    0    0  0.99467765285E+02  0.38788390550E+02  0.11752392027E+03  0.20207733027E+03  0.12500000000E+03 0.  0.
         25    1    1    2    0    0 -0.20424020628E+03 -0.64958417738E+02  0.62143082462E+03  0.66912997816E+03  0.12500000000E+03 0.  0.
</event>
<event>
 5    0  0.5720942E-005  0.2754177E+03  0.7546771E-02  0.1098218E+00
         21   -1    0    0  502  501  0.00000000000E+00  0.00000000000E+00  0.30415077362E+02  0.30415077362E+02  0.00000000000E+00 0. -1.
         21   -1    0    0  501  502 -0.00000000000E+00 -0.00000000000E+00 -0.24939911913E+04  0.24939911913E+04  0.00000000000E+00 0. -1.
         25    1    1    2    0    0 -0.71660725498E+02  0.13167731835E+03 -0.10705815157E+04  0.10882297356E+04  0.12500000000E+03 0.  0.
         25    1    1    2    0    0  0.18713447068E+02 -0.16161242850E+03 -0.70344916005E+03  0.73275813944E+03  0.12500000000E+03 0.  0.
         25    1    1    2    0    0  0.52947278429E+02  0.29935110150E+02 -0.68954543815E+03  0.70341839355E+03  0.12500000000E+03 0.  0.
</event>
<event>
 5    0  0.5720942E-005  0.7024926E+03  0.7546771E-02  0.9712979E-01
         21   -1    0    0  502  501  0.00000000000E+00  0.00000000000E+00  0.56111138245E+03  0.56111138245E+03  0.00000000000E+00 0. -1.
         21   -1    0    0  501  502 -0.00000000000E+00 -0.00000000000E+00 -0.87949703457E+03  0.87949703457E+03  0.00000000000E+00 0. -1.
         25    1    1    2    0    0  0.49375547513E+01 -0.18917286065E+03  0.42317992843E+02  0.23070882769E+03  0.12500000000E+03 0.  0.
         25    1    1    2    0    0  0.10722598125E+03  0.40384232155E+03  0.27681333561E+03  0.51656234328E+03  0.12500000000E+03 0.  0.
         25    1    1    2    0    0 -0.11216353600E+03 -0.21466946089E+03 -0.63751698057E+03  0.69333724605E+03  0.12500000000E+03 0.  0.
</event>
<event>
 5    0  0.5720942E-005  0.3605111E+03  0.7546771E-02  0.1058382E+00
         21   -1    0    0  502  501  0.00000000000E+00  0.00000000000E+00  0.64259329437E+03  0.64259329437E+03  0.00000000000E+00 0. -1.
         21   -1    0    0  501  502 -0.00000000000E+00 -0.00000000000E+00 -0.20225585445E+03  0.20225585445E+03  0.00000000000E+00 0. -1.
         25    1    1    2    0    0  0.48438534520E+02 -0.13482922928E+02  0.47625430222E+02  0.14290298262E+03  0.12500000000E+03 0.  0.
         25    1    1    2    0    0  0.23667660146E+02 -0.24721162451E+03  0.23916622925E+03  0.36674136751E+03  0.12500000000E+03 0.  0.
         25    1    1    2    0    0 -0.72106194667E+02  0.26069454744E+03  0.15354578045E+03  0.33520479869E+03  0.12500000000E+03 0.  0.
</event>
<event>
 5    0  0.5720942E-005  0.2961912E+03  0.7546771E-02  0.1087160E+00
         21   -1    0    0  502  501  0.00000000000E+00  0.00000000000E+00  0.58709333262E+03  0.58709333262E+03  0.00000000000E+00 0. -1.
         21   -1    0    0  501  502 -0.00000000000E+00 -0.00000000000E+00 -0.14942980572E+03  0.14942980572E+03  0.00000000000E+00 0. -1.
         25    1    1    2    0    0 -0.32933416842E+02 -0.52951435689E+02  0.73221537422E+02  0.15771765288E+03  0.12500000000E+03 0.  0.
         25    1    1    2    0    0  0.18096007517E+03 -0.46964223008E+02  0.23503465719E+03  0.32529752094E+03  0.12500000000E+03 0.  0.
         25    1    1    2    0    0 -0.14802665833E+03  0.99915658698E+02  0.12940733229E+03  0.25350796453E+03  0.12500000000E+03 0.  0.
</event>
<event>
 5    0  0.5720942E-005  0.3459159E+03  0.7546771E-02  0.1064304E+00
         21   -1    0    0  502  501  0.00000000000E+00  0.00000000000E+00  0.56222008175E+03  0.56222008175E+03  0.00000000000E+00 0.  1.
         21   -1    0    0  501  502 -0.00000000000E+00 -0.00000000000E+00 -0.21283096634E+03  0.21283096634E+03  0.00000000000E+00 0.  1.
         25    1    1    2    0    0 -0.22772336623E+03 -0.10871753215E+03  0.10798579076E+03  0.30160133343E+03  0.12500000000E+03 0.  0.
         25    1    1    2    0    0  0.51698696736E+01 -0.31789073229E+01  0.47176182710E+02  0.13374387918E+03  0.12500000000E+03 0.  0.
         25    1    1    2    0    0  0.22255349655E+03  0.11189643947E+03  0.19422714193E+03  0.33970583548E+03  0.12500000000E+03 0.  0.
</event>
<event>
 5    0  0.5720942E-005  0.3916542E+03  0.7546771E-02  0.1046708E+00
         21   -1    0    0  502  501  0.00000000000E+00  0.00000000000E+00  0.49966839541E+03  0.49966839541E+03  0.00000000000E+00 0. -1.
         21   -1    0    0  501  502 -0.00000000000E+00 -0.00000000000E+00 -0.30698954906E+03  0.30698954906E+03  0.00000000000E+00 0. -1.
         25    1    1    2    0    0 -0.22117896094E+02  0.62979257462E+01  0.11437682108E+03  0.17098515256E+03  0.12500000000E+03 0.  0.
         25    1    1    2    0    0 -0.14887709480E+03 -0.22612471595E+03  0.13132587560E+03  0.32583471596E+03  0.12500000000E+03 0.  0.
         25    1    1    2    0    0  0.17099499089E+03  0.21982679021E+03 -0.53023850327E+02  0.30983807595E+03  0.12500000000E+03 0.  0.
</event>
<event>
 5    0  0.5720942E-005  0.2247126E+03  0.7546771E-02  0.1130418E+00
         21   -1    0    0  502  501  0.00000000000E+00  0.00000000000E+00  0.74482207876E+03  0.74482207876E+03  0.00000000000E+00 0. -1.
         21   -1    0    0  501  502 -0.00000000000E+00 -0.00000000000E+00 -0.67795746666E+02  0.67795746666E+02  0.00000000000E+00 0. -1.
         25    1    1    2    0    0  0.52300070027E+02  0.59748957692E+02  0.20584715425E+03  0.25358092630E+03  0.12500000000E+03 0.  0.
         25    1    1    2    0    0 -0.63177738607E+02  0.29405919978E+02  0.27159799032E+03  0.30699609628E+03  0.12500000000E+03 0.  0.
         25    1    1    2    0    0  0.10877668581E+02 -0.89154877671E+02  0.19958118752E+03  0.25204080284E+03  0.12500000000E+03 0.  0.
</event>
<event>
 5    0  0.5720942E-005  0.3003948E+03  0.7546771E-02  0.1085043E+00
         21   -1    0    0  502  501  0.00000000000E+00  0.00000000000E+00  0.97173290506E+02  0.97173290506E+02  0.00000000000E+00 0.  1.
         21   -1    0    0  501  502 -0.00000000000E+00 -0.00000000000E+00 -0.92861988144E+03  0.92861988144E+03  0.00000000000E+00 0.  1.
         25    1    1    2    0    0 -0.85554673751E+02 -0.51201797585E+02 -0.34285822564E+03  0.37830938287E+03  0.12500000000E+03 0.  0.
         25    1    1    2    0    0 -0.86694524224E+02  0.10416759751E+02 -0.53807731691E+02  0.16169329425E+03  0.12500000000E+03 0.  0.
         25    1    1    2    0    0  0.17224919798E+03  0.40785037834E+02 -0.43478063360E+03  0.48579049483E+03  0.12500000000E+03 0.  0.
</event>
<event>
 5    0  0.5720942E-005  0.4317052E+03  0.7546771E-02  0.1033323E+00
         21   -1    0    0  502  501  0.00000000000E+00  0.00000000000E+00  0.22812502285E+03  0.22812502285E+03  0.00000000000E+00 0.  1.
         21   -1    0    0  501  502 -0.00000000000E+00 -0.00000000000E+00 -0.81696147417E+03  0.81696147417E+03  0.00000000000E+00 0.  1.
         25    1    1    2    0    0  0.80914815860E+02  0.16781880948E+03 -0.82863266786E+02  0.23916872961E+03  0.12500000000E+03 0.  0.
         25    1    1    2    0    0 -0.56123660195E+02 -0.28582934031E+03 -0.53765431548E+02  0.32150271950E+03  0.12500000000E+03 0.  0.
         25    1    1    2    0    0 -0.24791155665E+02  0.11801053083E+03 -0.45220775298E+03  0.48441504791E+03  0.12500000000E+03 0.  0.
</event>
<event>
 5    0  0.5720942E-005  0.4358009E+03  0.7546771E-02  0.1032043E+00
         21   -1    0    0  502  501  0.00000000000E+00  0.00000000000E+00  0.13233929637E+04  0.13233929637E+04  0.00000000000E+00 0. -1.
         21   -1    0    0  501  502 -0.00000000000E+00 -0.00000000000E+00 -0.14351170906E+03  0.14351170906E+03  0.00000000000E+00 0. -1.
         25    1    1    2    0    0 -0.28676056492E+03 -0.14941933906E+03  0.24196487896E+03  0.42276442983E+03  0.12500000000E+03 0.  0.
         25    1    1    2    0    0  0.86190653434E+02  0.56276375390E+02  0.59954760533E+03  0.62102994310E+03  0.12500000000E+03 0.  0.
         25    1    1    2    0    0  0.20056991149E+03  0.93142963671E+02  0.33836877036E+03  0.42311029984E+03  0.12500000000E+03 0.  0.
</event>
<event>
 5    0  0.5720942E-005  0.3088817E+03  0.7546771E-02  0.1080883E+00
         21   -1    0    0  502  501  0.00000000000E+00  0.00000000000E+00  0.13751781088E+03  0.13751781088E+03  0.00000000000E+00 0. -1.
         21   -1    0    0  501  502 -0.00000000000E+00 -0.00000000000E+00 -0.69378563195E+03  0.69378563195E+03  0.00000000000E+00 0. -1.
         25    1    1    2    0    0  0.16190170022E+03 -0.18548821174E+02 -0.12368977218E+03  0.23975066015E+03  0.12500000000E+03 0.  0.
         25    1    1    2    0    0  0.30660552000E+02 -0.65393065519E+02 -0.24121464384E+03  0.28111532663E+03  0.12500000000E+03 0.  0.
         25    1    1    2    0    0 -0.19256225222E+03  0.83941886693E+02 -0.19136340506E+03  0.31043745605E+03  0.12500000000E+03 0.  0.
</event>
<event>
 5    0  0.5720942E-005  0.3497443E+03  0.7546771E-02  0.1062720E+00
         21   -1    0    0  502  501  0.00000000000E+00  0.00000000000E+00  0.16762068894E+04  0.16762068894E+04  0.00000000000E+00 0. -1.
         21   -1    0    0  501  502 -0.00000000000E+00 -0.00000000000E+00 -0.72974927585E+02  0.72974927585E+02  0.00000000000E+00 0. -1.
         25    1    1    2    0    0 -0.78051401304E+02 -0.46013804642E+02  0.10747314552E+03  0.18810839553E+03  0.12500000000E+03 0.  0.
         25    1    1    2    0    0  0.37093294548E+02  0.69001303943E+02  0.15610495054E+03  0.21478093032E+03  0.12500000000E+03 0.  0.
         25    1    1    2    0    0  0.40958106756E+02 -0.22987499301E+02  0.13396538657E+04  0.13462924911E+04  0.12500000000E+03 0.  0.
</event>
<event>
 5    0  0.5720942E-005  0.2873696E+03  0.7546771E-02  0.1091731E+00
         21   -1    0    0  502  501  0.00000000000E+00  0.00000000000E+00  0.43141771091E+03  0.43141771091E+03  0.00000000000E+00 0. -1.
         21   -1    0    0  501  502 -0.00000000000E+00 -0.00000000000E+00 -0.19141834075E+03  0.19141834075E+03  0.00000000000E+00 0. -1.
         25    1    1    2    0    0  0.75939830380E+02 -0.59299316254E+02 -0.20299435291E+02  0.15912364318E+03  0.12500000000E+03 0.  0.
         25    1    1    2    0    0 -0.15716864576E+03  0.49783835313E+01  0.22413798364E+03  0.30098106788E+03  0.12500000000E+03 0.  0.
         25    1    1    2    0    0  0.81228815377E+02  0.54320932722E+02  0.36160821804E+02  0.16273134060E+03  0.12500000000E+03 0.  0.
</event>
<event>
 5    0  0.5720942E-005  0.2461778E+03  0.7546771E-02  0.1115744E+00
         21   -1    0    0  502  501  0.00000000000E+00  0.00000000000E+00  0.87702748490E+03  0.87702748490E+03  0.00000000000E+00 0.  1.
         21   -1    0    0  501  502 -0.00000000000E+00 -0.00000000000E+00 -0.69101018618E+02  0.69101018618E+02  0.00000000000E+00 0.  1.
         25    1    1    2    0    0 -0.88620910448E+02  0.82930730564E+01  0.26894302385E+03  0.30964139081E+03  0.12500000000E+03 0.  0.
         25    1    1    2    0    0  0.11822369489E+03  0.52128416874E+02  0.39652057173E+03  0.43537085075E+03  0.12500000000E+03 0.  0.
         25    1    1    2    0    0 -0.29602784443E+02 -0.60421489930E+02  0.14246287071E+03  0.20111626195E+03  0.12500000000E+03 0.  0.
</event>
<event>
 5    0  0.5720942E-005  0.2977352E+03  0.7546771E-02  0.1086378E+00
         21   -1    0    0  502  501  0.00000000000E+00  0.00000000000E+00  0.51415485373E+03  0.51415485373E+03  0.00000000000E+00 0. -1.
         21   -1    0    0  501  502 -0.00000000000E+00 -0.00000000000E+00 -0.17241154648E+03  0.17241154648E+03  0.00000000000E+00 0. -1.
         25    1    1    2    0    0  0.59778337815E+02 -0.11462966590E+03  0.12964471198E+03  0.22168933515E+03  0.12500000000E+03 0.  0.
         25    1    1    2    0    0 -0.10650772679E+03 -0.70390455198E+02  0.13548080347E+03  0.22422925803E+03  0.12500000000E+03 0.  0.
         25    1    1    2    0    0  0.46729388973E+02  0.18502012110E+03  0.76617791796E+02  0.24064780702E+03  0.12500000000E+03 0.  0.
</event>
<event>
 5    0  0.5720942E-005  0.3980832E+03  0.7546771E-02  0.1044445E+00
         21   -1    0    0  502  501  0.00000000000E+00  0.00000000000E+00  0.35504190182E+03  0.35504190182E+03  0.00000000000E+00 0.  1.
         21   -1    0    0  501  502 -0.00000000000E+00 -0.00000000000E+00 -0.44634242161E+03  0.44634242161E+03  0.00000000000E+00 0.  1.
         25    1    1    2    0    0 -0.60226705132E+01  0.71426094395E+02  0.43294275385E+02  0.15045714939E+03  0.12500000000E+03 0.  0.
         25    1    1    2    0    0 -0.20464943415E+03 -0.22309562832E+03 -0.15445842255E+03  0.36212629644E+03  0.12500000000E+03 0.  0.
         25    1    1    2    0    0  0.21067210467E+03  0.15166953393E+03  0.19863627380E+02  0.28880087759E+03  0.12500000000E+03 0.  0.
</event>
<event>
 5    0  0.6753806E-005  0.2660931E+03  0.7546771E-02  0.1103537E+00
         21   -1    0    0  502  501  0.00000000000E+00  0.00000000000E+00  0.63814037381E+03  0.63814037381E+03  0.00000000000E+00 0. -1.
         21   -1    0    0  501  502 -0.00000000000E+00 -0.00000000000E+00 -0.11095602646E+03  0.11095602646E+03  0.00000000000E+00 0. -1.
         25    1    1    2    0    0 -0.79982585906E+02 -0.71267891843E+02  0.14994639998E+03  0.22267745580E+03  0.12500000000E+03 0.  0.
         25    1    1    2    0    0  0.88120639137E+02  0.11706709989E+03  0.33517074517E+03  0.38656743440E+03  0.12500000000E+03 0.  0.
         25    1    1    2    0    0 -0.81380532317E+01 -0.45799208049E+02  0.42067202203E+02  0.13985151007E+03  0.12500000000E+03 0.  0.
</event>
<event>
 5    0  0.5720942E-005  0.3843129E+03  0.7546771E-02  0.1049351E+00
         21   -1    0    0  502  501  0.00000000000E+00  0.00000000000E+00  0.38877087200E+03  0.38877087200E+03  0.00000000000E+00 0.  1.
         21   -1    0    0  501  502 -0.00000000000E+00 -0.00000000000E+00 -0.37990613138E+03  0.37990613138E+03  0.00000000000E+00 0.  1.
         25    1    1    2    0    0  0.73865252209E+02 -0.10822602077E+03  0.16918545344E+03  0.24782587579E+03  0.12500000000E+03 0.  0.
         25    1    1    2    0    0 -0.16210106662E+03  0.86399723836E+01  0.79228723360E+02  0.21966701056E+03  0.12500000000E+03 0.  0.
         25    1    1    2    0    0  0.88235814413E+02  0.99586048384E+02 -0.23954943618E+03  0.30118411703E+03  0.12500000000E+03 0.  0.
</event>
<event>
 5    0  0.5720942E-005  0.2476162E+03  0.7546771E-02  0.1114821E+00
         21   -1    0    0  502  501  0.00000000000E+00  0.00000000000E+00  0.47191850684E+02  0.47191850684E+02  0.00000000000E+00 0.  1.
         21   -1    0    0  501  502 -0.00000000000E+00 -0.00000000000E+00 -0.12992448162E+04  0.12992448162E+04  0.00000000000E+00 0.  1.
         25    1    1    2    0    0  0.55526181885E+02 -0.76448458933E+02 -0.20532046045E+03  0.25828088436E+03  0.12500000000E+03 0.  0.
         25    1    1    2    0    0  0.11961413702E+02  0.28488541422E+02 -0.29911695291E+03  0.32565414772E+03  0.12500000000E+03 0.  0.
         25    1    1    2    0    0 -0.67487595587E+02  0.47959917511E+02 -0.74761555220E+03  0.76250163484E+03  0.12500000000E+03 0.  0.
</event>
<event>
 5    0  0.5720942E-005  0.3571383E+03  0.7546771E-02  0.1059723E+00
         21   -1    0    0  502  501  0.00000000000E+00  0.00000000000E+00  0.20635465447E+03  0.20635465447E+03  0.00000000000E+00 0. -1.
         21   -1    0    0  501  502 -0.00000000000E+00 -0.00000000000E+00 -0.61809972871E+03  0.61809972871E+03  0.00000000000E+00 0. -1.
         25    1    1    2    0    0 -0.14605377575E+02 -0.15479133690E+02  0.10936812676E+03  0.16744941859E+03  0.12500000000E+03 0.  0.
         25    1    1    2    0    0 -0.35360630442E+02 -0.13750244577E+03 -0.18929081444E+03  0.26760663147E+03  0.12500000000E+03 0.  0.
         25    1    1    2    0    0  0.49966008017E+02  0.15298157946E+03 -0.33182238657E+03  0.38939833312E+03  0.12500000000E+03 0.  0.
</event>
<event>
 5    0  0.5720942E-005  0.4581071E+03  0.7546771E-02  0.1025332E+00
         21   -1    0    0  502  501  0.00000000000E+00  0.00000000000E+00  0.72877774482E+03  0.72877774482E+03  0.00000000000E+00 0.  1.
         21   -1    0    0  501  502 -0.00000000000E+00 -0.00000000000E+00 -0.28796450374E+03  0.28796450374E+03  0.00000000000E+00 0.  1.
         25    1    1    2    0    0  0.28382299387E+03  0.90877974368E+02  0.19207932844E+02  0.32374101186E+03  0.12500000000E+03 0.  0.
         25    1    1    2    0    0 -0.28012965078E+03 -0.17682191423E+03  0.40866114901E+03  0.54071022305E+03  0.12500000000E+03 0.  0.
         25    1    1    2    0    0 -0.36933430837E+01  0.85943939862E+02  0.12944159232E+02  0.15229101366E+03  0.12500000000E+03 0.  0.
</event>
<event>
 5    0  0.5720942E-005  0.2351549E+03  0.7546771E-02  0.1123063E+00
         21   -1    0    0  502  501  0.00000000000E+00  0.00000000000E+00  0.11285376361E+04  0.11285376361E+04  0.00000000000E+00 0.  1.
         21   -1    0    0  501  502 -0.00000000000E+00 -0.00000000000E+00 -0.48999522694E+02  0.48999522694E+02  0.00000000000E+00 0.  1.
         25    1    1    2    0    0 -0.18661836741E+02 -0.28758522702E+02  0.14001326543E+03  0.19079840480E+03  0.12500000000E+03 0.  0.
         25    1    1    2    0    0  0.59928769547E+02 -0.36156744935E+02  0.59967154231E+03  0.61654661323E+03  0.12500000000E+03 0.  0.
         25    1    1    2    0    0 -0.41266932806E+02  0.64915267637E+02  0.33985330569E+03  0.37019214079E+03  0.12500000000E+03 0.  0.
</event>
<event>
 5    0  0.5720942E-005  0.3707891E+03  0.7546771E-02  0.1054392E+00
         21   -1    0    0  502  501  0.00000000000E+00  0.00000000000E+00  0.17173438772E+03  0.17173438772E+03  0.00000000000E+00 0.  1.
         21   -1    0    0  501  502 -0.00000000000E+00 -0.00000000000E+00 -0.80056525719E+03  0.80056525719E+03  0.00000000000E+00 0.  1.
         25    1    1    2    0    0  0.61380576130E+02  0.84411585613E+02  0.27029162439E+02  0.16507109539E+03  0.12500000000E+03 0.  0.
         25    1    1    2    0    0 -0.16139990628E+02  0.29092666880E+02 -0.61401226954E+03  0.62748940207E+03  0.12500000000E+03 0.  0.
         25    1    1    2    0    0 -0.45240585502E+02 -0.11350425249E+03 -0.41847762366E+02  0.17973914745E+03  0.12500000000E+03 0.  0.
</event>
<event>
 5    0  0.5720942E-005  0.4221050E+03  0.7546771E-02  0.1036383E+00
         21   -1    0    0  502  501  0.00000000000E+00  0.00000000000E+00  0.18181575524E+03  0.18181575524E+03  0.00000000000E+00 0.  1.
         21   -1    0    0  501  502 -0.00000000000E+00 -0.00000000000E+00 -0.97996267040E+03  0.97996267040E+03  0.00000000000E+00 0.  1.
         25    1    1    2    0    0 -0.37915639895E+00 -0.69410673091E+02 -0.26134987162E+03  0.29790391185E+03  0.12500000000E+03 0.  0.
         25    1    1    2    0    0 -0.25600181099E+03 -0.14511950350E+03 -0.26485272521E+03  0.41517293213E+03  0.12500000000E+03 0.  0.
         25    1    1    2    0    0  0.25638096739E+03  0.21453017659E+03 -0.27194431833E+03  0.44870158165E+03  0.12500000000E+03 0.  0.
</event>
<event>
 5    0  0.5720942E-005  0.3834668E+03  0.7546771E-02  0.1049660E+00
         21   -1    0    0  502  501  0.00000000000E+00  0.00000000000E+00  0.18605943283E+03  0.18605943283E+03  0.00000000000E+00 0. -1.
         21   -1    0    0  501  502 -0.00000000000E+00 -0.00000000000E+00 -0.79032171700E+03  0.79032171700E+03  0.00000000000E+00 0. -1.
         25    1    1    2    0    0  0.31838493246E+02 -0.12278132976E+03 -0.13313598831E+03  0.22234913081E+03  0.12500000000E+03 0.  0.
         25    1    1    2    0    0  0.81029838814E+02 -0.11726867015E+03  0.10811112313E+02  0.18989380171E+03  0.12500000000E+03 0.  0.
         25    1    1    2    0    0 -0.11286833206E+03  0.24004999991E+03 -0.48193740818E+03  0.56413821732E+03  0.12500000000E+03 0.  0.
</event>
<event>
 5    0  0.5720942E-005  0.2970364E+03  0.7546771E-02  0.1086732E+00
         21   -1    0    0  502  501  0.00000000000E+00  0.00000000000E+00  0.33671370339E+02  0.33671370339E+02  0.00000000000E+00 0.  1.
         21   -1    0    0  501  502 -0.00000000000E+00 -0.00000000000E+00 -0.26203445979E+04  0.26203445979E+04  0.00000000000E+00 0.  1.
         25    1    1    2    0    0  0.30852838822E+02  0.10375663033E+03 -0.57596086337E+03  0.59922721244E+03  0.12500000000E+03 0.  0.
         25    1    1    2    0    0 -0.46089898787E+02 -0.15134460404E+03 -0.51550994107E+03  0.55353858699E+03  0.12500000000E+03 0.  0.
         25    1    1    2    0    0  0.15237059966E+02  0.47587973709E+02 -0.14952024231E+04  0.15012501688E+04  0.12500000000E+03 0.  0.
</event>
<event>
 5    0  0.5720942E-005  0.3086829E+03  0.7546771E-02  0.1080979E+00
         21   -1    0    0  502  501  0.00000000000E+00  0.00000000000E+00  0.29374569451E+03  0.29374569451E+03  0.00000000000E+00 0. -1.
         21   -1    0    0  501  502 -0.00000000000E+00 -0.00000000000E+00 -0.32437977872E+03  0.32437977872E+03  0.00000000000E+00 0. -1.
         25    1    1    2    0    0 -0.49929024137E+02 -0.18264178053E+03  0.64422144809E+02  0.23585194549E+03  0.12500000000E+03 0.  0.
         25    1    1    2    0    0  0.26183821400E+02  0.19052687232E+03 -0.10915006130E+03  0.25401735661E+03  0.12500000000E+03 0.  0.
         25    1    1    2    0    0  0.23745202737E+02 -0.78850917878E+01  0.14093832272E+02  0.12825617113E+03  0.12500000000E+03 0.  0.
</event>
<event>
 5    0  0.5720942E-005  0.2663429E+03  0.7546771E-02  0.1103391E+00
         21   -1    0    0  502  501  0.00000000000E+00  0.00000000000E+00  0.63186741339E+02  0.63186741339E+02  0.00000000000E+00 0.  1.
         21   -1    0    0  501  502 -0.00000000000E+00 -0.00000000000E+00 -0.11226807169E+04  0.11226807169E+04  0.00000000000E+00 0.  1.
         25    1    1    2    0    0  0.60453196868E+02  0.47369865494E+01 -0.38648787392E+03  0.41070050492E+03  0.12500000000E+03 0.  0.
         25    1    1    2    0    0  0.38350706478E+02 -0.12814096253E+03 -0.31541385479E+03  0.36469409477E+03  0.12500000000E+03 0.  0.
         25    1    1    2    0    0 -0.98803903346E+02  0.12340397598E+03 -0.35759224687E+03  0.41047285857E+03  0.12500000000E+03 0.  0.
</event>
<event>
 5    0  0.5720942E-005  0.3396709E+03  0.7546771E-02  0.1066936E+00
         21   -1    0    0  502  501  0.00000000000E+00  0.00000000000E+00  0.69896870445E+03  0.69896870445E+03  0.00000000000E+00 0.  1.
         21   -1    0    0  501  502 -0.00000000000E+00 -0.00000000000E+00 -0.16506652518E+03  0.16506652518E+03  0.00000000000E+00 0.  1.
         25    1    1    2    0    0  0.25894502589E+02  0.10981151896E+03  0.21414014514E+03  0.27241530192E+03  0.12500000000E+03 0.  0.
         25    1    1    2    0    0  0.16833789838E+03 -0.13155579694E+03  0.85392166975E+02  0.26184231499E+03  0.12500000000E+03 0.  0.
         25    1    1    2    0    0 -0.19423240097E+03  0.21744277978E+02  0.23436986716E+03  0.32977761271E+03  0.12500000000E+03 0.  0.
</event>
<event>
 5    0  0.5720942E-005  0.3317873E+03  0.7546771E-02  0.1070349E+00
         21   -1    0    0  502  501  0.00000000000E+00  0.00000000000E+00  0.24320451694E+03  0.24320451694E+03  0.00000000000E+00 0. -1.
         21   -1    0    0  501  502 -0.00000000000E+00 -0.00000000000E+00 -0.45263485657E+03  0.45263485657E+03  0.00000000000E+00 0. -1.
         25    1    1    2    0    0  0.35331561072E+02  0.22154897330E+03  0.13469381074E+02  0.25717443692E+03  0.12500000000E+03 0.  0.
         25    1    1    2    0    0  0.51451067822E+02 -0.14336961743E+03 -0.16814608443E+03  0.25903699599E+03  0.12500000000E+03 0.  0.
         25    1    1    2    0    0 -0.86782628894E+02 -0.78179355869E+02 -0.54753636277E+02  0.17962794061E+03  0.12500000000E+03 0.  0.
</event>
<event>
 5    0  0.5720942E-005  0.3648692E+03  0.7546771E-02  0.1056672E+00
         21   -1    0    0  502  501  0.00000000000E+00  0.00000000000E+00  0.15083091487E+03  0.15083091487E+03  0.00000000000E+00 0.  1.
         21   -1    0    0  501  502 -0.00000000000E+00 -0.00000000000E+00 -0.88264089379E+03  0.88264089379E+03  0.00000000000E+00 0.  1.
         25    1    1    2    0    0  0.88034383371E+02 -0.80639134981E+02 -0.33377519856E+03  0.37587711545E+03  0.12500000000E+03 0.  0.
         25    1    1    2    0    0  0.10974474873E+03  0.12433988474E+03 -0.36133839735E+03  0.41676702630E+03  0.12500000000E+03 0.  0.
         25    1    1    2    0    0 -0.19777913210E+03 -0.43700749761E+02 -0.36696383014E+02  0.24082766691E+03  0.12500000000E+03 0.  0.
</event>
<event>
 5    0  0.5720942E-005  0.2561120E+03  0.7546771E-02  0.1109502E+00
         21   -1    0    0  502  501  0.00000000000E+00  0.00000000000E+00  0.31536368746E+03  0.31536368746E+03  0.00000000000E+00 0. -1.
         21   -1    0    0  501  502 -0.00000000000E+00 -0.00000000000E+00 -0.20799274956E+03  0.20799274956E+03  0.00000000000E+00 0. -1.
         25    1    1    2    0    0  0.26748447962E+02  0.19881013015E+02 -0.11630226233E+03  0.17395962281E+03  0.12500000000E+03 0.  0.
         25    1    1    2    0    0 -0.10964830322E+02 -0.25111024526E+02  0.16892637677E+03  0.21192430683E+03  0.12500000000E+03 0.  0.
         25    1    1    2    0    0 -0.15783617641E+02  0.52300115112E+01  0.54746823447E+02  0.13747250737E+03  0.12500000000E+03 0.  0.
</event>
<event>
 5    0  0.5720942E-005  0.2769812E+03  0.7546771E-02  0.1097349E+00
         21   -1    0    0  502  501  0.00000000000E+00  0.00000000000E+00  0.88020393549E+02  0.88020393549E+02  0.00000000000E+00 0. -1.
         21   -1    0    0  501  502 -0.00000000000E+00 -0.00000000000E+00 -0.87160033637E+03  0.87160033637E+03  0.00000000000E+00 0. -1.
         25    1    1    2    0    0  0.17964237241E+01  0.33694045987E+02  0.64548352105E+00  0.12947560590E+03  0.12500000000E+03 0.  0.
         25    1    1    2    0    0 -0.49678513367E+01  0.29704503868E+02 -0.30932175247E+03  0.33498057204E+03  0.12500000000E+03 0.  0.
         25    1    1    2    0    0  0.31714276126E+01 -0.63398549854E+02 -0.47490367388E+03  0.49516455198E+03  0.12500000000E+03 0.  0.
</event>
<event>
 5    0  0.5720942E-005  0.2247986E+03  0.7546771E-02  0.1130355E+00
         21   -1    0    0  502  501  0.00000000000E+00  0.00000000000E+00  0.10062255658E+04  0.10062255658E+04  0.00000000000E+00 0. -1.
         21   -1    0    0  501  502 -0.00000000000E+00 -0.00000000000E+00 -0.50221746409E+02  0.50221746409E+02  0.00000000000E+00 0. -1.
         25    1    1    2    0    0 -0.12469202552E+02  0.95266203811E+02  0.38717923733E+03  0.41804771548E+03  0.12500000000E+03 0.  0.
         25    1    1    2    0    0  0.32607616950E+02 -0.28271495879E+02  0.17508811444E+03  0.21941600211E+03  0.12500000000E+03 0.  0.
         25    1    1    2    0    0 -0.20138414398E+02 -0.66994707932E+02  0.39373646759E+03  0.41898359459E+03  0.12500000000E+03 0.  0.
</event>
<event>
 5    0  0.5720942E-005  0.2420763E+03  0.7546771E-02  0.1118417E+00
         21   -1    0    0  502  501  0.00000000000E+00  0.00000000000E+00  0.32759596005E+02  0.32759596005E+02  0.00000000000E+00 0.  1.
         21   -1    0    0  501  502 -0.00000000000E+00 -0.00000000000E+00 -0.17888174362E+04  0.17888174362E+04  0.00000000000E+00 0.  1.
         25    1    1    2    0    0  0.86993489102E+02  0.10743297167E+03 -0.59197890235E+03  0.62062366324E+03  0.12500000000E+03 0.  0.
         25    1    1    2    0    0 -0.46926480572E+02 -0.20378849091E+02 -0.45684790541E+03  0.47639521487E+03  0.12500000000E+03 0.  0.
         25    1    1    2    0    0 -0.40067008530E+02 -0.87054122580E+02 -0.70723103245E+03  0.72455815412E+03  0.12500000000E+03 0.  0.
</event>
<event>
 5    0  0.5720942E-005  0.2738276E+03  0.7546771E-02  0.1099109E+00
         21   -1    0    0  502  501  0.00000000000E+00  0.00000000000E+00  0.13168534560E+04  0.13168534560E+04  0.00000000000E+00 0. -1.
         21   -1    0    0  501  502 -0.00000000000E+00 -0.00000000000E+00 -0.56939925100E+02  0.56939925100E+02  0.00000000000E+00 0. -1.
         25    1    1    2    0    0  0.38826949600E+02 -0.65578429257E+02  0.31331108859E+03  0.34582784826E+03  0.12500000000E+03 0.  0.
         25    1    1    2    0    0  0.13985416432E+02 -0.11755773181E+03  0.37697984785E+03  0.41443240446E+03  0.12500000000E+03 0.  0.
         25    1    1    2    0    0 -0.52812366032E+02  0.18313616107E+03  0.56962259446E+03  0.61353312838E+03  0.12500000000E+03 0.  0.
</event>
<event>
 5    0  0.5720942E-005  0.2288741E+03  0.7546771E-02  0.1127435E+00
         21   -1    0    0  502  501  0.00000000000E+00  0.00000000000E+00  0.81644546550E+03  0.81644546550E+03  0.00000000000E+00 0. -1.
         21   -1    0    0  501  502 -0.00000000000E+00 -0.00000000000E+00 -0.64160250336E+02  0.64160250336E+02  0.00000000000E+00 0. -1.
         25    1    1    2    0    0  0.71189614237E+02  0.47518790501E+02  0.26865632042E+03  0.30842700130E+03  0.12500000000E+03 0.  0.
         25    1    1    2    0    0 -0.99634875414E+02 -0.64806809707E+02  0.32069503971E+03  0.36413917597E+03  0.12500000000E+03 0.  0.
         25    1    1    2    0    0  0.28445261177E+02  0.17288019205E+02  0.16293385503E+03  0.20803953856E+03  0.12500000000E+03 0.  0.
</event>
<event>
 5    0  0.5720942E-005  0.2991093E+03  0.7546771E-02  0.1085687E+00
         21   -1    0    0  502  501  0.00000000000E+00  0.00000000000E+00  0.65423835845E+02  0.65423835845E+02  0.00000000000E+00 0.  1.
         21   -1    0    0  501  502 -0.00000000000E+00 -0.00000000000E+00 -0.13674890460E+04  0.13674890460E+04  0.00000000000E+00 0.  1.
         25    1    1    2    0    0  0.13918406388E+03  0.32668813947E+02 -0.24039645981E+03  0.30635749205E+03  0.12500000000E+03 0.  0.
         25    1    1    2    0    0 -0.12737787417E+03  0.36331059535E+02 -0.86063856870E+03  0.87969813837E+03  0.12500000000E+03 0.  0.
         25    1    1    2    0    0 -0.11806189716E+02 -0.68999873482E+02 -0.20103018169E+03  0.24685725147E+03  0.12500000000E+03 0.  0.
</event>
<event>
 5    0  0.5720942E-005  0.3998023E+03  0.7546771E-02  0.1043848E+00
         21   -1    0    0  502  501  0.00000000000E+00  0.00000000000E+00  0.18407335426E+04  0.18407335426E+04  0.00000000000E+00 0.  1.
         21   -1    0    0  501  502 -0.00000000000E+00 -0.00000000000E+00 -0.86835954789E+02  0.86835954789E+02  0.00000000000E+00 0.  1.
         25    1    1    2    0    0 -0.23353789072E+03  0.11338427182E+03  0.32456020142E+03  0.43400491223E+03  0.12500000000E+03 0.  0.
         25    1    1    2    0    0  0.61982738446E+01  0.83357484004E+01  0.67647349567E+03  0.68800384712E+03  0.12500000000E+03 0.  0.
         25    1    1    2    0    0  0.22733961687E+03 -0.12172002022E+03  0.75286389075E+03  0.80556073807E+03  0.12500000000E+03 0.  0.
</event>
<event>
 5    0  0.5720942E-005  0.2420576E+03  0.7546771E-02  0.1118430E+00
         21   -1    0    0  502  501  0.00000000000E+00  0.00000000000E+00  0.72845959686E+02  0.72845959686E+02  0.00000000000E+00 0. -1.
         21   -1    0    0  501  502 -0.00000000000E+00 -0.00000000000E+00 -0.80432562468E+03  0.80432562468E+03  0.00000000000E+00 0. -1.
         25    1    1    2    0    0  0.26116649908E+02  0.86411331282E+02 -0.32778111917E+03  0.36223536500E+03  0.12500000000E+03 0.  0.
         25    1    1    2    0    0 -0.63834035824E+02  0.27147782733E+02 -0.22179087235E+03  0.26387113767E+03  0.12500000000E+03 0.  0.
         25    1    1    2    0    0  0.37717385916E+02 -0.11355911401E+03 -0.18190767347E+03  0.25106508169E+03  0.12500000000E+03 0.  0.
</event>
<event>
 5    0  0.5720942E-005  0.2330707E+03  0.7546771E-02  0.1124497E+00
         21   -1    0    0  502  501  0.00000000000E+00  0.00000000000E+00  0.13913113436E+04  0.13913113436E+04  0.00000000000E+00 0. -1.
         21   -1    0    0  501  502 -0.00000000000E+00 -0.00000000000E+00 -0.39043713799E+02  0.39043713799E+02  0.00000000000E+00 0. -1.
         25    1    1    2    0    0 -0.10374566933E+03  0.49973760810E+02  0.48514293718E+03  0.51405175826E+03  0.12500000000E+03 0.  0.
         25    1    1    2    0    0  0.96996247724E+02 -0.35269821954E+02  0.37989465040E+03  0.41303411217E+03  0.12500000000E+03 0.  0.
         25    1    1    2    0    0  0.67494216063E+01 -0.14703938856E+02  0.48723004223E+03  0.50326918698E+03  0.12500000000E+03 0.  0.
</event>
<event>
 5    0  0.5720942E-005  0.3832317E+03  0.7546771E-02  0.1049746E+00
         21   -1    0    0  502  501  0.00000000000E+00  0.00000000000E+00  0.16472815990E+04  0.16472815990E+04  0.00000000000E+00 0. -1.
         21   -1    0    0  501  502 -0.00000000000E+00 -0.00000000000E+00 -0.89156907431E+02  0.89156907431E+02  0.00000000000E+00 0. -1.
         25    1    1    2    0    0  0.29152776251E+02  0.67371089455E+02  0.54209645841E+01  0.14506252071E+03  0.12500000000E+03 0.  0.
         25    1    1    2    0    0 -0.10611967096E+03 -0.10305177405E+03  0.75141017503E+03  0.77596604555E+03  0.12500000000E+03 0.  0.
         25    1    1    2    0    0  0.76966894710E+02  0.35680684596E+02  0.80129355198E+03  0.81540994020E+03  0.12500000000E+03 0.  0.
</event>
<event>
 5    0  0.6266989E-005  0.2824753E+03  0.7546771E-02  0.1094345E+00
         21   -1    0    0  502  501  0.00000000000E+00  0.00000000000E+00  0.49435590836E+03  0.49435590836E+03  0.00000000000E+00 0. -1.
         21   -1    0    0  501  502 -0.00000000000E+00 -0.00000000000E+00 -0.16140655556E+03  0.16140655556E+03  0.00000000000E+00 0. -1.
         25    1    1    2    0    0  0.74232245380E+02 -0.92484361559E+02  0.14495219739E+03  0.22516643381E+03  0.12500000000E+03 0.  0.
         25    1    1    2    0    0  0.18336095802E+02  0.15234926095E+03  0.17367650460E+03  0.26331547234E+03  0.12500000000E+03 0.  0.
         25    1    1    2    0    0 -0.92568341182E+02 -0.59864899393E+02  0.14320650816E+02  0.16728055777E+03  0.12500000000E+03 0.  0.
</event>
<event>
 5    0  0.5720942E-005  0.2658321E+03  0.7546771E-02  0.1103689E+00
         21   -1    0    0  502  501  0.00000000000E+00  0.00000000000E+00  0.15494535686E+03  0.15494535686E+03  0.00000000000E+00 0. -1.
         21   -1    0    0  501  502 -0.00000000000E+00 -0.00000000000E+00 -0.45607491245E+03  0.45607491245E+03  0.00000000000E+00 0. -1.
         25    1    1    2    0    0  0.59477654739E+02 -0.58173490119E+01  0.46959229152E+02  0.14629286437E+03  0.12500000000E+03 0.  0.
         25    1    1    2    0    0  0.31717732339E+02 -0.19512429315E+02 -0.24356972780E+03  0.27629325316E+03  0.12500000000E+03 0.  0.
         25    1    1    2    0    0 -0.91195387078E+02  0.25329778327E+02 -0.10451905694E+03  0.18843415178E+03  0.12500000000E+03 0.  0.
</event>
<event>
 5    0  0.5720942E-005  0.3375469E+03  0.7546771E-02  0.1067846E+00
         21   -1    0    0  502  501  0.00000000000E+00  0.00000000000E+00  0.21838945458E+03  0.21838945458E+03  0.00000000000E+00 0. -1.
         21   -1    0    0  501  502 -0.00000000000E+00 -0.00000000000E+00 -0.52171893882E+03  0.52171893882E+03  0.00000000000E+00 0. -1.
         25    1    1    2    0    0  0.67263785800E+02 -0.27658749829E+02 -0.50412482586E+02  0.15315300102E+03  0.12500000000E+03 0.  0.
         25    1    1    2    0    0  0.17387208552E+03  0.55368865717E+02 -0.98330002380E+01  0.22140212580E+03  0.12500000000E+03 0.  0.
         25    1    1    2    0    0 -0.24113587132E+03 -0.27710115889E+02 -0.24308400142E+03  0.36555326658E+03  0.12500000000E+03 0.  0.
</event>
<event>
 5    0  0.5720942E-005  0.2565927E+03  0.7546771E-02  0.1109208E+00
         21   -1    0    0  502  501  0.00000000000E+00  0.00000000000E+00  0.81293200787E+03  0.81293200787E+03  0.00000000000E+00 0.  1.
         21   -1    0    0  501  502 -0.00000000000E+00 -0.00000000000E+00 -0.80990539538E+02  0.80990539538E+02  0.00000000000E+00 0.  1.
         25    1    1    2    0    0  0.67392601476E+02  0.15180871113E+02  0.27273822791E+03  0.30786906721E+03  0.12500000000E+03 0.  0.
         25    1    1    2    0    0  0.83530646220E+02 -0.61853869345E+02  0.21241780044E+03  0.26748755476E+03  0.12500000000E+03 0.  0.
         25    1    1    2    0    0 -0.15092324770E+03  0.46672998232E+02  0.24678543998E+03  0.31856592543E+03  0.12500000000E+03 0.  0.
</event>
<event>
 5    0  0.5720942E-005  0.2545954E+03  0.7546771E-02  0.1110435E+00
         21   -1    0    0  502  501  0.00000000000E+00  0.00000000000E+00  0.21602373464E+03  0.21602373464E+03  0.00000000000E+00 0.  1.
         21   -1    0    0  501  502 -0.00000000000E+00 -0.00000000000E+00 -0.30005417244E+03  0.30005417244E+03  0.00000000000E+00 0.  1.
         25    1    1    2    0    0 -0.75259226313E+02  0.10399067236E+03  0.14499637838E+02  0.17975886788E+03  0.12500000000E+03 0.  0.
         25    1    1    2    0    0 -0.12496965338E+02 -0.98268831870E+02 -0.10256343587E+02  0.15982218258E+03  0.12500000000E+03 0.  0.
         25    1    1    2    0    0  0.87756191651E+02 -0.57218404863E+01 -0.88273732051E+02  0.17649685663E+03  0.12500000000E+03 0.  0.
</event>
<event>
 5    0  0.5720942E-005  0.3432486E+03  0.7546771E-02  0.1065421E+00
         21   -1    0    0  502  501  0.00000000000E+00  0.00000000000E+00  0.10523140274E+04  0.10523140274E+04  0.00000000000E+00 0.  1.
         21   -1    0    0  501  502 -0.00000000000E+00 -0.00000000000E+00 -0.11196241463E+03  0.11196241463E+03  0.00000000000E+00 0.  1.
         25    1    1    2    0    0 -0.19335897318E+03  0.22587150179E+02  0.23552620026E+03  0.33014460903E+03  0.12500000000E+03 0.  0.
         25    1    1    2    0    0  0.25628835759E+03 -0.23988261272E+02  0.57934977808E+03  0.64616586437E+03  0.12500000000E+03 0.  0.
         25    1    1    2    0    0 -0.62929384404E+02  0.14011110932E+01  0.12547563446E+03  0.18796596867E+03  0.12500000000E+03 0.  0.
</event>
<event>
 5    0  0.5720942E-005  0.2792278E+03  0.7546771E-02  0.1096111E+00
         21   -1    0    0  502  501  0.00000000000E+00  0.00000000000E+00  0.47486027006E+03  0.47486027006E+03  0.00000000000E+00 0. -1.
         21   -1    0    0  501  502 -0.00000000000E+00 -0.00000000000E+00 -0.16419183524E+03  0.16419183524E+03  0.00000000000E+00 0. -1.
         25    1    1    2    0    0  0.14596080141E+02 -0.91029014400E+02  0.57594442996E+02  0.16565460115E+03  0.12500000000E+03 0.  0.
         25    1    1    2    0    0 -0.71533251767E+02 -0.66550616877E+02  0.19350212638E+02  0.15982935101E+03  0.12500000000E+03 0.  0.
         25    1    1    2    0    0  0.56937171626E+02  0.15757963128E+03  0.23372377919E+03  0.31356815314E+03  0.12500000000E+03 0.  0.
</event>
<event>
 5    0  0.5720942E-005  0.3091174E+03  0.7546771E-02  0.1080770E+00
         21   -1    0    0  502  501  0.00000000000E+00  0.00000000000E+00  0.74213079452E+03  0.74213079452E+03  0.00000000000E+00 0.  1.
         21   -1    0    0  501  502 -0.00000000000E+00 -0.00000000000E+00 -0.12875572761E+03  0.12875572761E+03  0.00000000000E+00 0.  1.
         25    1    1    2    0    0 -0.79366447028E+02 -0.64869123508E+02  0.75463520690E+02  0.17840061394E+03  0.12500000000E+03 0.  0.
         25    1    1    2    0    0 -0.21427341240E+01 -0.13658709544E+03  0.21729930142E+03  0.28549012654E+03  0.12500000000E+03 0.  0.
         25    1    1    2    0    0  0.81509181152E+02  0.20145621895E+03  0.32061224480E+03  0.40699578165E+03  0.12500000000E+03 0.  0.
</event>
<event>
 5    0  0.5720942E-005  0.2739228E+03  0.7546771E-02  0.1099055E+00
         21   -1    0    0  502  501  0.00000000000E+00  0.00000000000E+00  0.64202618601E+02  0.64202618601E+02  0.00000000000E+00 0.  1.
         21   -1    0    0  501  502 -0.00000000000E+00 -0.00000000000E+00 -0.11687018298E+04  0.11687018298E+04  0.00000000000E+00 0.  1.
         25    1    1    2    0    0 -0.45452990296E+02  0.66189857746E+02 -0.35684338510E+03  0.38653495713E+03  0.12500000000E+03 0.  0.
         25    1    1    2    0    0  0.60255025791E+02 -0.16143041127E+03 -0.57140754611E+03  0.60977211281E+03  0.12500000000E+03 0.  0.
         25    1    1    2    0    0 -0.14802035495E+02  0.95240553520E+02 -0.17624827996E+03  0.23659737843E+03  0.12500000000E+03 0.  0.
</event>
<event>
 5    0  0.5720942E-005  0.4781402E+03  0.7546771E-02  0.1019648E+00
         21   -1    0    0  502  501  0.00000000000E+00  0.00000000000E+00  0.59793722133E+03  0.59793722133E+03  0.00000000000E+00 0. -1.
         21   -1    0    0  501  502 -0.00000000000E+00 -0.00000000000E+00 -0.38234464256E+03  0.38234464256E+03  0.00000000000E+00 0. -1.
         25    1    1    2    0    0  0.55579448086E+02  0.14814087530E+03 -0.24388398625E+03  0.31644777253E+03  0.12500000000E+03 0.  0.
         25    1    1    2    0    0 -0.21236273783E+03 -0.37029414216E+02  0.22146497482E+03  0.33337793120E+03  0.12500000000E+03 0.  0.
         25    1    1    2    0    0  0.15678328974E+03 -0.11111146109E+03  0.23801159020E+03  0.33045616017E+03  0.12500000000E+03 0.  0.
</event>
<event>
 5    0  0.5720942E-005  0.4080817E+03  0.7546771E-02  0.1041017E+00
         21   -1    0    0  502  501  0.00000000000E+00  0.00000000000E+00  0.45189177938E+03  0.45189177938E+03  0.00000000000E+00 0.  1.
         21   -1    0    0  501  502 -0.00000000000E+00 -0.00000000000E+00 -0.36851897699E+03  0.36851897699E+03  0.00000000000E+00 0.  1.
         25    1    1    2    0    0 -0.10680226799E+03  0.47104176238E+02  0.68388106269E+02  0.18419408499E+03  0.12500000000E+03 0.  0.
         25    1    1    2    0    0  0.29586063990E+03 -0.18445689581E+03  0.22817978156E+02  0.37108425564E+03  0.12500000000E+03 0.  0.
         25    1    1    2    0    0 -0.18905837191E+03  0.13735271958E+03 -0.78332820319E+01  0.26513241573E+03  0.12500000000E+03 0.  0.
</event>
<event>
 5    0  0.5720942E-005  0.3567654E+03  0.7546771E-02  0.1059872E+00
         21   -1    0    0  502  501  0.00000000000E+00  0.00000000000E+00  0.40489914423E+03  0.40489914423E+03  0.00000000000E+00 0.  1.
         21   -1    0    0  501  502 -0.00000000000E+00 -0.00000000000E+00 -0.31435369120E+03  0.31435369120E+03  0.00000000000E+00 0.  1.
         25    1    1    2    0    0  0.75753425377E+02  0.45286868461E+02  0.28735940553E+03  0.32556091574E+03  0.12500000000E+03 0.  0.
         25    1    1    2    0    0 -0.45262173888E+02 -0.75339810338E+02  0.45210849267E+01  0.15287312261E+03  0.12500000000E+03 0.  0.
         25    1    1    2    0    0 -0.30491251489E+02  0.30052941877E+02 -0.20133503743E+03  0.24081879709E+03  0.12500000000E+03 0.  0.
</event>
<event>
 5    0  0.5720942E-005  0.2960758E+03  0.7546771E-02  0.1087219E+00
         21   -1    0    0  502  501  0.00000000000E+00  0.00000000000E+00  0.12197187738E+03  0.12197187738E+03  0.00000000000E+00 0.  1.
         21   -1    0    0  501  502 -0.00000000000E+00 -0.00000000000E+00 -0.71869735261E+03  0.71869735261E+03  0.00000000000E+00 0.  1.
         25    1    1    2    0    0 -0.76907034728E+02 -0.31640460299E+02  0.18187152294E+02  0.15123353870E+03  0.12500000000E+03 0.  0.
         25    1    1    2    0    0  0.10930912321E+03 -0.43719385163E+01 -0.43057451302E+03  0.46150515655E+03  0.12500000000E+03 0.  0.
         25    1    1    2    0    0 -0.32402088478E+02  0.36012398815E+02 -0.18433811451E+03  0.22793053474E+03  0.12500000000E+03 0.  0.
</event>
<event>
 5    0  0.5720942E-005  0.3026601E+03  0.7546771E-02  0.1083918E+00
         21   -1    0    0  502  501  0.00000000000E+00  0.00000000000E+00  0.13442756436E+03  0.13442756436E+03  0.00000000000E+00 0.  1.
         21   -1    0    0  501  502 -0.00000000000E+00 -0.00000000000E+00 -0.68143126239E+03  0.68143126239E+03  0.00000000000E+00 0.  1.
         25    1    1    2    0    0  0.15827447046E+03 -0.15655869661E+02 -0.54117457082E+02  0.20940299285E+03  0.12500000000E+03 0.  0.
         25    1    1    2    0    0 -0.10138982685E+03 -0.60505431742E+02 -0.36665780137E+03  0.40497376158E+03  0.12500000000E+03 0.  0.
         25    1    1    2    0    0 -0.56884643609E+02  0.76161301403E+02 -0.12622843958E+03  0.20148207232E+03  0.12500000000E+03 0.  0.
</event>
<event>
 5    0  0.5720942E-005  0.2573449E+03  0.7546771E-02  0.1108749E+00
         21   -1    0    0  502  501  0.00000000000E+00  0.00000000000E+00  0.11167137113E+03  0.11167137113E+03  0.00000000000E+00 0. -1.
         21   -1    0    0  501  502 -0.00000000000E+00 -0.00000000000E+00 -0.59304712478E+03  0.59304712478E+03  0.00000000000E+00 0. -1.
         25    1    1    2    0    0 -0.94667065423E+02  0.95899212835E+02 -0.16085654055E+03  0.24425056589E+03  0.12500000000E+03 0.  0.
         25    1    1    2    0    0  0.15876847903E+02 -0.12732231292E+03 -0.16246320640E+03  0.24183122028E+03  0.12500000000E+03 0.  0.
         25    1    1    2    0    0  0.78790217520E+02  0.31423100084E+02 -0.15805600669E+03  0.21863670974E+03  0.12500000000E+03 0.  0.
</event>
<event>
 5    0  0.5720942E-005  0.2740059E+03  0.7546771E-02  0.1099009E+00
         21   -1    0    0  502  501  0.00000000000E+00  0.00000000000E+00  0.22331342767E+03  0.22331342767E+03  0.00000000000E+00 0.  1.
         21   -1    0    0  501  502 -0.00000000000E+00 -0.00000000000E+00 -0.33620559507E+03  0.33620559507E+03  0.00000000000E+00 0.  1.
         25    1    1    2    0    0 -0.14046770010E+03  0.12463524040E+03 -0.30069421283E+02  0.22758358468E+03  0.12500000000E+03 0.  0.
         25    1    1    2    0    0  0.10183286453E+03 -0.93163787576E+02 -0.58540167547E+02  0.19519573466E+03  0.12500000000E+03 0.  0.
         25    1    1    2    0    0  0.38634835568E+02 -0.31471452821E+02 -0.24282578567E+02  0.13673970339E+03  0.12500000000E+03 0.  0.
</event>
<event>
 5    0  0.5720942E-005  0.2737620E+03  0.7546771E-02  0.1099146E+00
         21   -1    0    0  502  501  0.00000000000E+00  0.00000000000E+00  0.32440964651E+03  0.32440964651E+03  0.00000000000E+00 0. -1.
         21   -1    0    0  501  502 -0.00000000000E+00 -0.00000000000E+00 -0.23102152533E+03  0.23102152533E+03  0.00000000000E+00 0. -1.
         25    1    1    2    0    0  0.98176119712E+01 -0.10931565575E+03  0.12378921880E+03  0.20735252298E+03  0.12500000000E+03 0.  0.
         25    1    1    2    0    0  0.86711765859E+02  0.94454654251E+02  0.23358430743E+02  0.18058579217E+03  0.12500000000E+03 0.  0.
         25    1    1    2    0    0 -0.96529377830E+02  0.14861001499E+02 -0.53759528368E+02  0.16749285668E+03  0.12500000000E+03 0.  0.
</event>
<event>
 5    0  0.5720942E-005  0.2523215E+03  0.7546771E-02  0.1111846E+00
         21   -1    0    0  502  501  0.00000000000E+00  0.00000000000E+00  0.13441296275E+04  0.13441296275E+04  0.00000000000E+00 0.  1.
         21   -1    0    0  501  502 -0.00000000000E+00 -0.00000000000E+00 -0.47366064571E+02  0.47366064571E+02  0.00000000000E+00 0.  1.
         25    1    1    2    0    0 -0.30651461915E+01 -0.32425072109E+02  0.18570421705E+03  0.22621192863E+03  0.12500000000E+03 0.  0.
         25    1    1    2    0    0  0.94586449827E+02 -0.59402836221E+02  0.45281204976E+03  0.48284474301E+03  0.12500000000E+03 0.  0.
         25    1    1    2    0    0 -0.91521303636E+02  0.91827908330E+02  0.65824729610E+03  0.68243902042E+03  0.12500000000E+03 0.  0.
</event>
<event>
 5    0  0.5720942E-005  0.3761595E+03  0.7546771E-02  0.1052362E+00
         21   -1    0    0  502  501  0.00000000000E+00  0.00000000000E+00  0.13920621693E+03  0.13920621693E+03  0.00000000000E+00 0. -1.
         21   -1    0    0  501  502 -0.00000000000E+00 -0.00000000000E+00 -0.10164485961E+04  0.10164485961E+04  0.00000000000E+00 0. -1.
         25    1    1    2    0    0 -0.36264165491E+02  0.42015813920E+02 -0.28477207360E+03  0.31591225399E+03  0.12500000000E+03 0.  0.
         25    1    1    2    0    0  0.27391538104E+02  0.15881877189E+03 -0.24142886194E+01  0.20397187907E+03  0.12500000000E+03 0.  0.
         25    1    1    2    0    0  0.88726273871E+01 -0.20083458581E+03 -0.59005601699E+03  0.63577068001E+03  0.12500000000E+03 0.  0.
</event>
<event>
 5    0  0.5720942E-005  0.2163216E+03  0.7546771E-02  0.1136656E+00
         21   -1    0    0  502  501  0.00000000000E+00  0.00000000000E+00  0.46593432092E+02  0.46593432092E+02  0.00000000000E+00 0. -1.
         21   -1    0    0  501  502 -0.00000000000E+00 -0.00000000000E+00 -0.10043263872E+04  0.10043263872E+04  0.00000000000E+00 0. -1.
         25    1    1    2    0    0 -0.41084666029E+02 -0.12509703865E+02 -0.25292601419E+03  0.28537871526E+03  0.12500000000E+03 0.  0.
         25    1    1    2    0    0 -0.52673739522E+02 -0.20985202400E+02 -0.36743467565E+03  0.39223480522E+03  0.12500000000E+03 0.  0.
         25    1    1    2    0    0  0.93758405551E+02  0.33494906265E+02 -0.33737226528E+03  0.37330629882E+03  0.12500000000E+03 0.  0.
</event>
<event>
 5    0  0.5720942E-005  0.2873532E+03  0.7546771E-02  0.1091739E+00
         21   -1    0    0  502  501  0.00000000000E+00  0.00000000000E+00  0.29358933065E+03  0.29358933065E+03  0.00000000000E+00 0. -1.
         21   -1    0    0  501  502 -0.00000000000E+00 -0.00000000000E+00 -0.28124955413E+03  0.28124955413E+03  0.00000000000E+00 0. -1.
         25    1    1    2    0    0  0.81573620317E+02 -0.17704711109E+02 -0.20150346536E+02  0.15165338372E+03  0.12500000000E+03 0.  0.
         25    1    1    2    0    0  0.32202505292E+02 -0.13340750084E+03  0.59311722058E+02  0.19487802083E+03  0.12500000000E+03 0.  0.
         25    1    1    2    0    0 -0.11377612561E+03  0.15111221195E+03 -0.26821598999E+02  0.22830748024E+03  0.12500000000E+03 0.  0.
</event>
<event>
 5    0  0.5720942E-005  0.4023213E+03  0.7546771E-02  0.1042979E+00
         21   -1    0    0  502  501  0.00000000000E+00  0.00000000000E+00  0.12780292589E+03  0.12780292589E+03  0.00000000000E+00 0.  1.
         21   -1    0    0  501  502 -0.00000000000E+00 -0.00000000000E+00 -0.12665004283E+04  0.12665004283E+04  0.00000000000E+00 0.  1.
         25    1    1    2    0    0 -0.69044165531E+02 -0.35433073196E+02 -0.12795539022E+02  0.14768657789E+03  0.12500000000E+03 0.  0.
         25    1    1    2    0    0  0.21900373221E+03 -0.47034614394E+02 -0.90434225391E+03  0.94001851145E+03  0.12500000000E+03 0.  0.
         25    1    1    2    0    0 -0.14995956668E+03  0.82467687590E+02 -0.22155970945E+03  0.30659826482E+03  0.12500000000E+03 0.  0.
</event>
<event>
 5    0  0.5720942E-005  0.2786224E+03  0.7546771E-02  0.1096444E+00
         21   -1    0    0  502  501  0.00000000000E+00  0.00000000000E+00  0.16218603677E+04  0.16218603677E+04  0.00000000000E+00 0.  1.
         21   -1    0    0  501  502 -0.00000000000E+00 -0.00000000000E+00 -0.47865054635E+02  0.47865054635E+02  0.00000000000E+00 0.  1.
         25    1    1    2    0    0  0.10835101082E+03 -0.61787770225E+02  0.78811613551E+03  0.80765692788E+03  0.12500000000E+03 0.  0.
         25    1    1    2    0    0 -0.10614397897E+03 -0.20715677219E+02  0.21120807851E+03  0.26819682321E+03  0.12500000000E+03 0.  0.
         25    1    1    2    0    0 -0.22070318500E+01  0.82503447444E+02  0.57467109907E+03  0.59387167127E+03  0.12500000000E+03 0.  0.
</event>
<event>
 5    0  0.5720942E-005  0.4085967E+03  0.7546771E-02  0.1040843E+00
         21   -1    0    0  502  501  0.00000000000E+00  0.00000000000E+00  0.44841171896E+03  0.44841171896E+03  0.00000000000E+00 0.  1.
         21   -1    0    0  501  502 -0.00000000000E+00 -0.00000000000E+00 -0.37231682023E+03  0.37231682023E+03  0.00000000000E+00 0.  1.
         25    1    1    2    0    0 -0.65726273565E+02 -0.20436597545E+00 -0.23640340316E+03  0.27537529633E+03  0.12500000000E+03 0.  0.
         25    1    1    2    0    0 -0.12609296226E+03 -0.76416440559E+02  0.20280828322E+03  0.28016978292E+03  0.12500000000E+03 0.  0.
         25    1    1    2    0    0  0.19181923583E+03  0.76620806535E+02  0.10969001867E+03  0.26518345994E+03  0.12500000000E+03 0.  0.
</event>
<event>
 5    0  0.5720942E-005  0.4071869E+03  0.7546771E-02  0.1041319E+00
         21   -1    0    0  502  501  0.00000000000E+00  0.00000000000E+00  0.63080570113E+03  0.63080570113E+03  0.00000000000E+00 0. -1.
         21   -1    0    0  501  502 -0.00000000000E+00 -0.00000000000E+00 -0.26284026947E+03  0.26284026947E+03  0.00000000000E+00 0. -1.
         25    1    1    2    0    0 -0.26343068171E+03 -0.12367481219E+03  0.11013643477E+03  0.33533001282E+03  0.12500000000E+03 0.  0.
         25    1    1    2    0    0 -0.46562611070E+02  0.38143378376E+01  0.11287520353E+03  0.17478111310E+03  0.12500000000E+03 0.  0.
         25    1    1    2    0    0  0.30999329278E+03  0.11986047435E+03  0.14495379336E+03  0.38353484469E+03  0.12500000000E+03 0.  0.
</event>
<event>
 5    0  0.5720942E-005  0.3225809E+03  0.7546771E-02  0.1074468E+00
         21   -1    0    0  502  501  0.00000000000E+00  0.00000000000E+00  0.18973467025E+03  0.18973467025E+03  0.00000000000E+00 0. -1.
         21   -1    0    0  501  502 -0.00000000000E+00 -0.00000000000E+00 -0.54844194593E+03  0.54844194593E+03  0.00000000000E+00 0. -1.
         25    1    1    2    0    0 -0.25523451298E+02 -0.20051520598E+03 -0.23603849354E+03  0.33495815385E+03  0.12500000000E+03 0.  0.
         25    1    1    2    0    0  0.11607489458E+03  0.11857639133E+03 -0.48229101332E+02  0.21327162949E+03  0.12500000000E+03 0.  0.
         25    1    1    2    0    0 -0.90551443281E+02  0.81938814652E+02 -0.74439680807E+02  0.18994683284E+03  0.12500000000E+03 0.  0.
</event>
<event>
 5    0  0.5720942E-005  0.2727215E+03  0.7546771E-02  0.1099732E+00
         21   -1    0    0  502  501  0.00000000000E+00  0.00000000000E+00  0.17770669352E+03  0.17770669352E+03  0.00000000000E+00 0.  1.
         21   -1    0    0  501  502 -0.00000000000E+00 -0.00000000000E+00 -0.41853809687E+03  0.41853809687E+03  0.00000000000E+00 0.  1.
         25    1    1    2    0    0  0.61520357568E+02  0.25004230788E+02 -0.30021107991E+02  0.14469358271E+03  0.12500000000E+03 0.  0.
         25    1    1    2    0    0 -0.67390854349E+01 -0.15414846443E+03 -0.16493202086E+03  0.25813704861E+03  0.12500000000E+03 0.  0.
         25    1    1    2    0    0 -0.54781272133E+02  0.12914423365E+03 -0.45878274497E+02  0.19341415908E+03  0.12500000000E+03 0.  0.
</event>
<event>
 5    0  0.5720942E-005  0.2505006E+03  0.7546771E-02  0.1112989E+00
         21   -1    0    0  502  501  0.00000000000E+00  0.00000000000E+00  0.57804147203E+03  0.57804147203E+03  0.00000000000E+00 0. -1.
         21   -1    0    0  501  502 -0.00000000000E+00 -0.00000000000E+00 -0.10855719442E+03  0.10855719442E+03  0.00000000000E+00 0. -1.
         25    1    1    2    0    0  0.43455774104E+01  0.47803264930E+02  0.66023671838E+02  0.14929220148E+03  0.12500000000E+03 0.  0.
         25    1    1    2    0    0  0.22529842722E+02  0.84972471333E+02  0.10124131774E+03  0.18331044464E+03  0.12500000000E+03 0.  0.
         25    1    1    2    0    0 -0.26875420132E+02 -0.13277573626E+03  0.30221928803E+03  0.35399602032E+03  0.12500000000E+03 0.  0.
</event>
<event>
 5    0  0.5720942E-005  0.3879842E+03  0.7546771E-02  0.1048022E+00
         21   -1    0    0  502  501  0.00000000000E+00  0.00000000000E+00  0.11038933705E+04  0.11038933705E+04  0.00000000000E+00 0.  1.
         21   -1    0    0  501  502 -0.00000000000E+00 -0.00000000000E+00 -0.13636437410E+03  0.13636437410E+03  0.00000000000E+00 0.  1.
         25    1    1    2    0    0 -0.14062043270E+03 -0.79268412962E+02  0.21387891506E+03  0.29568019497E+03  0.12500000000E+03 0.  0.
         25    1    1    2    0    0  0.26043312979E+03 -0.88510374469E+02  0.55611424567E+03  0.63288826480E+03  0.12500000000E+03 0.  0.
         25    1    1    2    0    0 -0.11981269709E+03  0.16777878743E+03  0.19753583562E+03  0.31168928478E+03  0.12500000000E+03 0.  0.
</event>
<event>
 5    0  0.5720942E-005  0.2206565E+03  0.7546771E-02  0.1133395E+00
         21   -1    0    0  502  501  0.00000000000E+00  0.00000000000E+00  0.34753024756E+03  0.34753024756E+03  0.00000000000E+00 0. -1.
         21   -1    0    0  501  502 -0.00000000000E+00 -0.00000000000E+00 -0.14010087964E+03  0.14010087964E+03  0.00000000000E+00 0. -1.
         25    1    1    2    0    0  0.18261572289E+02  0.52039549479E+01  0.23524083672E+01  0.12645592115E+03  0.12500000000E+03 0.  0.
         25    1    1    2    0    0  0.17612206061E+02  0.21170423992E+02  0.18792977435E+03  0.22737848786E+03  0.12500000000E+03 0.  0.
         25    1    1    2    0    0 -0.35873778350E+02 -0.26374378940E+02  0.17147185198E+02  0.13379671819E+03  0.12500000000E+03 0.  0.
</event>
<event>
 5    0  0.5720942E-005  0.4951819E+03  0.7546771E-02  0.1015044E+00
         21   -1    0    0  502  501  0.00000000000E+00  0.00000000000E+00  0.47488021702E+03  0.47488021702E+03  0.00000000000E+00 0. -1.
         21   -1    0    0  501  502 -0.00000000000E+00 -0.00000000000E+00 -0.51635152169E+03  0.51635152169E+03  0.00000000000E+00 0. -1.
         25    1    1    2    0    0  0.31010577096E+03 -0.94142089552E+02  0.21148496506E+03  0.40666843086E+03  0.12500000000E+03 0.  0.
         25    1    1    2    0    0 -0.32681471968E+02  0.10800951824E+03 -0.22163802740E+03  0.27835687495E+03  0.12500000000E+03 0.  0.
         25    1    1    2    0    0 -0.27742429899E+03 -0.13867428688E+02 -0.31318242325E+02  0.30620643291E+03  0.12500000000E+03 0.  0.
</event>
<event>
 5    0  0.5720942E-005  0.3080137E+03  0.7546771E-02  0.1081302E+00
         21   -1    0    0  502  501  0.00000000000E+00  0.00000000000E+00  0.38692558461E+02  0.38692558461E+02  0.00000000000E+00 0.  1.
         21   -1    0    0  501  502 -0.00000000000E+00 -0.00000000000E+00 -0.24519553968E+04  0.24519553968E+04  0.00000000000E+00 0.  1.
         25    1    1    2    0    0  0.20054262407E+03 -0.11069359920E+03 -0.10547579894E+04  0.10865587114E+04  0.12500000000E+03 0.  0.
         25    1    1    2    0    0 -0.97815389898E+02  0.32121801574E+02 -0.45772283915E+03  0.48552534240E+03  0.12500000000E+03 0.  0.
         25    1    1    2    0    0 -0.10272723418E+03  0.78571797622E+02 -0.90078200979E+03  0.91856390152E+03  0.12500000000E+03 0.  0.
</event>
<event>
 5    0  0.5720942E-005  0.4189375E+03  0.7546771E-02  0.1037413E+00
         21   -1    0    0  502  501  0.00000000000E+00  0.00000000000E+00  0.17368949859E+04  0.17368949859E+04  0.00000000000E+00 0.  1.
         21   -1    0    0  501  502 -0.00000000000E+00 -0.00000000000E+00 -0.10104733033E+03  0.10104733033E+03  0.00000000000E+00 0.  1.
         25    1    1    2    0    0 -0.35013622967E+02  0.22969790061E+03  0.58715026946E+03  0.64370608065E+03  0.12500000000E+03 0.  0.
         25    1    1    2    0    0  0.15251770652E+03 -0.49186284803E+02  0.85477815069E+03  0.87860777843E+03  0.12500000000E+03 0.  0.
         25    1    1    2    0    0 -0.11750408355E+03 -0.18051161581E+03  0.19391923539E+03  0.31562845713E+03  0.12500000000E+03 0.  0.
</event>
<event>
 5    0  0.5720942E-005  0.2739058E+03  0.7546771E-02  0.1099065E+00
         21   -1    0    0  502  501  0.00000000000E+00  0.00000000000E+00  0.21922384428E+03  0.21922384428E+03  0.00000000000E+00 0. -1.
         21   -1    0    0  501  502 -0.00000000000E+00 -0.00000000000E+00 -0.34222740202E+03  0.34222740202E+03  0.00000000000E+00 0. -1.
         25    1    1    2    0    0 -0.28669454452E+02  0.72841513578E+02  0.40309501457E+02  0.15289761158E+03  0.12500000000E+03 0.  0.
         25    1    1    2    0    0 -0.28906359218E+02 -0.19495528777E+02 -0.21587136098E+03  0.25187516300E+03  0.12500000000E+03 0.  0.
         25    1    1    2    0    0  0.57575813670E+02 -0.53345984801E+02  0.52558301789E+02  0.15667847172E+03  0.12500000000E+03 0.  0.
</event>
<event>
 5    0  0.7669352E-005  0.6745493E+03  0.7546771E-02  0.9761774E-01
         21   -1    0    0  502  501  0.00000000000E+00  0.00000000000E+00  0.38210843111E+03  0.38210843111E+03  0.00000000000E+00 0.  1.
         21   -1    0    0  501  502 -0.00000000000E+00 -0.00000000000E+00 -0.11908054045E+04  0.11908054045E+04  0.00000000000E+00 0.  1.
         25    1    1    2    0    0  0.42992235501E+03  0.11063582491E+03 -0.57991489821E+03  0.74094521137E+03  0.12500000000E+03 0.  0.
         25    1    1    2    0    0 -0.29372138147E+03 -0.84342324207E+02 -0.43996497471E+03  0.55007277387E+03  0.12500000000E+03 0.  0.
         25    1    1    2    0    0 -0.13620097354E+03 -0.26293500707E+02  0.21118289956E+03  0.28189585034E+03  0.12500000000E+03 0.  0.
</event>
<event>
 5    0  0.5720942E-005  0.2893414E+03  0.7546771E-02  0.1090693E+00
         21   -1    0    0  502  501  0.00000000000E+00  0.00000000000E+00  0.20239900997E+03  0.20239900997E+03  0.00000000000E+00 0.  1.
         21   -1    0    0  501  502 -0.00000000000E+00 -0.00000000000E+00 -0.41363076093E+03  0.41363076093E+03  0.00000000000E+00 0.  1.
         25    1    1    2    0    0 -0.10073994022E+03 -0.16505942781E+01 -0.11996174011E+03  0.20041726250E+03  0.12500000000E+03 0.  0.
         25    1    1    2    0    0 -0.80367993893E+02 -0.82070245552E+02 -0.30918170694E+02  0.17255570963E+03  0.12500000000E+03 0.  0.
         25    1    1    2    0    0  0.18110793411E+03  0.83720839830E+02 -0.60351840159E+02  0.24305679877E+03  0.12500000000E+03 0.  0.
</event>
<event>
 5    0  0.5720942E-005  0.3072964E+03  0.7546771E-02  0.1081649E+00
         21   -1    0    0  502  501  0.00000000000E+00  0.00000000000E+00  0.23987694203E+03  0.23987694203E+03  0.00000000000E+00 0. -1.
         21   -1    0    0  501  502 -0.00000000000E+00 -0.00000000000E+00 -0.39366478696E+03  0.39366478696E+03  0.00000000000E+00 0. -1.
         25    1    1    2    0    0  0.33686351219E+02  0.12415100655E+03  0.83382671088E+02  0.19780271111E+03  0.12500000000E+03 0.  0.
         25    1    1    2    0    0 -0.47792147794E+01 -0.21823989786E+02 -0.24009400038E+03  0.27160496395E+03  0.12500000000E+03 0.  0.
         25    1    1    2    0    0 -0.28907136440E+02 -0.10232701676E+03  0.29234843724E+01  0.16413405392E+03  0.12500000000E+03 0.  0.
</event>
<event>
 5    0  0.5720942E-005  0.3008717E+03  0.7546771E-02  0.1084806E+00
         21   -1    0    0  502  501  0.00000000000E+00  0.00000000000E+00  0.13259682167E+04  0.13259682167E+04  0.00000000000E+00 0. -1.
         21   -1    0    0  501  502 -0.00000000000E+00 -0.00000000000E+00 -0.68269963379E+02  0.68269963379E+02  0.00000000000E+00 0. -1.
         25    1    1    2    0    0  0.75454703247E+02 -0.71743883695E+02  0.48266649602E+03  0.50934521051E+03  0.12500000000E+03 0.  0.
         25    1    1    2    0    0 -0.13929169931E+03  0.76821039701E+02  0.69369165627E+03  0.72259031520E+03  0.12500000000E+03 0.  0.
         25    1    1    2    0    0  0.63836996061E+02 -0.50771560063E+01  0.81340101021E+02  0.16230265436E+03  0.12500000000E+03 0.  0.
</event>
<event>
 5    0  0.5909538E-005  0.3606982E+03  0.7546771E-02  0.1058308E+00
         21   -1    0    0  502  501  0.00000000000E+00  0.00000000000E+00  0.22472357139E+03  0.22472357139E+03  0.00000000000E+00 0. -1.
         21   -1    0    0  501  502 -0.00000000000E+00 -0.00000000000E+00 -0.57894774925E+03  0.57894774925E+03  0.00000000000E+00 0. -1.
         25    1    1    2    0    0  0.44448941667E+01 -0.21948818494E+02 -0.27706678193E+03  0.30478272485E+03  0.12500000000E+03 0.  0.
         25    1    1    2    0    0  0.16919940146E+03  0.13589131176E+03 -0.35972179259E+02  0.25300965149E+03  0.12500000000E+03 0.  0.
         25    1    1    2    0    0 -0.17364429563E+03 -0.11394249326E+03 -0.41185216668E+02  0.24587894430E+03  0.12500000000E+03 0.  0.
</event>
<event>
 5    0  0.5720942E-005  0.2631483E+03  0.7546771E-02  0.1105266E+00
         21   -1    0    0  502  501  0.00000000000E+00  0.00000000000E+00  0.25882564825E+03  0.25882564825E+03  0.00000000000E+00 0. -1.
         21   -1    0    0  501  502 -0.00000000000E+00 -0.00000000000E+00 -0.26754323224E+03  0.26754323224E+03  0.00000000000E+00 0. -1.
         25    1    1    2    0    0 -0.26924126231E+02 -0.32238901955E+02 -0.52190085218E+02  0.14182052167E+03  0.12500000000E+03 0.  0.
         25    1    1    2    0    0  0.74656619950E+02 -0.34430418603E+02  0.14138146140E+03  0.20584650168E+03  0.12500000000E+03 0.  0.
         25    1    1    2    0    0 -0.47732493720E+02  0.66669320558E+02 -0.97908960166E+02  0.17870185713E+03  0.12500000000E+03 0.  0.
</event>
<event>
 5    0  0.5720942E-005  0.4908033E+03  0.7546771E-02  0.1016208E+00
         21   -1    0    0  502  501  0.00000000000E+00  0.00000000000E+00  0.46055944137E+03  0.46055944137E+03  0.00000000000E+00 0. -1.
         21   -1    0    0  501  502 -0.00000000000E+00 -0.00000000000E+00 -0.52303321883E+03  0.52303321883E+03  0.00000000000E+00 0. -1.
         25    1    1    2    0    0 -0.61278781134E+02  0.14783259404E+02 -0.17954648816E+03  0.22767427432E+03  0.12500000000E+03 0.  0.
         25    1    1    2    0    0 -0.25426247796E+02  0.21760493058E+03 -0.20900741869E+03  0.32757823639E+03  0.12500000000E+03 0.  0.
         25    1    1    2    0    0  0.86705028930E+02 -0.23238818998E+03  0.32608012939E+03  0.42834014949E+03  0.12500000000E+03 0.  0.
</event>
<event>
 5    0  0.5720942E-005  0.2104798E+03  0.7546771E-02  0.1141187E+00
         21   -1    0    0  502  501  0.00000000000E+00  0.00000000000E+00  0.29172861566E+03  0.29172861566E+03  0.00000000000E+00 0.  1.
         21   -1    0    0  501  502 -0.00000000000E+00 -0.00000000000E+00 -0.15185950525E+03  0.15185950525E+03  0.00000000000E+00 0.  1.
         25    1    1    2    0    0 -0.52592318707E+02 -0.41491513890E+02  0.38157486234E+02  0.14686215124E+03  0.12500000000E+03 0.  0.
         25    1    1    2    0    0  0.47522898970E+02  0.53519007873E+02  0.16723997158E+02  0.14500828325E+03  0.12500000000E+03 0.  0.
         25    1    1    2    0    0  0.50694197379E+01 -0.12027493983E+02  0.84987627019E+02  0.15171768643E+03  0.12500000000E+03 0.  0.
</event>
<event>
 5    0  0.5720942E-005  0.2640852E+03  0.7546771E-02  0.1104713E+00
         21   -1    0    0  502  501  0.00000000000E+00  0.00000000000E+00  0.56225538247E+03  0.56225538247E+03  0.00000000000E+00 0. -1.
         21   -1    0    0  501  502 -0.00000000000E+00 -0.00000000000E+00 -0.12403796009E+03  0.12403796009E+03  0.00000000000E+00 0. -1.
         25    1    1    2    0    0 -0.17798342124E+02 -0.12464422516E+03  0.15332442951E+03  0.23449167263E+03  0.12500000000E+03 0.  0.
         25    1    1    2    0    0  0.34417136562E+01 -0.35436634205E+02  0.45906241055E+02  0.13784042732E+03  0.12500000000E+03 0.  0.
         25    1    1    2    0    0  0.14356628468E+02  0.16008085936E+03  0.23898675182E+03  0.31396124261E+03  0.12500000000E+03 0.  0.
</event>
<event>
 5    0  0.5720942E-005  0.3014072E+03  0.7546771E-02  0.1084539E+00
         21   -1    0    0  502  501  0.00000000000E+00  0.00000000000E+00  0.56335119135E+02  0.56335119135E+02  0.00000000000E+00 0. -1.
         21   -1    0    0  501  502 -0.00000000000E+00 -0.00000000000E+00 -0.16126053568E+04  0.16126053568E+04  0.00000000000E+00 0. -1.
         25    1    1    2    0    0  0.19160554879E+02 -0.49785670133E+02 -0.10430074908E+03  0.17131662521E+03  0.12500000000E+03 0.  0.
         25    1    1    2    0    0  0.72087052225E+02 -0.68012343932E+02 -0.85550177378E+03  0.87024738263E+03  0.12500000000E+03 0.  0.
         25    1    1    2    0    0 -0.91247607103E+02  0.11779801406E+03 -0.59646771477E+03  0.62737646807E+03  0.12500000000E+03 0.  0.
</event>
<event>
 5    0  0.5720942E-005  0.3312029E+03  0.7546771E-02  0.1070606E+00
         21   -1    0    0  502  501  0.00000000000E+00  0.00000000000E+00  0.13770227171E+03  0.13770227171E+03  0.00000000000E+00 0.  1.
         21   -1    0    0  501  502 -0.00000000000E+00 -0.00000000000E+00 -0.79661278366E+03  0.79661278366E+03  0.00000000000E+00 0.  1.
         25    1    1    2    0    0 -0.42809664071E+02  0.13589313346E+03 -0.66796883085E+02  0.20096376452E+03  0.12500000000E+03 0.  0.
         25    1    1    2    0    0  0.90087194417E+02 -0.22065045667E+03 -0.42627918293E+03  0.50412425891E+03  0.12500000000E+03 0.  0.
         25    1    1    2    0    0 -0.47277530346E+02  0.84757323214E+02 -0.16583444594E+03  0.22922703195E+03  0.12500000000E+03 0.  0.
</event>
<event>
 5    0  0.5720942E-005  0.2029359E+03  0.7546771E-02  0.1147285E+00
         21   -1    0    0  502  501  0.00000000000E+00  0.00000000000E+00  0.61865915877E+03  0.61865915877E+03  0.00000000000E+00 0. -1.
         21   -1    0    0  501  502 -0.00000000000E+00 -0.00000000000E+00 -0.66568145733E+02  0.66568145733E+02  0.00000000000E+00 0. -1.
         25    1    1    2    0    0 -0.69471297310E+00 -0.49133732522E+02  0.13748436277E+03  0.19220186342E+03  0.12500000000E+03 0.  0.
         25    1    1    2    0    0  0.44489989592E+01 -0.12488323986E+02  0.22423151651E+03  0.25706132502E+03  0.12500000000E+03 0.  0.
         25    1    1    2    0    0 -0.37542859861E+01  0.61622056508E+02  0.19037513376E+03  0.23596411605E+03  0.12500000000E+03 0.  0.
</event>
<event>
 5    0  0.5720942E-005  0.2970303E+03  0.7546771E-02  0.1086735E+00
         21   -1    0    0  502  501  0.00000000000E+00  0.00000000000E+00  0.30706056432E+03  0.30706056432E+03  0.00000000000E+00 0. -1.
         21   -1    0    0  501  502 -0.00000000000E+00 -0.00000000000E+00 -0.28732769101E+03  0.28732769101E+03  0.00000000000E+00 0. -1.
         25    1    1    2    0    0 -0.15016803240E+03  0.77500401413E+02 -0.23575889284E+02  0.21151258291E+03  0.12500000000E+03 0.  0.
         25    1    1    2    0    0  0.88572799116E+02  0.28852873203E+02  0.11475535610E+03  0.19357536204E+03  0.12500000000E+03 0.  0.
         25    1    1    2    0    0  0.61595233285E+02 -0.10635327462E+03 -0.71446593502E+02  0.18930031037E+03  0.12500000000E+03 0.  0.
</event>
<event>
 5    0  0.5720942E-005  0.2599634E+03  0.7546771E-02  0.1107165E+00
         21   -1    0    0  502  501  0.00000000000E+00  0.00000000000E+00  0.93746576927E+02  0.93746576927E+02  0.00000000000E+00 0.  1.
         21   -1    0    0  501  502 -0.00000000000E+00 -0.00000000000E+00 -0.72088995184E+03  0.72088995184E+03  0.00000000000E+00 0.  1.
         25    1    1    2    0    0  0.54570288250E+02 -0.31142257877E+02 -0.60184415513E+02  0.15229878678E+03  0.12500000000E+03 0.  0.
         25    1    1    2    0    0  0.34532885677E+01 -0.75212596270E+01 -0.66534031486E+02  0.14184594423E+03  0.12500000000E+03 0.  0.
         25    1    1    2    0    0 -0.58023576817E+02  0.38663517504E+02 -0.50042492792E+03  0.52049179776E+03  0.12500000000E+03 0.  0.
</event>
<event>
 5    0  0.5720942E-005  0.3196472E+03  0.7546771E-02  0.1075812E+00
         21   -1    0    0  502  501  0.00000000000E+00  0.00000000000E+00  0.46595016994E+03  0.46595016994E+03  0.00000000000E+00 0.  1.
         21   -1    0    0  501  502 -0.00000000000E+00 -0.00000000000E+00 -0.21928172467E+03  0.21928172467E+03  0.00000000000E+00 0.  1.
         25    1    1    2    0    0 -0.15241164472E+03  0.44093165414E+02  0.20498718617E+03  0.28778162411E+03  0.12500000000E+03 0.  0.
         25    1    1    2    0    0  0.14134393836E+03 -0.13415141913E+03  0.66800880919E+02  0.24096072265E+03  0.12500000000E+03 0.  0.
         25    1    1    2    0    0  0.11067706354E+02  0.90058253721E+02 -0.25119621816E+02  0.15648954785E+03  0.12500000000E+03 0.  0.
</event>
<event>
 5    0  0.5720942E-005  0.3524428E+03  0.7546771E-02  0.1061617E+00
         21   -1    0    0  502  501  0.00000000000E+00  0.00000000000E+00  0.27713873587E+03  0.27713873587E+03  0.00000000000E+00 0. -1.
         21   -1    0    0  501  502 -0.00000000000E+00 -0.00000000000E+00 -0.44820838122E+03  0.44820838122E+03  0.00000000000E+00 0. -1.
         25    1    1    2    0    0 -0.10173216076E+03  0.22955154121E+03 -0.52471334897E+02  0.28534467507E+03  0.12500000000E+03 0.  0.
         25    1    1    2    0    0  0.88532544138E+02 -0.10691113949E+03 -0.17458466261E+03  0.25568106605E+03  0.12500000000E+03 0.  0.
         25    1    1    2    0    0  0.13199616622E+02 -0.12264040172E+03  0.55986352153E+02  0.18432137597E+03  0.12500000000E+03 0.  0.
</event>
<event>
 5    0  0.6032007E-005  0.2852881E+03  0.7546771E-02  0.1092835E+00
         21   -1    0    0  502  501  0.00000000000E+00  0.00000000000E+00  0.18178913074E+03  0.18178913074E+03  0.00000000000E+00 0. -1.
         21   -1    0    0  501  502 -0.00000000000E+00 -0.00000000000E+00 -0.44771257643E+03  0.44771257643E+03  0.00000000000E+00 0. -1.
         25    1    1    2    0    0  0.65306395640E+02 -0.51741315707E+02 -0.12339595631E+03  0.19440589265E+03  0.12500000000E+03 0.  0.
         25    1    1    2    0    0 -0.12479074481E+03  0.14899731827E+03 -0.13074889528E+03  0.26550556389E+03  0.12500000000E+03 0.  0.
         25    1    1    2    0    0  0.59484349174E+02 -0.97256002562E+02 -0.11778594109E+02  0.16959025063E+03  0.12500000000E+03 0.  0.
</event>
<event>
 5    0  0.5720942E-005  0.4450984E+03  0.7546771E-02  0.1029194E+00
         21   -1    0    0  502  501  0.00000000000E+00  0.00000000000E+00  0.29251672753E+04  0.29251672753E+04  0.00000000000E+00 0.  1.
         21   -1    0    0  501  502 -0.00000000000E+00 -0.00000000000E+00 -0.67726926300E+02  0.67726926300E+02  0.00000000000E+00 0.  1.
         25    1    1    2    0    0 -0.29007325725E+03  0.13409261846E+03  0.19245061454E+04  0.19548586212E+04  0.12500000000E+03 0.  0.
         25    1    1    2    0    0  0.51123529107E+02 -0.87854895896E+02  0.20739167465E+03  0.26261836317E+03  0.12500000000E+03 0.  0.
         25    1    1    2    0    0  0.23894972815E+03 -0.46237722568E+02  0.72554252888E+03  0.77541721723E+03  0.12500000000E+03 0.  0.
</event>
<event>
 5    0  0.5720942E-005  0.2885186E+03  0.7546771E-02  0.1091125E+00
         21   -1    0    0  502  501  0.00000000000E+00  0.00000000000E+00  0.96792492757E+02  0.96792492757E+02  0.00000000000E+00 0. -1.
         21   -1    0    0  501  502 -0.00000000000E+00 -0.00000000000E+00 -0.86001481957E+03  0.86001481957E+03  0.00000000000E+00 0. -1.
         25    1    1    2    0    0 -0.18655680183E+03 -0.46871445218E+01 -0.27209330432E+03  0.35282456814E+03  0.12500000000E+03 0.  0.
         25    1    1    2    0    0  0.65249669980E+02  0.78345197973E+02 -0.20216203446E+03  0.25863096809E+03  0.12500000000E+03 0.  0.
         25    1    1    2    0    0  0.12130713185E+03 -0.73658053451E+02 -0.28896698804E+03  0.34535177610E+03  0.12500000000E+03 0.  0.
</event>
<event>
 5    0  0.5720942E-005  0.3931124E+03  0.7546771E-02  0.1046191E+00
         21   -1    0    0  502  501  0.00000000000E+00  0.00000000000E+00  0.10226893319E+03  0.10226893319E+03  0.00000000000E+00 0. -1.
         21   -1    0    0  501  502 -0.00000000000E+00 -0.00000000000E+00 -0.15110876831E+04  0.15110876831E+04  0.00000000000E+00 0. -1.
         25    1    1    2    0    0 -0.10412185071E+03  0.81123121529E+02 -0.43826867346E+02  0.18699763353E+03  0.12500000000E+03 0.  0.
         25    1    1    2    0    0  0.13640171191E+03  0.75386389330E+02 -0.84239253032E+03  0.86575903683E+03  0.12500000000E+03 0.  0.
         25    1    1    2    0    0 -0.32279861199E+02 -0.15650951086E+03 -0.52259935229E+03  0.56059994599E+03  0.12500000000E+03 0.  0.
</event>
<event>
 5    0  0.5720942E-005  0.2162341E+03  0.7546771E-02  0.1136722E+00
         21   -1    0    0  502  501  0.00000000000E+00  0.00000000000E+00  0.11640279146E+03  0.11640279146E+03  0.00000000000E+00 0. -1.
         21   -1    0    0  501  502 -0.00000000000E+00 -0.00000000000E+00 -0.40168446886E+03  0.40168446886E+03  0.00000000000E+00 0. -1.
         25    1    1    2    0    0 -0.24608415489E+02 -0.75594852974E+02 -0.10021429108E+03  0.17885206190E+03  0.12500000000E+03 0.  0.
         25    1    1    2    0    0  0.61277094182E+02  0.52806464729E+02 -0.72671579158E+02  0.16567909767E+03  0.12500000000E+03 0.  0.
         25    1    1    2    0    0 -0.36668678694E+02  0.22788388245E+02 -0.11239580716E+03  0.17355610074E+03  0.12500000000E+03 0.  0.
</event>
<event>
 5    0  0.5720942E-005  0.2758630E+03  0.7546771E-02  0.1097970E+00
         21   -1    0    0  502  501  0.00000000000E+00  0.00000000000E+00  0.18935448904E+03  0.18935448904E+03  0.00000000000E+00 0. -1.
         21   -1    0    0  501  502 -0.00000000000E+00 -0.00000000000E+00 -0.40189389696E+03  0.40189389696E+03  0.00000000000E+00 0. -1.
         25    1    1    2    0    0  0.11360492581E+00  0.12168093507E+03 -0.12529023027E+03  0.21477640622E+03  0.12500000000E+03 0.  0.
         25    1    1    2    0    0 -0.56511186291E+02 -0.12696447547E+03  0.37921948649E+02  0.19072641767E+03  0.12500000000E+03 0.  0.
         25    1    1    2    0    0  0.56397581365E+02  0.52835404035E+01 -0.12517112630E+03  0.18574556211E+03  0.12500000000E+03 0.  0.
</event>
<event>
 5    0  0.5720942E-005  0.4781098E+03  0.7546771E-02  0.1019656E+00
         21   -1    0    0  502  501  0.00000000000E+00  0.00000000000E+00  0.16605309487E+04  0.16605309487E+04  0.00000000000E+00 0.  1.
         21   -1    0    0  501  502 -0.00000000000E+00 -0.00000000000E+00 -0.13766015367E+03  0.13766015367E+03  0.00000000000E+00 0.  1.
         25    1    1    2    0    0  0.47952112879E+02 -0.77834864254E+02  0.73329748726E+03  0.74947173131E+03  0.12500000000E+03 0.  0.
         25    1    1    2    0    0  0.23065999515E+03  0.13756174667E+03  0.13827839683E+03  0.32691464106E+03  0.12500000000E+03 0.  0.
         25    1    1    2    0    0 -0.27861210803E+03 -0.59726882413E+02  0.65129491095E+03  0.72180473000E+03  0.12500000000E+03 0.  0.
</event>
<event>
 5    0  0.5720942E-005  0.2407521E+03  0.7546771E-02  0.1119293E+00
         21   -1    0    0  502  501  0.00000000000E+00  0.00000000000E+00  0.19813525108E+03  0.19813525108E+03  0.00000000000E+00 0. -1.
         21   -1    0    0  501  502 -0.00000000000E+00 -0.00000000000E+00 -0.29253531466E+03  0.29253531466E+03  0.00000000000E+00 0. -1.
         25    1    1    2    0    0 -0.73661934406E+02 -0.61378691840E+02 -0.21363938639E+02  0.15898063488E+03  0.12500000000E+03 0.  0.
         25    1    1    2    0    0  0.61307373546E+02  0.10377591209E+03  0.12212044976E+02  0.17407517923E+03  0.12500000000E+03 0.  0.
         25    1    1    2    0    0  0.12354560860E+02 -0.42397220253E+02 -0.85248169911E+02  0.15761475163E+03  0.12500000000E+03 0.  0.
</event>
<event>
 5    0  0.5720942E-005  0.4853306E+03  0.7546771E-02  0.1017680E+00
         21   -1    0    0  502  501  0.00000000000E+00  0.00000000000E+00  0.93632318266E+02  0.93632318266E+02  0.00000000000E+00 0.  1.
         21   -1    0    0  501  502 -0.00000000000E+00 -0.00000000000E+00 -0.25156462598E+04  0.25156462598E+04  0.00000000000E+00 0.  1.
         25    1    1    2    0    0 -0.11378813426E+03  0.69696292596E+02 -0.31236170934E+03  0.36193942886E+03  0.12500000000E+03 0.  0.
         25    1    1    2    0    0 -0.13820541413E+03 -0.30042655577E+03 -0.14655720525E+04  0.15076084680E+04  0.12500000000E+03 0.  0.
         25    1    1    2    0    0  0.25199354839E+03  0.23073026317E+03 -0.64408017979E+03  0.73973068124E+03  0.12500000000E+03 0.  0.
</event>
<event>
 5    0  0.5720942E-005  0.2995947E+03  0.7546771E-02  0.1085443E+00
         21   -1    0    0  502  501  0.00000000000E+00  0.00000000000E+00  0.12885547577E+04  0.12885547577E+04  0.00000000000E+00 0.  1.
         21   -1    0    0  501  502 -0.00000000000E+00 -0.00000000000E+00 -0.69657091301E+02  0.69657091301E+02  0.00000000000E+00 0.  1.
         25    1    1    2    0    0  0.11611596099E+03  0.16999358246E+03  0.54041325760E+03  0.59165211355E+03  0.12500000000E+03 0.  0.
         25    1    1    2    0    0 -0.85879402667E+02 -0.12654861922E+02  0.32395502511E+03  0.35792076725E+03  0.12500000000E+03 0.  0.
         25    1    1    2    0    0 -0.30236558318E+02 -0.15733872054E+03  0.35452938370E+03  0.40863896822E+03  0.12500000000E+03 0.  0.
</event>
<event>
 5    0  0.5720942E-005  0.2898544E+03  0.7546771E-02  0.1090425E+00
         21   -1    0    0  502  501  0.00000000000E+00  0.00000000000E+00  0.18080356829E+03  0.18080356829E+03  0.00000000000E+00 0.  1.
         21   -1    0    0  501  502 -0.00000000000E+00 -0.00000000000E+00 -0.46467876937E+03  0.46467876937E+03  0.00000000000E+00 0.  1.
         25    1    1    2    0    0  0.53562482406E+02 -0.98570505316E+02  0.70502804323E+02  0.18215578349E+03  0.12500000000E+03 0.  0.
         25    1    1    2    0    0  0.17640984350E+02  0.69633216947E+02 -0.22753336968E+03  0.26936299588E+03  0.12500000000E+03 0.  0.
         25    1    1    2    0    0 -0.71203466756E+02  0.28937288369E+02 -0.12684463571E+03  0.19396355829E+03  0.12500000000E+03 0.  0.
</event>
<event>
 5    0  0.5720942E-005  0.2582360E+03  0.7546771E-02  0.1108208E+00
         21   -1    0    0  502  501  0.00000000000E+00  0.00000000000E+00  0.87594825429E+03  0.87594825429E+03  0.00000000000E+00 0.  1.
         21   -1    0    0  501  502 -0.00000000000E+00 -0.00000000000E+00 -0.76129880849E+02  0.76129880849E+02  0.00000000000E+00 0.  1.
         25    1    1    2    0    0  0.63952098262E+02 -0.12222268428E+03  0.36061189866E+03  0.40582532804E+03  0.12500000000E+03 0.  0.
         25    1    1    2    0    0 -0.70534054262E+02  0.64005371753E+02  0.34504705327E+03  0.37914932335E+03  0.12500000000E+03 0.  0.
         25    1    1    2    0    0  0.65819560001E+01  0.58217312525E+02  0.94159421508E+02  0.16710348375E+03  0.12500000000E+03 0.  0.
</event>
<event>
 5    0  0.5720942E-005  0.2651388E+03  0.7546771E-02  0.1104094E+00
         21   -1    0    0  502  501  0.00000000000E+00  0.00000000000E+00  0.59968612872E+03  0.59968612872E+03  0.00000000000E+00 0.  1.
         21   -1    0    0  501  502 -0.00000000000E+00 -0.00000000000E+00 -0.11722564212E+03  0.11722564212E+03  0.00000000000E+00 0. -1.
         25    1    1    2    0    0 -0.38706999473E+02  0.43431623355E+02  0.15189837113E+03  0.20514056855E+03  0.12500000000E+03 0.  0.
         25    1    1    2    0    0  0.80928035663E+02  0.11201939949E+03  0.17020754669E+03  0.25237531926E+03  0.12500000000E+03 0.  0.
         25    1    1    2    0    0 -0.42221036190E+02 -0.15545102285E+03  0.16035456879E+03  0.25939588303E+03  0.12500000000E+03 0.  0.
</event>
<event>
 5    0  0.5720942E-005  0.2861702E+03  0.7546771E-02  0.1092366E+00
         21   -1    0    0  502  501  0.00000000000E+00  0.00000000000E+00  0.74161291262E+03  0.74161291262E+03  0.00000000000E+00 0.  1.
         21   -1    0    0  501  502 -0.00000000000E+00 -0.00000000000E+00 -0.11042601236E+03  0.11042601236E+03  0.00000000000E+00 0.  1.
         25    1    1    2    0    0  0.16021324948E+03 -0.11686934984E+03  0.17512522697E+03  0.29260993722E+03  0.12500000000E+03 0.  0.
         25    1    1    2    0    0 -0.95152078900E+02  0.67010963521E+02  0.20068713197E+03  0.26352364655E+03  0.12500000000E+03 0.  0.
         25    1    1    2    0    0 -0.65061170578E+02  0.49858386320E+02  0.25537454132E+03  0.29590534121E+03  0.12500000000E+03 0.  0.
</event>
<event>
 5    0  0.5720942E-005  0.4696184E+03  0.7546771E-02  0.1022028E+00
         21   -1    0    0  502  501  0.00000000000E+00  0.00000000000E+00  0.17031745932E+03  0.17031745932E+03  0.00000000000E+00 0. -1.
         21   -1    0    0  501  502 -0.00000000000E+00 -0.00000000000E+00 -0.12948842456E+04  0.12948842456E+04  0.00000000000E+00 0. -1.
         25    1    1    2    0    0 -0.16592903934E+03 -0.12817628946E+03 -0.32337770863E+03  0.40516632352E+03  0.12500000000E+03 0.  0.
         25    1    1    2    0    0 -0.20412271490E+03  0.13449978089E+03 -0.48559011096E+03  0.55783423135E+03  0.12500000000E+03 0.  0.
         25    1    1    2    0    0  0.37005175424E+03 -0.63234914348E+01 -0.31559896673E+03  0.50220115010E+03  0.12500000000E+03 0.  0.
</event>
<event>
 5    0  0.5720942E-005  0.2560765E+03  0.7546771E-02  0.1109524E+00
         21   -1    0    0  502  501  0.00000000000E+00  0.00000000000E+00  0.82523249622E+03  0.82523249622E+03  0.00000000000E+00 0. -1.
         21   -1    0    0  501  502 -0.00000000000E+00 -0.00000000000E+00 -0.79462680527E+02  0.79462680527E+02  0.00000000000E+00 0. -1.
         25    1    1    2    0    0 -0.54529801409E+02  0.66679748777E+02  0.98501221035E+02  0.18096181554E+03  0.12500000000E+03 0.  0.
         25    1    1    2    0    0  0.39135547745E+01 -0.36713433874E+02  0.51935360095E+03  0.53545901333E+03  0.12500000000E+03 0.  0.
         25    1    1    2    0    0  0.50616246635E+02 -0.29966314904E+02  0.12791499371E+03  0.18827434788E+03  0.12500000000E+03 0.  0.
</event>
<event>
 5    0  0.5720942E-005  0.2531226E+03  0.7546771E-02  0.1111347E+00
         21   -1    0    0  502  501  0.00000000000E+00  0.00000000000E+00  0.78717344558E+02  0.78717344558E+02  0.00000000000E+00 0.  1.
         21   -1    0    0  501  502 -0.00000000000E+00 -0.00000000000E+00 -0.81393797668E+03  0.81393797668E+03  0.00000000000E+00 0.  1.
         25    1    1    2    0    0 -0.48596232966E+02 -0.25630119786E+02 -0.97468039072E+02  0.16776029190E+03  0.12500000000E+03 0.  0.
         25    1    1    2    0    0 -0.34780869624E+02  0.46657735677E+02 -0.11184977381E+03  0.17754443132E+03  0.12500000000E+03 0.  0.
         25    1    1    2    0    0  0.83377102590E+02 -0.21027615891E+02 -0.52590281924E+03  0.54735059801E+03  0.12500000000E+03 0.  0.
</event>
<event>
 5    0  0.5720942E-005  0.2961262E+03  0.7546771E-02  0.1087193E+00
         21   -1    0    0  502  501  0.00000000000E+00  0.00000000000E+00  0.10953235957E+04  0.10953235957E+04  0.00000000000E+00 0.  1.
         21   -1    0    0  501  502 -0.00000000000E+00 -0.00000000000E+00 -0.80059194009E+02  0.80059194009E+02  0.00000000000E+00 0.  1.
         25    1    1    2    0    0 -0.10425309375E+03 -0.11775877388E+02  0.60320695194E+03  0.62489279538E+03  0.12500000000E+03 0.  0.
         25    1    1    2    0    0 -0.70573446454E+02  0.27204961650E+02  0.20436290918E+03  0.25121687828E+03  0.12500000000E+03 0.  0.
         25    1    1    2    0    0  0.17482654021E+03 -0.15429084262E+02  0.20769454052E+03  0.29927311601E+03  0.12500000000E+03 0.  0.
</event>
<event>
 5    0  0.5720942E-005  0.3523618E+03  0.7546771E-02  0.1061650E+00
         21   -1    0    0  502  501  0.00000000000E+00  0.00000000000E+00  0.38820646234E+03  0.38820646234E+03  0.00000000000E+00 0. -1.
         21   -1    0    0  501  502 -0.00000000000E+00 -0.00000000000E+00 -0.31982689681E+03  0.31982689681E+03  0.00000000000E+00 0. -1.
         25    1    1    2    0    0 -0.49158148266E+02  0.24157141862E+03  0.28220039348E+02  0.27783924211E+03  0.12500000000E+03 0.  0.
         25    1    1    2    0    0  0.16028284433E+02  0.24970816494E+02  0.37837203476E+02  0.13392946481E+03  0.12500000000E+03 0.  0.
         25    1    1    2    0    0  0.33129863833E+02 -0.26654223511E+03  0.23223227085E+01  0.29626465223E+03  0.12500000000E+03 0.  0.
</event>
<event>
 5    0  0.5720942E-005  0.2566538E+03  0.7546771E-02  0.1109170E+00
         21   -1    0    0  502  501  0.00000000000E+00  0.00000000000E+00  0.38509929226E+03  0.38509929226E+03  0.00000000000E+00 0. -1.
         21   -1    0    0  501  502 -0.00000000000E+00 -0.00000000000E+00 -0.17104990294E+03  0.17104990294E+03  0.00000000000E+00 0. -1.
         25    1    1    2    0    0 -0.18905053589E+02  0.28971669455E+02  0.11352038182E+03  0.17236193248E+03  0.12500000000E+03 0.  0.
         25    1    1    2    0    0 -0.61789052939E+02  0.85693503134E+02  0.10750588532E+03  0.19581567588E+03  0.12500000000E+03 0.  0.
         25    1    1    2    0    0  0.80694106528E+02 -0.11466517259E+03 -0.69768778173E+01  0.18797158683E+03  0.12500000000E+03 0.  0.
</event>
<event>
 5    0  0.5720942E-005  0.2346853E+03  0.7546771E-02  0.1123385E+00
         21   -1    0    0  502  501  0.00000000000E+00  0.00000000000E+00  0.20157183870E+03  0.20157183870E+03  0.00000000000E+00 0. -1.
         21   -1    0    0  501  502 -0.00000000000E+00 -0.00000000000E+00 -0.27323859466E+03  0.27323859466E+03  0.00000000000E+00 0. -1.
         25    1    1    2    0    0  0.19203774712E+02  0.44622011601E+02 -0.84925551756E+02  0.15873644265E+03  0.12500000000E+03 0.  0.
         25    1    1    2    0    0 -0.14389315477E+01  0.37236419720E+02  0.78316165286E+02  0.15214152366E+03  0.12500000000E+03 0.  0.
         25    1    1    2    0    0 -0.17764843164E+02 -0.81858431321E+02 -0.65057369488E+02  0.16393246706E+03  0.12500000000E+03 0.  0.
</event>
<event>
 5    0  0.5720942E-005  0.3370564E+03  0.7546771E-02  0.1068057E+00
         21   -1    0    0  502  501  0.00000000000E+00  0.00000000000E+00  0.22846413800E+03  0.22846413800E+03  0.00000000000E+00 0.  1.
         21   -1    0    0  501  502 -0.00000000000E+00 -0.00000000000E+00 -0.49726415550E+03  0.49726415550E+03  0.00000000000E+00 0.  1.
         25    1    1    2    0    0  0.92208053658E+02 -0.46883970037E+02 -0.22365177626E+03  0.27630698295E+03  0.12500000000E+03 0.  0.
         25    1    1    2    0    0  0.10423578781E+03  0.92682033949E+02  0.49838128301E+02  0.19381408078E+03  0.12500000000E+03 0.  0.
         25    1    1    2    0    0 -0.19644384147E+03 -0.45798063912E+02 -0.94986369540E+02  0.25560722976E+03  0.12500000000E+03 0.  0.
</event>
<event>
 5    0  0.5720942E-005  0.3466191E+03  0.7546771E-02  0.1064011E+00
         21   -1    0    0  502  501  0.00000000000E+00  0.00000000000E+00  0.12768421250E+04  0.12768421250E+04  0.00000000000E+00 0.  1.
         21   -1    0    0  501  502 -0.00000000000E+00 -0.00000000000E+00 -0.94095275769E+02  0.94095275769E+02  0.00000000000E+00 0.  1.
         25    1    1    2    0    0 -0.94117581718E+02  0.41372321893E+02  0.73342280817E+03  0.75106844145E+03  0.12500000000E+03 0.  0.
         25    1    1    2    0    0 -0.50244034620E+02  0.95119218444E+02  0.82563764609E+02  0.18442858769E+03  0.12500000000E+03 0.  0.
         25    1    1    2    0    0  0.14436161634E+03 -0.13649154034E+03  0.36676027647E+03  0.43544037164E+03  0.12500000000E+03 0.  0.
</event>
<event>
 5    0  0.5720942E-005  0.4931282E+03  0.7546771E-02  0.1015588E+00
         21   -1    0    0  502  501  0.00000000000E+00  0.00000000000E+00  0.76865298401E+03  0.76865298401E+03  0.00000000000E+00 0.  1.
         21   -1    0    0  501  502 -0.00000000000E+00 -0.00000000000E+00 -0.31636568440E+03  0.31636568440E+03  0.00000000000E+00 0.  1.
         25    1    1    2    0    0 -0.36383484606E+03 -0.46386481036E+02  0.41094661090E+02  0.38966815625E+03  0.12500000000E+03 0.  0.
         25    1    1    2    0    0  0.10212406589E+03  0.59795188700E+01 -0.31503680295E+02  0.16456780169E+03  0.12500000000E+03 0.  0.
         25    1    1    2    0    0  0.26171078016E+03  0.40406962166E+02  0.44269631882E+03  0.53078271047E+03  0.12500000000E+03 0.  0.
</event>
<event>
 5    0  0.5720942E-005  0.4035525E+03  0.7546771E-02  0.1042556E+00
         21   -1    0    0  502  501  0.00000000000E+00  0.00000000000E+00  0.19686754672E+04  0.19686754672E+04  0.00000000000E+00 0.  1.
         21   -1    0    0  501  502 -0.00000000000E+00 -0.00000000000E+00 -0.82722928781E+02  0.82722928781E+02  0.00000000000E+00 0.  1.
         25    1    1    2    0    0  0.25062826899E+03  0.76619306285E+01  0.11157501969E+04  0.11503898193E+04  0.12500000000E+03 0.  0.
         25    1    1    2    0    0 -0.16922823173E+03  0.13254238820E+03  0.52981487515E+03  0.58526445392E+03  0.12500000000E+03 0.  0.
         25    1    1    2    0    0 -0.81400037257E+02 -0.14020431883E+03  0.24038746632E+03  0.31574412274E+03  0.12500000000E+03 0.  0.
</event>
<event>
 5    0  0.5720942E-005  0.4174949E+03  0.7546771E-02  0.1037885E+00
         21   -1    0    0  502  501  0.00000000000E+00  0.00000000000E+00  0.21794641219E+04  0.21794641219E+04  0.00000000000E+00 0.  1.
         21   -1    0    0  501  502 -0.00000000000E+00 -0.00000000000E+00 -0.79974700177E+02  0.79974700177E+02  0.00000000000E+00 0.  1.
         25    1    1    2    0    0 -0.15427501592E+03 -0.37879102762E+02  0.89001708790E+02  0.22086627431E+03  0.12500000000E+03 0.  0.
         25    1    1    2    0    0  0.92023560915E+02 -0.55989077157E+02  0.11512166587E+04  0.11629823334E+04  0.12500000000E+03 0.  0.
         25    1    1    2    0    0  0.62251455001E+02  0.93868179919E+02  0.85927105422E+03  0.87559021436E+03  0.12500000000E+03 0.  0.
</event>
<event>
 5    0  0.5720942E-005  0.2974661E+03  0.7546771E-02  0.1086514E+00
         21   -1    0    0  502  501  0.00000000000E+00  0.00000000000E+00  0.56242438647E+03  0.56242438647E+03  0.00000000000E+00 0. -1.
         21   -1    0    0  501  502 -0.00000000000E+00 -0.00000000000E+00 -0.15732968906E+03  0.15732968906E+03  0.00000000000E+00 0. -1.
         25    1    1    2    0    0  0.50335695932E+02 -0.13497548706E+03  0.14025040609E+03  0.23674298469E+03  0.12500000000E+03 0.  0.
         25    1    1    2    0    0 -0.13378172522E+03  0.54771163760E+02  0.30864227849E+02  0.19358468675E+03  0.12500000000E+03 0.  0.
         25    1    1    2    0    0  0.83446029288E+02  0.80204323296E+02  0.23398006348E+03  0.28942640409E+03  0.12500000000E+03 0.  0.
</event>
<event>
 5    0  0.5720942E-005  0.3064228E+03  0.7546771E-02  0.1082073E+00
         21   -1    0    0  502  501  0.00000000000E+00  0.00000000000E+00  0.37566400859E+03  0.37566400859E+03  0.00000000000E+00 0.  1.
         21   -1    0    0  501  502 -0.00000000000E+00 -0.00000000000E+00 -0.24994395165E+03  0.24994395165E+03  0.00000000000E+00 0.  1.
         25    1    1    2    0    0 -0.44590576436E+02  0.55566163198E+02  0.20356964423E+03  0.24928200507E+03  0.12500000000E+03 0.  0.
         25    1    1    2    0    0  0.29264150902E+02 -0.39813277402E+01 -0.16919227696E+03  0.21242238131E+03  0.12500000000E+03 0.  0.
         25    1    1    2    0    0  0.15326425533E+02 -0.51584835457E+02  0.91342689662E+02  0.16390357386E+03  0.12500000000E+03 0.  0.
</event>
<event>
 5    0  0.5720942E-005  0.3073330E+03  0.7546771E-02  0.1081631E+00
         21   -1    0    0  502  501  0.00000000000E+00  0.00000000000E+00  0.36905274480E+03  0.36905274480E+03  0.00000000000E+00 0.  1.
         21   -1    0    0  501  502 -0.00000000000E+00 -0.00000000000E+00 -0.25593524145E+03  0.25593524145E+03  0.00000000000E+00 0.  1.
         25    1    1    2    0    0 -0.76353283901E+01 -0.33464228413E+02  0.18561009004E+03  0.22639403337E+03  0.12500000000E+03 0.  0.
         25    1    1    2    0    0  0.21415703074E+02  0.16506627549E+03 -0.57470939964E+02  0.21594771724E+03  0.12500000000E+03 0.  0.
         25    1    1    2    0    0 -0.13780374684E+02 -0.13160204707E+03 -0.15021646718E+02  0.18264623563E+03  0.12500000000E+03 0.  0.
</event>
<event>
 5    0  0.6102609E-005  0.3171717E+03  0.7546771E-02  0.1076958E+00
         21   -1    0    0  502  501  0.00000000000E+00  0.00000000000E+00  0.29090682278E+03  0.29090682278E+03  0.00000000000E+00 0.  1.
         21   -1    0    0  501  502 -0.00000000000E+00 -0.00000000000E+00 -0.34580790492E+03  0.34580790492E+03  0.00000000000E+00 0.  1.
         25    1    1    2    0    0 -0.71260301223E+01  0.72725609953E+02  0.42268030992E+02  0.15083560950E+03  0.12500000000E+03 0.  0.
         25    1    1    2    0    0  0.20729063113E+02 -0.20061030343E+03  0.62922126101E+02  0.24547582743E+03  0.12500000000E+03 0.  0.
         25    1    1    2    0    0 -0.13603032991E+02  0.12788469348E+03 -0.16009123923E+03  0.24040329077E+03  0.12500000000E+03 0.  0.
</event>
<event>
 5    0  0.5720942E-005  0.2529912E+03  0.7546771E-02  0.1111429E+00
         21   -1    0    0  502  501  0.00000000000E+00  0.00000000000E+00  0.15663006716E+03  0.15663006716E+03  0.00000000000E+00 0.  1.
         21   -1    0    0  501  502 -0.00000000000E+00 -0.00000000000E+00 -0.40863522679E+03  0.40863522679E+03  0.00000000000E+00 0.  1.
         25    1    1    2    0    0  0.49185195763E+02  0.10920716117E+03 -0.72572289909E+02  0.18771554223E+03  0.12500000000E+03 0.  0.
         25    1    1    2    0    0 -0.22962227095E+02  0.42330811918E+02 -0.75508463779E+02  0.15377155008E+03  0.12500000000E+03 0.  0.
         25    1    1    2    0    0 -0.26222968668E+02 -0.15153797309E+03 -0.10392440594E+03  0.22377820163E+03  0.12500000000E+03 0.  0.
</event>
<event>
 5    0  0.5720942E-005  0.4759996E+03  0.7546771E-02  0.1020240E+00
         21   -1    0    0  502  501  0.00000000000E+00  0.00000000000E+00  0.25121286683E+03  0.25121286683E+03  0.00000000000E+00 0.  1.
         21   -1    0    0  501  502 -0.00000000000E+00 -0.00000000000E+00 -0.90192687036E+03  0.90192687036E+03  0.00000000000E+00 0.  1.
         25    1    1    2    0    0 -0.13715148370E+03 -0.26758966741E+03 -0.16177095525E+03  0.36360638271E+03  0.12500000000E+03 0.  0.
         25    1    1    2    0    0  0.92198367341E+02  0.39337323524E+03 -0.25991765773E+03  0.49641235878E+03  0.12500000000E+03 0.  0.
         25    1    1    2    0    0  0.44953116358E+02 -0.12578356783E+03 -0.22902539054E+03  0.29312099570E+03  0.12500000000E+03 0.  0.
</event>
<event>
 5    0  0.5720942E-005  0.3567548E+03  0.7546771E-02  0.1059876E+00
         21   -1    0    0  502  501  0.00000000000E+00  0.00000000000E+00  0.21191373702E+03  0.21191373702E+03  0.00000000000E+00 0. -1.
         21   -1    0    0  501  502 -0.00000000000E+00 -0.00000000000E+00 -0.60059331940E+03  0.60059331940E+03  0.00000000000E+00 0. -1.
         25    1    1    2    0    0 -0.21868381577E+03 -0.52745357952E+01 -0.15098444957E+03  0.29372050664E+03  0.12500000000E+03 0.  0.
         25    1    1    2    0    0  0.25122879194E+03 -0.23220817594E+02 -0.45119141243E+02  0.28515933998E+03  0.12500000000E+03 0.  0.
         25    1    1    2    0    0 -0.32544976175E+02  0.28495353389E+02 -0.19257599156E+03  0.23362720981E+03  0.12500000000E+03 0.  0.
</event>
<event>
 5    0  0.5720942E-005  0.2626903E+03  0.7546771E-02  0.1105538E+00
         21   -1    0    0  502  501  0.00000000000E+00  0.00000000000E+00  0.23935092527E+03  0.23935092527E+03  0.00000000000E+00 0.  1.
         21   -1    0    0  501  502 -0.00000000000E+00 -0.00000000000E+00 -0.28830561739E+03  0.28830561739E+03  0.00000000000E+00 0.  1.
         25    1    1    2    0    0 -0.71604028504E+02  0.92758349115E+02 -0.34782879710E+02  0.17483162457E+03  0.12500000000E+03 0.  0.
         25    1    1    2    0    0 -0.37280447925E+02 -0.11891249111E+02  0.71751910966E+02  0.14934714704E+03  0.12500000000E+03 0.  0.
         25    1    1    2    0    0  0.10888447643E+03 -0.80867100004E+02 -0.85923723376E+02  0.20347777104E+03  0.12500000000E+03 0.  0.
</event>
<event>
 5    0  0.5720942E-005  0.4368874E+03  0.7546771E-02  0.1031706E+00
         21   -1    0    0  502  501  0.00000000000E+00  0.00000000000E+00  0.10945273213E+04  0.10945273213E+04  0.00000000000E+00 0. -1.
         21   -1    0    0  501  502 -0.00000000000E+00 -0.00000000000E+00 -0.17438630478E+03  0.17438630478E+03  0.00000000000E+00 0. -1.
         25    1    1    2    0    0 -0.46571875826E+02  0.34947539030E+03  0.55676942874E+03  0.67076015447E+03  0.12500000000E+03 0.  0.
         25    1    1    2    0    0  0.49170329360E+02 -0.31464128583E+03  0.23119358831E+03  0.41290717518E+03  0.12500000000E+03 0.  0.
         25    1    1    2    0    0 -0.25984535348E+01 -0.34834104473E+02  0.13217799946E+03  0.18524629642E+03  0.12500000000E+03 0.  0.
</event>
<event>
 5    0  0.5720942E-005  0.3591995E+03  0.7546771E-02  0.1058901E+00
         21   -1    0    0  502  501  0.00000000000E+00  0.00000000000E+00  0.11117562809E+04  0.11117562809E+04  0.00000000000E+00 0.  1.
         21   -1    0    0  501  502 -0.00000000000E+00 -0.00000000000E+00 -0.11605445050E+03  0.11605445050E+03  0.00000000000E+00 0.  1.
         25    1    1    2    0    0  0.13972019980E+03 -0.43527502995E+02  0.58564889277E+02  0.20117461073E+03  0.12500000000E+03 0.  0.
         25    1    1    2    0    0 -0.16578731656E+03  0.29419359568E+01  0.82855153919E+03  0.85417606055E+03  0.12500000000E+03 0.  0.
         25    1    1    2    0    0  0.26067116766E+02  0.40585567038E+02  0.10858540195E+03  0.17246006015E+03  0.12500000000E+03 0.  0.
</event>
<event>
 5    0  0.5720942E-005  0.3037060E+03  0.7546771E-02  0.1083403E+00
         21   -1    0    0  502  501  0.00000000000E+00  0.00000000000E+00  0.15829766630E+03  0.15829766630E+03  0.00000000000E+00 0. -1.
         21   -1    0    0  501  502 -0.00000000000E+00 -0.00000000000E+00 -0.58268276502E+03  0.58268276502E+03  0.00000000000E+00 0. -1.
         25    1    1    2    0    0  0.59896710666E+02 -0.99783318602E+02  0.55745692261E+01  0.17088125246E+03  0.12500000000E+03 0.  0.
         25    1    1    2    0    0  0.90453865805E+02 -0.66728984960E+00 -0.18757747176E+03  0.24288403617E+03  0.12500000000E+03 0.  0.
         25    1    1    2    0    0 -0.15035057647E+03  0.10045060845E+03 -0.24238219618E+03  0.32721514270E+03  0.12500000000E+03 0.  0.
</event>
<event>
 5    0  0.5720942E-005  0.4161222E+03  0.7546771E-02  0.1038336E+00
         21   -1    0    0  502  501  0.00000000000E+00  0.00000000000E+00  0.60785081862E+03  0.60785081862E+03  0.00000000000E+00 0. -1.
         21   -1    0    0  501  502 -0.00000000000E+00 -0.00000000000E+00 -0.28486872953E+03  0.28486872953E+03  0.00000000000E+00 0. -1.
         25    1    1    2    0    0  0.21784246272E+03  0.36483063981E+02  0.37296359718E+03  0.45112437015E+03  0.12500000000E+03 0.  0.
         25    1    1    2    0    0 -0.18654925499E+03  0.90003601755E+02 -0.87344208786E+02  0.25720669446E+03  0.12500000000E+03 0.  0.
         25    1    1    2    0    0 -0.31293207727E+02 -0.12648666574E+03  0.37362700692E+02  0.18438848354E+03  0.12500000000E+03 0.  0.
</event>
<event>
 5    0  0.5720942E-005  0.2461190E+03  0.7546771E-02  0.1115782E+00
         21   -1    0    0  502  501  0.00000000000E+00  0.00000000000E+00  0.23579386343E+03  0.23579386343E+03  0.00000000000E+00 0.  1.
         21   -1    0    0  501  502 -0.00000000000E+00 -0.00000000000E+00 -0.25689617940E+03  0.25689617940E+03  0.00000000000E+00 0.  1.
         25    1    1    2    0    0  0.18197014461E+02 -0.60078863482E+01  0.15687557801E+01  0.12647010330E+03  0.12500000000E+03 0.  0.
         25    1    1    2    0    0  0.88442771687E+01 -0.31532868541E+02  0.11616611230E+03  0.17375876578E+03  0.12500000000E+03 0.  0.
         25    1    1    2    0    0 -0.27041291630E+02  0.37540754889E+02 -0.13883718404E+03  0.19246117376E+03  0.12500000000E+03 0.  0.
</event>
<event>
 5    0  0.5720942E-005  0.2531808E+03  0.7546771E-02  0.1111311E+00
         21   -1    0    0  502  501  0.00000000000E+00  0.00000000000E+00  0.49254170775E+02  0.49254170775E+02  0.00000000000E+00 0. -1.
         21   -1    0    0  501  502 -0.00000000000E+00 -0.00000000000E+00 -0.13014228061E+04  0.13014228061E+04  0.00000000000E+00 0. -1.
         25    1    1    2    0    0  0.22978861979E+02  0.59074675703E+01 -0.49684516790E+03  0.51287722423E+03  0.12500000000E+03 0.  0.
         25    1    1    2    0    0  0.17271981124E+02 -0.12200765087E+03 -0.27244589443E+03  0.32409250777E+03  0.12500000000E+03 0.  0.
         25    1    1    2    0    0 -0.40250843102E+02  0.11610018330E+03 -0.48287757302E+03  0.51370724489E+03  0.12500000000E+03 0.  0.
</event>
<event>
 5    0  0.5720942E-005  0.3038509E+03  0.7546771E-02  0.1083331E+00
         21   -1    0    0  502  501  0.00000000000E+00  0.00000000000E+00  0.82323332648E+03  0.82323332648E+03  0.00000000000E+00 0.  1.
         21   -1    0    0  501  502 -0.00000000000E+00 -0.00000000000E+00 -0.11214969839E+03  0.11214969839E+03  0.00000000000E+00 0.  1.
         25    1    1    2    0    0  0.93535500309E+02  0.63097582790E+02  0.57565189186E+03  0.59977520403E+03  0.12500000000E+03 0.  0.
         25    1    1    2    0    0  0.17627838838E+01 -0.50712620132E+02  0.12133680786E+02  0.13545148008E+03  0.12500000000E+03 0.  0.
         25    1    1    2    0    0 -0.95298284193E+02 -0.12384962658E+02  0.12329805545E+03  0.20015634076E+03  0.12500000000E+03 0.  0.
</event>
<event>
 5    0  0.5720942E-005  0.3753506E+03  0.7546771E-02  0.1052666E+00
         21   -1    0    0  502  501  0.00000000000E+00  0.00000000000E+00  0.17181233644E+03  0.17181233644E+03  0.00000000000E+00 0.  1.
         21   -1    0    0  501  502 -0.00000000000E+00 -0.00000000000E+00 -0.82001129085E+03  0.82001129085E+03  0.00000000000E+00 0.  1.
         25    1    1    2    0    0  0.12271546055E+03 -0.52546105810E+02 -0.18311696404E+03  0.25879914995E+03  0.12500000000E+03 0.  0.
         25    1    1    2    0    0 -0.26645586754E+02  0.14189717601E+03 -0.51147804793E+03  0.54596665592E+03  0.12500000000E+03 0.  0.
         25    1    1    2    0    0 -0.96069873794E+02 -0.89351070204E+02  0.46396057567E+02  0.18705782142E+03  0.12500000000E+03 0.  0.
</event>
<event>
 5    0  0.5720942E-005  0.2954746E+03  0.7546771E-02  0.1087525E+00
         21   -1    0    0  502  501  0.00000000000E+00  0.00000000000E+00  0.25279722794E+03  0.25279722794E+03  0.00000000000E+00 0. -1.
         21   -1    0    0  501  502 -0.00000000000E+00 -0.00000000000E+00 -0.34535670664E+03  0.34535670664E+03  0.00000000000E+00 0.  1.
         25    1    1    2    0    0 -0.34585562028E+02  0.48160785816E+02  0.54224134316E+02  0.14859636312E+03  0.12500000000E+03 0.  0.
         25    1    1    2    0    0 -0.67594716166E+02  0.82696684506E+01 -0.22119892274E+03  0.26304257544E+03  0.12500000000E+03 0.  0.
         25    1    1    2    0    0  0.10218027819E+03 -0.56430454266E+02  0.74415309719E+02  0.18651499602E+03  0.12500000000E+03 0.  0.
</event>
<event>
 5    0  0.5720942E-005  0.4290238E+03  0.7546771E-02  0.1034169E+00
         21   -1    0    0  502  501  0.00000000000E+00  0.00000000000E+00  0.17985609441E+03  0.17985609441E+03  0.00000000000E+00 0. -1.
         21   -1    0    0  501  502 -0.00000000000E+00 -0.00000000000E+00 -0.10233817638E+04  0.10233817638E+04  0.00000000000E+00 0. -1.
         25    1    1    2    0    0 -0.15686572104E+03  0.87516847933E+01  0.52036463686E+02  0.20740356790E+03  0.12500000000E+03 0.  0.
         25    1    1    2    0    0  0.14073433052E+03  0.14427073506E+03 -0.49773200514E+03  0.55134594015E+03  0.12500000000E+03 0.  0.
         25    1    1    2    0    0  0.16131390524E+02 -0.15302241985E+03 -0.39783012793E+03  0.44448835016E+03  0.12500000000E+03 0.  0.
</event>
<event>
 5    0  0.5720942E-005  0.2697866E+03  0.7546771E-02  0.1101402E+00
         21   -1    0    0  502  501  0.00000000000E+00  0.00000000000E+00  0.25659386792E+03  0.25659386792E+03  0.00000000000E+00 0.  1.
         21   -1    0    0  501  502 -0.00000000000E+00 -0.00000000000E+00 -0.28365763218E+03  0.28365763218E+03  0.00000000000E+00 0.  1.
         25    1    1    2    0    0 -0.56130569922E+02  0.10269880182E+03 -0.13705976704E+01  0.17124416286E+03  0.12500000000E+03 0.  0.
         25    1    1    2    0    0 -0.53829929924E+01 -0.16914324606E+03 -0.39415330291E+02  0.21404901907E+03  0.12500000000E+03 0.  0.
         25    1    1    2    0    0  0.61513562915E+02  0.66444444246E+02  0.13722163698E+02  0.15495831817E+03  0.12500000000E+03 0.  0.
</event>
<event>
 5    0  0.5720942E-005  0.2595594E+03  0.7546771E-02  0.1107408E+00
         21   -1    0    0  502  501  0.00000000000E+00  0.00000000000E+00  0.20963335164E+03  0.20963335164E+03  0.00000000000E+00 0. -1.
         21   -1    0    0  501  502 -0.00000000000E+00 -0.00000000000E+00 -0.32137585247E+03  0.32137585247E+03  0.00000000000E+00 0. -1.
         25    1    1    2    0    0 -0.10534659840E+02  0.66662153322E+02  0.19785612625E+02  0.14342695775E+03  0.12500000000E+03 0.  0.
         25    1    1    2    0    0 -0.36665780999E+02 -0.98973345771E+02  0.39357402469E+02  0.16826796427E+03  0.12500000000E+03 0.  0.
         25    1    1    2    0    0  0.47200440839E+02  0.32311192449E+02 -0.17088551592E+03  0.21931428208E+03  0.12500000000E+03 0.  0.
</event>
<event>
 5    0  0.5720942E-005  0.4178277E+03  0.7546771E-02  0.1037776E+00
         21   -1    0    0  502  501  0.00000000000E+00  0.00000000000E+00  0.30408452790E+03  0.30408452790E+03  0.00000000000E+00 0.  1.
         21   -1    0    0  501  502 -0.00000000000E+00 -0.00000000000E+00 -0.57411661897E+03  0.57411661897E+03  0.00000000000E+00 0.  1.
         25    1    1    2    0    0  0.21027538643E+02 -0.26936779287E+02  0.12704378609E+03  0.18147416082E+03  0.12500000000E+03 0.  0.
         25    1    1    2    0    0  0.85344382882E+02  0.65616788323E+02  0.85306924846E+02  0.18571886826E+03  0.12500000000E+03 0.  0.
         25    1    1    2    0    0 -0.10637192153E+03 -0.38680009036E+02 -0.48238280201E+03  0.51100811780E+03  0.12500000000E+03 0.  0.
</event>
<event>
 5    0  0.5720942E-005  0.6385929E+03  0.7546771E-02  0.9828422E-01
         21   -1    0    0  502  501  0.00000000000E+00  0.00000000000E+00  0.35982805270E+03  0.35982805270E+03  0.00000000000E+00 0. -1.
         21   -1    0    0  501  502 -0.00000000000E+00 -0.00000000000E+00 -0.11333213913E+04  0.11333213913E+04  0.00000000000E+00 0. -1.
         25    1    1    2    0    0  0.30016403208E+02 -0.97200640670E+02 -0.10085933689E+04  0.10213885317E+04  0.12500000000E+03 0.  0.
         25    1    1    2    0    0 -0.13598185048E+03 -0.39916095040E+02  0.15194678862E+03  0.24248130830E+03  0.12500000000E+03 0.  0.
         25    1    1    2    0    0  0.10596544727E+03  0.13711673571E+03  0.83153241613E+02  0.22927960402E+03  0.12500000000E+03 0.  0.
</event>
<event>
 5    0  0.5720942E-005  0.3383424E+03  0.7546771E-02  0.1067504E+00
         21   -1    0    0  502  501  0.00000000000E+00  0.00000000000E+00  0.60433980087E+02  0.60433980087E+02  0.00000000000E+00 0. -1.
         21   -1    0    0  501  502 -0.00000000000E+00 -0.00000000000E+00 -0.18942252262E+04  0.18942252262E+04  0.00000000000E+00 0. -1.
         25    1    1    2    0    0 -0.84810143833E+02 -0.37486140129E+02 -0.99342990221E+03  0.10055475831E+04  0.12500000000E+03 0.  0.
         25    1    1    2    0    0  0.18979105509E+03  0.31251811845E+01 -0.26039131959E+03  0.34562848648E+03  0.12500000000E+03 0.  0.
         25    1    1    2    0    0 -0.10498091126E+03  0.34360958944E+02 -0.57997002426E+03  0.60348313669E+03  0.12500000000E+03 0.  0.
</event>
<event>
 5    0  0.5720942E-005  0.2960731E+03  0.7546771E-02  0.1087220E+00
         21   -1    0    0  502  501  0.00000000000E+00  0.00000000000E+00  0.19516945992E+03  0.19516945992E+03  0.00000000000E+00 0. -1.
         21   -1    0    0  501  502 -0.00000000000E+00 -0.00000000000E+00 -0.44914443239E+03  0.44914443239E+03  0.00000000000E+00 0. -1.
         25    1    1    2    0    0 -0.66569787807E+02 -0.16788675662E+03 -0.38674195358E+01  0.21967579892E+03  0.12500000000E+03 0.  0.
         25    1    1    2    0    0 -0.95009834947E+00  0.23970079762E+01 -0.88290255179E+02  0.15305821603E+03  0.12500000000E+03 0.  0.
         25    1    1    2    0    0  0.67519886156E+02  0.16548974864E+03 -0.16181729776E+03  0.27157987736E+03  0.12500000000E+03 0.  0.
</event>
<event>
 5    0  0.5720942E-005  0.2991618E+03  0.7546771E-02  0.1085660E+00
         21   -1    0    0  502  501  0.00000000000E+00  0.00000000000E+00  0.24552453979E+03  0.24552453979E+03  0.00000000000E+00 0.  1.
         21   -1    0    0  501  502 -0.00000000000E+00 -0.00000000000E+00 -0.36451673049E+03  0.36451673049E+03  0.00000000000E+00 0.  1.
         25    1    1    2    0    0  0.30171160270E+02  0.16768242883E+03 -0.11872910032E+03  0.24238253880E+03  0.12500000000E+03 0.  0.
         25    1    1    2    0    0  0.40769349021E+02 -0.18052011113E+03 -0.25560496356E+01  0.22334095847E+03  0.12500000000E+03 0.  0.
         25    1    1    2    0    0 -0.70940509291E+02  0.12837682296E+02  0.22929592607E+01  0.14431777301E+03  0.12500000000E+03 0.  0.
</event>
<event>
 5    0  0.5720942E-005  0.2588450E+03  0.7546771E-02  0.1107839E+00
         21   -1    0    0  502  501  0.00000000000E+00  0.00000000000E+00  0.26622087229E+03  0.26622087229E+03  0.00000000000E+00 0.  1.
         21   -1    0    0  501  502 -0.00000000000E+00 -0.00000000000E+00 -0.25167350480E+03  0.25167350480E+03  0.00000000000E+00 0.  1.
         25    1    1    2    0    0 -0.63242431706E+02 -0.28033124902E+02  0.28810752003E+01  0.14289423310E+03  0.12500000000E+03 0.  0.
         25    1    1    2    0    0  0.64854007595E+01 -0.11735504002E+03 -0.19283339575E+02  0.17265895003E+03  0.12500000000E+03 0.  0.
         25    1    1    2    0    0  0.56757030946E+02  0.14538816492E+03  0.30949631868E+02  0.20234119396E+03  0.12500000000E+03 0.  0.
</event>
<event>
 5    0  0.5720942E-005  0.3632271E+03  0.7546771E-02  0.1057313E+00
         21   -1    0    0  502  501  0.00000000000E+00  0.00000000000E+00  0.26974606499E+03  0.26974606499E+03  0.00000000000E+00 0. -1.
         21   -1    0    0  501  502 -0.00000000000E+00 -0.00000000000E+00 -0.48910419716E+03  0.48910419716E+03  0.00000000000E+00 0. -1.
         25    1    1    2    0    0 -0.14391639518E+03 -0.40162401178E+02 -0.89458475750E+02  0.21436596314E+03  0.12500000000E+03 0.  0.
         25    1    1    2    0    0  0.20025842506E+03 -0.17599126427E+02  0.11091223298E+03  0.26141860967E+03  0.12500000000E+03 0.  0.
         25    1    1    2    0    0 -0.56342029882E+02  0.57761527605E+02 -0.24081188940E+03  0.28306568934E+03  0.12500000000E+03 0.  0.
</event>
<event>
 5    0  0.5720942E-005  0.2807872E+03  0.7546771E-02  0.1095260E+00
         21   -1    0    0  502  501  0.00000000000E+00  0.00000000000E+00  0.61084533293E+03  0.61084533293E+03  0.00000000000E+00 0. -1.
         21   -1    0    0  501  502 -0.00000000000E+00 -0.00000000000E+00 -0.12906943086E+03  0.12906943086E+03  0.00000000000E+00 0. -1.
         25    1    1    2    0    0 -0.18512842733E+02  0.44887444166E+02  0.31042275988E+02  0.13764530827E+03  0.12500000000E+03 0.  0.
         25    1    1    2    0    0  0.96418744427E+02 -0.62996187770E+02  0.41667959882E+03  0.45001331316E+03  0.12500000000E+03 0.  0.
         25    1    1    2    0    0 -0.77905901694E+02  0.18108743603E+02  0.34054027261E+02  0.15225614236E+03  0.12500000000E+03 0.  0.
</event>
<event>
 5    0  0.5720942E-005  0.4822306E+03  0.7546771E-02  0.1018524E+00
         21   -1    0    0  502  501  0.00000000000E+00  0.00000000000E+00  0.93497367524E+03  0.93497367524E+03  0.00000000000E+00 0.  1.
         21   -1    0    0  501  502 -0.00000000000E+00 -0.00000000000E+00 -0.24871969323E+03  0.24871969323E+03  0.00000000000E+00 0.  1.
         25    1    1    2    0    0 -0.32796328882E+02 -0.93379991314E+02  0.41307170804E+03  0.44277382256E+03  0.12500000000E+03 0.  0.
         25    1    1    2    0    0 -0.19210058877E+03 -0.96431019124E+02 -0.83133369066E+02  0.26217882200E+03  0.12500000000E+03 0.  0.
         25    1    1    2    0    0  0.22489691765E+03  0.18981101044E+03  0.35631564304E+03  0.47874072391E+03  0.12500000000E+03 0.  0.
</event>
<event>
 5    0  0.5720942E-005  0.3805999E+03  0.7546771E-02  0.1050712E+00
         21   -1    0    0  502  501  0.00000000000E+00  0.00000000000E+00  0.17427956348E+03  0.17427956348E+03  0.00000000000E+00 0.  1.
         21   -1    0    0  501  502 -0.00000000000E+00 -0.00000000000E+00 -0.83117187522E+03  0.83117187522E+03  0.00000000000E+00 0.  1.
         25    1    1    2    0    0  0.95904658582E+02  0.16521306506E+03 -0.15994287554E+03  0.27874680956E+03  0.12500000000E+03 0.  0.
         25    1    1    2    0    0 -0.18740602718E+03 -0.26035133513E+03 -0.28081454804E+03  0.44428104519E+03  0.12500000000E+03 0.  0.
         25    1    1    2    0    0  0.91501368593E+02  0.95138270069E+02 -0.21613488816E+03  0.28242358394E+03  0.12500000000E+03 0.  0.
</event>
<event>
 5    0  0.5720942E-005  0.5180770E+03  0.7546771E-02  0.1009165E+00
         21   -1    0    0  502  501  0.00000000000E+00  0.00000000000E+00  0.14378729225E+03  0.14378729225E+03  0.00000000000E+00 0.  1.
         21   -1    0    0  501  502 -0.00000000000E+00 -0.00000000000E+00 -0.18666721995E+04  0.18666721995E+04  0.00000000000E+00 0.  1.
         25    1    1    2    0    0  0.22154997547E+02 -0.38336071493E+02 -0.23703630489E+03  0.27160947725E+03  0.12500000000E+03 0.  0.
         25    1    1    2    0    0 -0.27486657985E+03 -0.13810067162E+03 -0.15383647987E+03  0.36594274792E+03  0.12500000000E+03 0.  0.
         25    1    1    2    0    0  0.25271158230E+03  0.17643674311E+03 -0.13320121224E+04  0.13729072665E+04  0.12500000000E+03 0.  0.
</event>
<event>
 5    0  0.5720942E-005  0.2273946E+03  0.7546771E-02  0.1128487E+00
         21   -1    0    0  502  501  0.00000000000E+00  0.00000000000E+00  0.50917194558E+02  0.50917194558E+02  0.00000000000E+00 0. -1.
         21   -1    0    0  501  502 -0.00000000000E+00 -0.00000000000E+00 -0.10155370153E+04  0.10155370153E+04  0.00000000000E+00 0. -1.
         25    1    1    2    0    0  0.83198291169E+01  0.37577060376E+02 -0.30022670176E+03  0.32747874355E+03  0.12500000000E+03 0.  0.
         25    1    1    2    0    0 -0.68006871002E+02 -0.42049723761E+02 -0.51162997390E+03  0.53271319109E+03  0.12500000000E+03 0.  0.
         25    1    1    2    0    0  0.59687041885E+02  0.44726633855E+01 -0.15276314511E+03  0.20626227525E+03  0.12500000000E+03 0.  0.
</event>
<event>
 5    0  0.5720942E-005  0.2244011E+03  0.7546771E-02  0.1130644E+00
         21   -1    0    0  502  501  0.00000000000E+00  0.00000000000E+00  0.12494677881E+03  0.12494677881E+03  0.00000000000E+00 0.  1.
         21   -1    0    0  501  502 -0.00000000000E+00 -0.00000000000E+00 -0.40301845111E+03  0.40301845111E+03  0.00000000000E+00 0.  1.
         25    1    1    2    0    0 -0.32297520271E+02  0.47178618565E+01 -0.14705711015E+03  0.19574519580E+03  0.12500000000E+03 0.  0.
         25    1    1    2    0    0 -0.38241184970E+02  0.49715461256E+02 -0.10864214895E+03  0.17709356805E+03  0.12500000000E+03 0.  0.
         25    1    1    2    0    0  0.70538705241E+02 -0.54433323112E+02 -0.22372413204E+02  0.15512646607E+03  0.12500000000E+03 0.  0.
</event>
<event>
 5    0  0.5720942E-005  0.4139928E+03  0.7546771E-02  0.1039039E+00
         21   -1    0    0  502  501  0.00000000000E+00  0.00000000000E+00  0.37536933867E+03  0.37536933867E+03  0.00000000000E+00 0.  1.
         21   -1    0    0  501  502 -0.00000000000E+00 -0.00000000000E+00 -0.45659033031E+03  0.45659033031E+03  0.00000000000E+00 0.  1.
         25    1    1    2    0    0 -0.18549336414E+02  0.14053149893E+03 -0.18011585622E+03  0.26107451376E+03  0.12500000000E+03 0.  0.
         25    1    1    2    0    0 -0.15930178981E+03 -0.36384318543E+01  0.20932468838E+03  0.29125954678E+03  0.12500000000E+03 0.  0.
         25    1    1    2    0    0  0.17785112623E+03 -0.13689306708E+03 -0.11042982379E+03  0.27962560844E+03  0.12500000000E+03 0.  0.
</event>
<event>
 5    0  0.5720942E-005  0.2071211E+03  0.7546771E-02  0.1143866E+00
         21   -1    0    0  502  501  0.00000000000E+00  0.00000000000E+00  0.39993845521E+03  0.39993845521E+03  0.00000000000E+00 0. -1.
         21   -1    0    0  501  502 -0.00000000000E+00 -0.00000000000E+00 -0.10726438749E+03  0.10726438749E+03  0.00000000000E+00 0. -1.
         25    1    1    2    0    0 -0.50158013051E+02  0.26415037430E+02  0.11020186932E+03  0.17601997749E+03  0.12500000000E+03 0.  0.
         25    1    1    2    0    0  0.22008847113E+02 -0.88816011812E+01  0.29015601076E+02  0.13049972144E+03  0.12500000000E+03 0.  0.
         25    1    1    2    0    0  0.28149165937E+02 -0.17533436249E+02  0.15345659733E+03  0.20068314377E+03  0.12500000000E+03 0.  0.
</event>
<event>
 5    0  0.5720942E-005  0.4331379E+03  0.7546771E-02  0.1032873E+00
         21   -1    0    0  502  501  0.00000000000E+00  0.00000000000E+00  0.26106338683E+03  0.26106338683E+03  0.00000000000E+00 0. -1.
         21   -1    0    0  501  502 -0.00000000000E+00 -0.00000000000E+00 -0.71863161305E+03  0.71863161305E+03  0.00000000000E+00 0. -1.
         25    1    1    2    0    0  0.14837782290E+03  0.82244316762E+01 -0.48718722830E+02  0.20020522860E+03  0.12500000000E+03 0.  0.
         25    1    1    2    0    0 -0.36702536327E+03  0.81131416175E+02 -0.25556992057E+03  0.47141373365E+03  0.12500000000E+03 0.  0.
         25    1    1    2    0    0  0.21864754037E+03 -0.89355847851E+02 -0.15327958282E+03  0.30807603763E+03  0.12500000000E+03 0.  0.
</event>
<event>
 5    0  0.5720942E-005  0.3441221E+03  0.7546771E-02  0.1065054E+00
         21   -1    0    0  502  501  0.00000000000E+00  0.00000000000E+00  0.29621293639E+03  0.29621293639E+03  0.00000000000E+00 0. -1.
         21   -1    0    0  501  502 -0.00000000000E+00 -0.00000000000E+00 -0.39978000664E+03  0.39978000664E+03  0.00000000000E+00 0. -1.
         25    1    1    2    0    0  0.41930242574E+02 -0.17884547571E+03 -0.77369268097E+02  0.23527612091E+03  0.12500000000E+03 0.  0.
         25    1    1    2    0    0 -0.13209195119E+03 -0.44619522678E+02  0.60212807802E+01  0.18735111741E+03  0.12500000000E+03 0.  0.
         25    1    1    2    0    0  0.90161708620E+02  0.22346499839E+03 -0.32219082936E+02  0.27336570471E+03  0.12500000000E+03 0.  0.
</event>
<event>
 5    0  0.5720942E-005  0.2322358E+03  0.7546771E-02  0.1125076E+00
         21   -1    0    0  502  501  0.00000000000E+00  0.00000000000E+00  0.11789162142E+03  0.11789162142E+03  0.00000000000E+00 0. -1.
         21   -1    0    0  501  502 -0.00000000000E+00 -0.00000000000E+00 -0.45748328062E+03  0.45748328062E+03  0.00000000000E+00 0. -1.
         25    1    1    2    0    0 -0.23995812095E+02 -0.73778806493E+02 -0.84543132565E+02  0.16968103179E+03  0.12500000000E+03 0.  0.
         25    1    1    2    0    0 -0.52673699701E+02  0.77301496647E+02 -0.18811136101E+03  0.24446047567E+03  0.12500000000E+03 0.  0.
         25    1    1    2    0    0  0.76669511796E+02 -0.35226901538E+01 -0.66937165633E+02  0.16123339458E+03  0.12500000000E+03 0.  0.
</event>
<event>
 5    0  0.5720942E-005  0.2670801E+03  0.7546771E-02  0.1102962E+00
         21   -1    0    0  502  501  0.00000000000E+00  0.00000000000E+00  0.15437412646E+03  0.15437412646E+03  0.00000000000E+00 0. -1.
         21   -1    0    0  501  502 -0.00000000000E+00 -0.00000000000E+00 -0.46207089161E+03  0.46207089161E+03  0.00000000000E+00 0. -1.
         25    1    1    2    0    0  0.93890342336E+02  0.56069156542E+02 -0.15485601067E+03  0.22707824806E+03  0.12500000000E+03 0.  0.
         25    1    1    2    0    0 -0.10102219738E+03 -0.41045419918E+02  0.28685163716E+02  0.16833909076E+03  0.12500000000E+03 0.  0.
         25    1    1    2    0    0  0.71318550422E+01 -0.15023736624E+02 -0.18152591820E+03  0.22102767925E+03  0.12500000000E+03 0.  0.
</event>
<event>
 5    0  0.5720942E-005  0.3121260E+03  0.7546771E-02  0.1079331E+00
         21   -1    0    0  502  501  0.00000000000E+00  0.00000000000E+00  0.16228938157E+03  0.16228938157E+03  0.00000000000E+00 0.  1.
         21   -1    0    0  501  502 -0.00000000000E+00 -0.00000000000E+00 -0.60030198658E+03  0.60030198658E+03  0.00000000000E+00 0.  1.
         25    1    1    2    0    0 -0.76320214818E+01 -0.13314319665E+03 -0.40985351428E+02  0.18732367068E+03  0.12500000000E+03 0.  0.
         25    1    1    2    0    0  0.66599444701E+01  0.20589208341E+03 -0.13558307910E+03  0.27648449542E+03  0.12500000000E+03 0.  0.
         25    1    1    2    0    0  0.97207701171E+00 -0.72748886758E+02 -0.26144417448E+03  0.29878320205E+03  0.12500000000E+03 0.  0.
</event>
<event>
 5    0  0.5720942E-005  0.2570422E+03  0.7546771E-02  0.1108933E+00
         21   -1    0    0  502  501  0.00000000000E+00  0.00000000000E+00  0.37822131061E+03  0.37822131061E+03  0.00000000000E+00 0.  1.
         21   -1    0    0  501  502 -0.00000000000E+00 -0.00000000000E+00 -0.17468789761E+03  0.17468789761E+03  0.00000000000E+00 0.  1.
         25    1    1    2    0    0 -0.47452086997E+01 -0.87011822352E+02 -0.25783233741E+02  0.15454238699E+03  0.12500000000E+03 0.  0.
         25    1    1    2    0    0  0.29311826664E+02  0.24711027721E+02  0.23832770090E+01  0.13076887276E+03  0.12500000000E+03 0.  0.
         25    1    1    2    0    0 -0.24566617965E+02  0.62300794631E+02  0.22693336973E+03  0.26759794847E+03  0.12500000000E+03 0.  0.
</event>
<event>
 5    0  0.5720942E-005  0.2576229E+03  0.7546771E-02  0.1108580E+00
         21   -1    0    0  502  501  0.00000000000E+00  0.00000000000E+00  0.11173087451E+03  0.11173087451E+03  0.00000000000E+00 0. -1.
         21   -1    0    0  501  502 -0.00000000000E+00 -0.00000000000E+00 -0.59401258986E+03  0.59401258986E+03  0.00000000000E+00 0. -1.
         25    1    1    2    0    0  0.10857720204E+03 -0.29357062408E+02 -0.37166035110E+02  0.17221254334E+03  0.12500000000E+03 0.  0.
         25    1    1    2    0    0 -0.85786683069E+02  0.38126706724E+02 -0.31387425673E+03  0.35064946855E+03  0.12500000000E+03 0.  0.
         25    1    1    2    0    0 -0.22790518975E+02 -0.87696443163E+01 -0.13124142351E+03  0.18288145248E+03  0.12500000000E+03 0.  0.
</event>
<event>
 5    0  0.5720942E-005  0.3243672E+03  0.7546771E-02  0.1073657E+00
         21   -1    0    0  502  501  0.00000000000E+00  0.00000000000E+00  0.72753175750E+03  0.72753175750E+03  0.00000000000E+00 0.  1.
         21   -1    0    0  501  502 -0.00000000000E+00 -0.00000000000E+00 -0.14461781790E+03  0.14461781790E+03  0.00000000000E+00 0.  1.
         25    1    1    2    0    0 -0.15363671892E+03  0.17558682866E+01  0.50416876346E+03  0.54168114839E+03  0.12500000000E+03 0.  0.
         25    1    1    2    0    0  0.12662537355E+03  0.38893417294E+02  0.17522200454E+02  0.18297188485E+03  0.12500000000E+03 0.  0.
         25    1    1    2    0    0  0.27011345362E+02 -0.40649285581E+02  0.61222975695E+02  0.14749654216E+03  0.12500000000E+03 0.  0.
</event>
<event>
 5    0  0.5720942E-005  0.2671548E+03  0.7546771E-02  0.1102919E+00
         21   -1    0    0  502  501  0.00000000000E+00  0.00000000000E+00  0.11099882298E+03  0.11099882298E+03  0.00000000000E+00 0. -1.
         21   -1    0    0  501  502 -0.00000000000E+00 -0.00000000000E+00 -0.64299508054E+03  0.64299508054E+03  0.00000000000E+00 0. -1.
         25    1    1    2    0    0  0.16949828533E+02  0.70964872731E+02 -0.45343386341E+03  0.47597329582E+03  0.12500000000E+03 0.  0.
         25    1    1    2    0    0  0.20383688007E+01 -0.55739280693E+02 -0.59507928065E+02  0.14925553880E+03  0.12500000000E+03 0.  0.
         25    1    1    2    0    0 -0.18988197334E+02 -0.15225592038E+02 -0.19054466085E+02  0.12876506890E+03  0.12500000000E+03 0.  0.
</event>
<event>
 5    0  0.5720942E-005  0.3737046E+03  0.7546771E-02  0.1053285E+00
         21   -1    0    0  502  501  0.00000000000E+00  0.00000000000E+00  0.93518847100E+02  0.93518847100E+02  0.00000000000E+00 0.  1.
         21   -1    0    0  501  502 -0.00000000000E+00 -0.00000000000E+00 -0.14933365920E+04  0.14933365920E+04  0.00000000000E+00 0.  1.
         25    1    1    2    0    0  0.27503923310E+03 -0.59130432506E+02 -0.52783424334E+03  0.61104580535E+03  0.12500000000E+03 0.  0.
         25    1    1    2    0    0 -0.69675256423E+02  0.12356510248E+03 -0.37036424464E+03  0.41583368023E+03  0.12500000000E+03 0.  0.
         25    1    1    2    0    0 -0.20536397667E+03 -0.64434669969E+02 -0.50161925693E+03  0.55997595353E+03  0.12500000000E+03 0.  0.
</event>
<event>
 5    0  0.5720942E-005  0.4416784E+03  0.7546771E-02  0.1030233E+00
         21   -1    0    0  502  501  0.00000000000E+00  0.00000000000E+00  0.78256061443E+02  0.78256061443E+02  0.00000000000E+00 0.  1.
         21   -1    0    0  501  502 -0.00000000000E+00 -0.00000000000E+00 -0.24928398140E+04  0.24928398140E+04  0.00000000000E+00 0.  1.
         25    1    1    2    0    0 -0.21039594449E+03  0.24170520726E+03 -0.97384640095E+03  0.10328066970E+04  0.12500000000E+03 0.  0.
         25    1    1    2    0    0  0.75860189724E+01 -0.51337215919E+01 -0.84679768546E+03  0.85602291026E+03  0.12500000000E+03 0.  0.
         25    1    1    2    0    0  0.20280992551E+03 -0.23657148567E+03 -0.59393966613E+03  0.68226626820E+03  0.12500000000E+03 0.  0.
</event>
<event>
 5    0  0.5720942E-005  0.4217287E+03  0.7546771E-02  0.1036505E+00
         21   -1    0    0  502  501  0.00000000000E+00  0.00000000000E+00  0.85219242178E+02  0.85219242178E+02  0.00000000000E+00 0. -1.
         21   -1    0    0  501  502 -0.00000000000E+00 -0.00000000000E+00 -0.20870302663E+04  0.20870302663E+04  0.00000000000E+00 0. -1.
         25    1    1    2    0    0  0.20163914876E+03  0.45267839798E+01 -0.62966806112E+03  0.67289353191E+03  0.12500000000E+03 0.  0.
         25    1    1    2    0    0  0.11203084274E+03  0.14303394547E+03 -0.68524935221E+03  0.71986199648E+03  0.12500000000E+03 0.  0.
         25    1    1    2    0    0 -0.31366999150E+03 -0.14756072945E+03 -0.68689361082E+03  0.77949398011E+03  0.12500000000E+03 0.  0.
</event>
<event>
 5    0  0.5720942E-005  0.2458052E+03  0.7546771E-02  0.1115985E+00
         21   -1    0    0  502  501  0.00000000000E+00  0.00000000000E+00  0.49715095348E+03  0.49715095348E+03  0.00000000000E+00 0.  1.
         21   -1    0    0  501  502 -0.00000000000E+00 -0.00000000000E+00 -0.12153289943E+03  0.12153289943E+03  0.00000000000E+00 0.  1.
         25    1    1    2    0    0 -0.72974702990E+02 -0.42012661821E+02  0.21575426527E+03  0.26318296680E+03  0.12500000000E+03 0.  0.
         25    1    1    2    0    0  0.12618128296E+03  0.37874476786E+02  0.90374313808E+02  0.20285144505E+03  0.12500000000E+03 0.  0.
         25    1    1    2    0    0 -0.53206579969E+02  0.41381850344E+01  0.69489474966E+02  0.15264944107E+03  0.12500000000E+03 0.  0.
</event>
<event>
 5    0  0.5720942E-005  0.5292982E+03  0.7546771E-02  0.1006402E+00
         21   -1    0    0  502  501  0.00000000000E+00  0.00000000000E+00  0.79061324856E+03  0.79061324856E+03  0.00000000000E+00 0. -1.
         21   -1    0    0  501  502 -0.00000000000E+00 -0.00000000000E+00 -0.35435348670E+03  0.35435348670E+03  0.00000000000E+00 0. -1.
         25    1    1    2    0    0  0.23948824811E+03 -0.18141181687E+03  0.91780700185E+02  0.33810289146E+03  0.12500000000E+03 0.  0.
         25    1    1    2    0    0  0.40851310897E+02 -0.65950041469E+02 -0.12554973793E+03  0.19340624154E+03  0.12500000000E+03 0.  0.
         25    1    1    2    0    0 -0.28033955901E+03  0.24736185834E+03  0.47002879961E+03  0.61345760226E+03  0.12500000000E+03 0.  0.
</event>
<event>
 5    0  0.5720942E-005  0.2741360E+03  0.7546771E-02  0.1098936E+00
         21   -1    0    0  502  501  0.00000000000E+00  0.00000000000E+00  0.16767469538E+03  0.16767469538E+03  0.00000000000E+00 0.  1.
         21   -1    0    0  501  502 -0.00000000000E+00 -0.00000000000E+00 -0.44819268110E+03  0.44819268110E+03  0.00000000000E+00 0.  1.
         25    1    1    2    0    0 -0.13756972860E+02  0.45118837439E+02 -0.29301511969E+03  0.32203699191E+03  0.12500000000E+03 0.  0.
         25    1    1    2    0    0  0.65148041403E+01  0.20059249956E+02 -0.54005499633E+02  0.13779118322E+03  0.12500000000E+03 0.  0.
         25    1    1    2    0    0  0.72421687195E+01 -0.65178087395E+02  0.66502633594E+02  0.15603920135E+03  0.12500000000E+03 0.  0.
</event>
<event>
 5    0  0.5720942E-005  0.2947505E+03  0.7546771E-02  0.1087895E+00
         21   -1    0    0  502  501  0.00000000000E+00  0.00000000000E+00  0.11793390741E+04  0.11793390741E+04  0.00000000000E+00 0. -1.
         21   -1    0    0  501  502 -0.00000000000E+00 -0.00000000000E+00 -0.73666585384E+02  0.73666585384E+02  0.00000000000E+00 0. -1.
         25    1    1    2    0    0  0.19122616674E+03 -0.92704528536E+01  0.60200346926E+03  0.64396161775E+03  0.12500000000E+03 0.  0.
         25    1    1    2    0    0 -0.14031922280E+03 -0.24126798972E+02  0.37241265422E+03  0.41783701576E+03  0.12500000000E+03 0.  0.
         25    1    1    2    0    0 -0.50906943940E+02  0.33397251825E+02  0.13125636529E+03  0.19120702602E+03  0.12500000000E+03 0.  0.
</event>
<event>
 5    0  0.5720942E-005  0.3248735E+03  0.7546771E-02  0.1073428E+00
         21   -1    0    0  502  501  0.00000000000E+00  0.00000000000E+00  0.91224227813E+03  0.91224227813E+03  0.00000000000E+00 0.  1.
         21   -1    0    0  501  502 -0.00000000000E+00 -0.00000000000E+00 -0.11569602337E+03  0.11569602337E+03  0.00000000000E+00 0.  1.
         25    1    1    2    0    0  0.54272431795E+02 -0.55582056278E+02  0.25493416967E+03  0.29436591633E+03  0.12500000000E+03 0.  0.
         25    1    1    2    0    0  0.16120086688E+03  0.91499968313E+02  0.15421337438E+03  0.27159662833E+03  0.12500000000E+03 0.  0.
         25    1    1    2    0    0 -0.21547329867E+03 -0.35917912035E+02  0.38739871071E+03  0.46197575684E+03  0.12500000000E+03 0.  0.
</event>
<event>
 5    0  0.5720942E-005  0.4206148E+03  0.7546771E-02  0.1036866E+00
         21   -1    0    0  502  501  0.00000000000E+00  0.00000000000E+00  0.11892260416E+04  0.11892260416E+04  0.00000000000E+00 0.  1.
         21   -1    0    0  501  502 -0.00000000000E+00 -0.00000000000E+00 -0.14876631527E+03  0.14876631527E+03  0.00000000000E+00 0.  1.
         25    1    1    2    0    0 -0.70630516983E+02 -0.10260402066E+03 -0.40415370914E+02  0.18103772311E+03  0.12500000000E+03 0.  0.
         25    1    1    2    0    0 -0.41532435894E+02 -0.81181693206E+01  0.80378009654E+03  0.81454176781E+03  0.12500000000E+03 0.  0.
         25    1    1    2    0    0  0.11216295288E+03  0.11072218998E+03  0.27709500073E+03  0.34241286597E+03  0.12500000000E+03 0.  0.
</event>
<event>
 5    0  0.5720942E-005  0.3047247E+03  0.7546771E-02  0.1082902E+00
         21   -1    0    0  502  501  0.00000000000E+00  0.00000000000E+00  0.45042625361E+03  0.45042625361E+03  0.00000000000E+00 0.  1.
         21   -1    0    0  501  502 -0.00000000000E+00 -0.00000000000E+00 -0.20615391167E+03  0.20615391167E+03  0.00000000000E+00 0.  1.
         25    1    1    2    0    0  0.55076345600E+02 -0.36740146762E+02  0.11329150583E+03  0.18122695032E+03  0.12500000000E+03 0.  0.
         25    1    1    2    0    0 -0.20461055731E+03 -0.39798296215E+02  0.37045205921E+02  0.24585917072E+03  0.12500000000E+03 0.  0.
         25    1    1    2    0    0  0.14953421171E+03  0.76538442977E+02  0.93935630191E+02  0.22949404425E+03  0.12500000000E+03 0.  0.
</event>
<event>
 5    0  0.5720942E-005  0.2974900E+03  0.7546771E-02  0.1086502E+00
         21   -1    0    0  502  501  0.00000000000E+00  0.00000000000E+00  0.10377169162E+03  0.10377169162E+03  0.00000000000E+00 0.  1.
         21   -1    0    0  501  502 -0.00000000000E+00 -0.00000000000E+00 -0.85283677852E+03  0.85283677852E+03  0.00000000000E+00 0.  1.
         25    1    1    2    0    0  0.96946596279E+02  0.81785034237E+02 -0.12604886391E+03  0.21817596212E+03  0.12500000000E+03 0.  0.
         25    1    1    2    0    0 -0.76690370518E+01 -0.17571245178E+03 -0.35936313114E+03  0.41916648227E+03  0.12500000000E+03 0.  0.
         25    1    1    2    0    0 -0.89277559227E+02  0.93927417540E+02 -0.26365309186E+03  0.31926602575E+03  0.12500000000E+03 0.  0.
</event>
<event>
 5    0  0.5720942E-005  0.3749417E+03  0.7546771E-02  0.1052819E+00
         21   -1    0    0  502  501  0.00000000000E+00  0.00000000000E+00  0.20742219371E+03  0.20742219371E+03  0.00000000000E+00 0. -1.
         21   -1    0    0  501  502 -0.00000000000E+00 -0.00000000000E+00 -0.67775415698E+03  0.67775415698E+03  0.00000000000E+00 0. -1.
         25    1    1    2    0    0  0.24134365554E+03 -0.78426690990E+02 -0.70761966973E+02  0.29159863151E+03  0.12500000000E+03 0.  0.
         25    1    1    2    0    0 -0.10465486324E+03  0.13510645305E+03 -0.32100704109E+03  0.38454767518E+03  0.12500000000E+03 0.  0.
         25    1    1    2    0    0 -0.13668879230E+03 -0.56679762057E+02 -0.78562955199E+02  0.20903004400E+03  0.12500000000E+03 0.  0.
</event>
<event>
 5    0  0.5720942E-005  0.2331474E+03  0.7546771E-02  0.1124444E+00
         21   -1    0    0  502  501  0.00000000000E+00  0.00000000000E+00  0.76955801002E+03  0.76955801002E+03  0.00000000000E+00 0.  1.
         21   -1    0    0  501  502 -0.00000000000E+00 -0.00000000000E+00 -0.70634984191E+02  0.70634984191E+02  0.00000000000E+00 0.  1.
         25    1    1    2    0    0 -0.21741953481E+02 -0.69468892612E+02  0.12182120544E+03  0.18911384317E+03  0.12500000000E+03 0.  0.
         25    1    1    2    0    0  0.72712116706E+02  0.30817607647E+01  0.34957875538E+03  0.37832110089E+03  0.12500000000E+03 0.  0.
         25    1    1    2    0    0 -0.50970163225E+02  0.66387131848E+02  0.22752306501E+03  0.27275805016E+03  0.12500000000E+03 0.  0.
</event>
<event>
 5    0  0.5720942E-005  0.3336309E+03  0.7546771E-02  0.1069542E+00
         21   -1    0    0  502  501  0.00000000000E+00  0.00000000000E+00  0.42145472807E+03  0.42145472807E+03  0.00000000000E+00 0.  1.
         21   -1    0    0  501  502 -0.00000000000E+00 -0.00000000000E+00 -0.26410800760E+03  0.26410800760E+03  0.00000000000E+00 0.  1.
         25    1    1    2    0    0  0.75235298146E+02 -0.18282889001E+03 -0.71042242751E+02  0.24445603565E+03  0.12500000000E+03 0.  0.
         25    1    1    2    0    0 -0.93109323674E+02  0.18187029333E+03  0.19912889713E+03  0.31148590244E+03  0.12500000000E+03 0.  0.
         25    1    1    2    0    0  0.17874025528E+02  0.95859668464E+00  0.29260066098E+02  0.12962079758E+03  0.12500000000E+03 0.  0.
</event>
<event>
 5    0  0.6184784E-005  0.2845140E+03  0.7546771E-02  0.1093249E+00
         21   -1    0    0  502  501  0.00000000000E+00  0.00000000000E+00  0.28626391972E+03  0.28626391972E+03  0.00000000000E+00 0. -1.
         21   -1    0    0  501  502 -0.00000000000E+00 -0.00000000000E+00 -0.28277476991E+03  0.28277476991E+03  0.00000000000E+00 0. -1.
         25    1    1    2    0    0  0.16157212557E+03 -0.11570684396E+03  0.44804337527E+02  0.23901057333E+03  0.12500000000E+03 0.  0.
         25    1    1    2    0    0 -0.97095192573E+02  0.47186945568E+02 -0.52149921753E+02  0.17320132387E+03  0.12500000000E+03 0.  0.
         25    1    1    2    0    0 -0.64476932995E+02  0.68519898393E+02  0.10834734037E+02  0.15682679244E+03  0.12500000000E+03 0.  0.
</event>
<event>
 5    0  0.5720942E-005  0.3540072E+03  0.7546771E-02  0.1060982E+00
         21   -1    0    0  502  501  0.00000000000E+00  0.00000000000E+00  0.48062260095E+03  0.48062260095E+03  0.00000000000E+00 0.  1.
         21   -1    0    0  501  502 -0.00000000000E+00 -0.00000000000E+00 -0.26074746552E+03  0.26074746552E+03  0.00000000000E+00 0.  1.
         25    1    1    2    0    0  0.15853070067E+03  0.71720598524E+02 -0.84348180540E+01  0.21441075874E+03  0.12500000000E+03 0.  0.
         25    1    1    2    0    0  0.66376031512E+01 -0.19278418250E+03  0.15046264760E+03  0.27472496632E+03  0.12500000000E+03 0.  0.
         25    1    1    2    0    0 -0.16516830382E+03  0.12106358398E+03  0.77847305888E+02  0.25223434141E+03  0.12500000000E+03 0.  0.
</event>
<event>
 5    0  0.5720942E-005  0.4085110E+03  0.7546771E-02  0.1040872E+00
         21   -1    0    0  502  501  0.00000000000E+00  0.00000000000E+00  0.35350241367E+03  0.35350241367E+03  0.00000000000E+00 0.  1.
         21   -1    0    0  501  502 -0.00000000000E+00 -0.00000000000E+00 -0.47207945000E+03  0.47207945000E+03  0.00000000000E+00 0.  1.
         25    1    1    2    0    0  0.12221289334E+03 -0.10433120634E+03 -0.43439921828E+02  0.20816584427E+03  0.12500000000E+03 0.  0.
         25    1    1    2    0    0  0.18732085637E+03 -0.50753105368E+02  0.34358722386E+02  0.23338916586E+03  0.12500000000E+03 0.  0.
         25    1    1    2    0    0 -0.30953374971E+03  0.15508431171E+03 -0.10949583689E+03  0.38402685354E+03  0.12500000000E+03 0.  0.
</event>
<event>
 5    0  0.5720942E-005  0.2755319E+03  0.7546771E-02  0.1098155E+00
         21   -1    0    0  502  501  0.00000000000E+00  0.00000000000E+00  0.40647938476E+03  0.40647938476E+03  0.00000000000E+00 0. -1.
         21   -1    0    0  501  502 -0.00000000000E+00 -0.00000000000E+00 -0.18676918577E+03  0.18676918577E+03  0.00000000000E+00 0. -1.
         25    1    1    2    0    0  0.36282169565E+02 -0.44656994923E+02  0.30723333070E+02  0.14099491558E+03  0.12500000000E+03 0.  0.
         25    1    1    2    0    0  0.59467393279E+02 -0.10678637993E+03  0.14995133402E+03  0.23032608271E+03  0.12500000000E+03 0.  0.
         25    1    1    2    0    0 -0.95749562845E+02  0.15144337485E+03  0.39035531897E+02  0.22192757224E+03  0.12500000000E+03 0.  0.
</event>
<event>
 5    0  0.5720942E-005  0.2905733E+03  0.7546771E-02  0.1090050E+00
         21   -1    0    0  502  501  0.00000000000E+00  0.00000000000E+00  0.35665100345E+03  0.35665100345E+03  0.00000000000E+00 0. -1.
         21   -1    0    0  501  502 -0.00000000000E+00 -0.00000000000E+00 -0.23673795807E+03  0.23673795807E+03  0.00000000000E+00 0. -1.
         25    1    1    2    0    0 -0.12880673515E+03  0.13413515681E+02 -0.50877683430E+01  0.18006105301E+03  0.12500000000E+03 0.  0.
         25    1    1    2    0    0 -0.10000571457E+02 -0.96204824255E+02  0.13628518894E+03  0.20869602862E+03  0.12500000000E+03 0.  0.
         25    1    1    2    0    0  0.13880730661E+03  0.82791308575E+02 -0.11284375222E+02  0.20463187989E+03  0.12500000000E+03 0.  0.
</event>
<event>
 5    0  0.5720942E-005  0.2706979E+03  0.7546771E-02  0.1100881E+00
         21   -1    0    0  502  501  0.00000000000E+00  0.00000000000E+00  0.35179924082E+03  0.35179924082E+03  0.00000000000E+00 0. -1.
         21   -1    0    0  501  502 -0.00000000000E+00 -0.00000000000E+00 -0.20829306325E+03  0.20829306325E+03  0.00000000000E+00 0. -1.
         25    1    1    2    0    0 -0.12606187511E+03 -0.90916254266E+01  0.20367585049E+02  0.17892482368E+03  0.12500000000E+03 0.  0.
         25    1    1    2    0    0  0.86142983207E+02  0.11466984605E+03  0.44972695515E+02  0.19549253309E+03  0.12500000000E+03 0.  0.
         25    1    1    2    0    0  0.39918891899E+02 -0.10557822063E+03  0.78165897005E+02  0.18567494730E+03  0.12500000000E+03 0.  0.
</event>
<event>
 5    0  0.5720942E-005  0.4061563E+03  0.7546771E-02  0.1041669E+00
         21   -1    0    0  502  501  0.00000000000E+00  0.00000000000E+00  0.85124757239E+03  0.85124757239E+03  0.00000000000E+00 0.  1.
         21   -1    0    0  501  502 -0.00000000000E+00 -0.00000000000E+00 -0.19378961099E+03  0.19378961099E+03  0.00000000000E+00 0.  1.
         25    1    1    2    0    0 -0.10441766787E+03 -0.20229403740E+03  0.43848553397E+03  0.50962779598E+03  0.12500000000E+03 0.  0.
         25    1    1    2    0    0  0.76601733635E+02  0.15626358802E+03 -0.62135873656E+02  0.22309639471E+03  0.12500000000E+03 0.  0.
         25    1    1    2    0    0  0.27815934235E+02  0.46030449387E+02  0.28110830108E+03  0.31231299270E+03  0.12500000000E+03 0.  0.
</event>
<event>
 5    0  0.5720942E-005  0.3550023E+03  0.7546771E-02  0.1060580E+00
         21   -1    0    0  502  501  0.00000000000E+00  0.00000000000E+00  0.50456597266E+03  0.50456597266E+03  0.00000000000E+00 0.  1.
         21   -1    0    0  501  502 -0.00000000000E+00 -0.00000000000E+00 -0.24977232655E+03  0.24977232655E+03  0.00000000000E+00 0.  1.
         25    1    1    2    0    0  0.98438594825E+02  0.49177788451E+02  0.29957474889E+02  0.16920715744E+03  0.12500000000E+03 0.  0.
         25    1    1    2    0    0  0.15664516566E+03 -0.15254119191E+02  0.22140925913E+03  0.29902751731E+03  0.12500000000E+03 0.  0.
         25    1    1    2    0    0 -0.25508376049E+03 -0.33923669260E+02  0.34269120870E+01  0.28610362446E+03  0.12500000000E+03 0.  0.
</event>
<event>
 5    0  0.5720942E-005  0.3148773E+03  0.7546771E-02  0.1078031E+00
         21   -1    0    0  502  501  0.00000000000E+00  0.00000000000E+00  0.14079111374E+03  0.14079111374E+03  0.00000000000E+00 0.  1.
         21   -1    0    0  501  502 -0.00000000000E+00 -0.00000000000E+00 -0.70421871073E+03  0.70421871073E+03  0.00000000000E+00 0.  1.
         25    1    1    2    0    0 -0.24755447683E+02 -0.24131790607E+03 -0.24027113039E+03  0.36359645223E+03  0.12500000000E+03 0.  0.
         25    1    1    2    0    0  0.38576249092E+02  0.84882626576E+02 -0.13394474377E+03  0.20557086776E+03  0.12500000000E+03 0.  0.
         25    1    1    2    0    0 -0.13820801409E+02  0.15643527949E+03 -0.18921172282E+03  0.27584250447E+03  0.12500000000E+03 0.  0.
</event>
<event>
 5    0  0.5720942E-005  0.3833171E+03  0.7546771E-02  0.1049715E+00
         21   -1    0    0  502  501  0.00000000000E+00  0.00000000000E+00  0.16895662127E+04  0.16895662127E+04  0.00000000000E+00 0. -1.
         21   -1    0    0  501  502 -0.00000000000E+00 -0.00000000000E+00 -0.86964311738E+02  0.86964311738E+02  0.00000000000E+00 0. -1.
         25    1    1    2    0    0  0.11998302264E+03  0.12760183274E+03  0.51548414593E+03  0.55859382215E+03  0.12500000000E+03 0.  0.
         25    1    1    2    0    0 -0.13356547829E+03  0.15492929700E+03  0.48934790308E+03  0.54491209778E+03  0.12500000000E+03 0.  0.
         25    1    1    2    0    0  0.13582455656E+02 -0.28253112974E+03  0.59776985200E+03  0.67302460455E+03  0.12500000000E+03 0.  0.
</event>
<event>
 5    0  0.5720942E-005  0.3381377E+03  0.7546771E-02  0.1067592E+00
         21   -1    0    0  502  501  0.00000000000E+00  0.00000000000E+00  0.23565947131E+03  0.23565947131E+03  0.00000000000E+00 0. -1.
         21   -1    0    0  501  502 -0.00000000000E+00 -0.00000000000E+00 -0.48517936723E+03  0.48517936723E+03  0.00000000000E+00 0. -1.
         25    1    1    2    0    0 -0.18461088881E+03  0.51129222530E+02 -0.32150702423E+02  0.23098494611E+03  0.12500000000E+03 0.  0.
         25    1    1    2    0    0 -0.44438224505E+02  0.53161492767E+02 -0.13604062350E+03  0.19731434654E+03  0.12500000000E+03 0.  0.
         25    1    1    2    0    0  0.22904911332E+03 -0.10429071530E+03 -0.81328569996E+02  0.29253954588E+03  0.12500000000E+03 0.  0.
</event>
<event>
 5    0  0.5720942E-005  0.3603038E+03  0.7546771E-02  0.1058464E+00
         21   -1    0    0  502  501  0.00000000000E+00  0.00000000000E+00  0.20494445279E+03  0.20494445279E+03  0.00000000000E+00 0.  1.
         21   -1    0    0  501  502 -0.00000000000E+00 -0.00000000000E+00 -0.63343427964E+03  0.63343427964E+03  0.00000000000E+00 0.  1.
         25    1    1    2    0    0 -0.12509121766E+03 -0.76989515376E+02  0.29859341493E+02  0.19517115178E+03  0.12500000000E+03 0.  0.
         25    1    1    2    0    0 -0.37502343864E+02  0.17229472897E+03 -0.16042679865E+03  0.26917217009E+03  0.12500000000E+03 0.  0.
         25    1    1    2    0    0  0.16259356152E+03 -0.95305213596E+02 -0.29792236969E+03  0.37403541055E+03  0.12500000000E+03 0.  0.
</event>
<event>
 5    0  0.5720942E-005  0.2941186E+03  0.7546771E-02  0.1088218E+00
         21   -1    0    0  502  501  0.00000000000E+00  0.00000000000E+00  0.49320413571E+03  0.49320413571E+03  0.00000000000E+00 0.  1.
         21   -1    0    0  501  502 -0.00000000000E+00 -0.00000000000E+00 -0.17539543839E+03  0.17539543839E+03  0.00000000000E+00 0.  1.
         25    1    1    2    0    0  0.29494648430E+02  0.92439251613E+02  0.24701898417E+03  0.29335699764E+03  0.12500000000E+03 0.  0.
         25    1    1    2    0    0  0.10937910196E+03 -0.17376512075E+02  0.26930703638E+02  0.16916262564E+03  0.12500000000E+03 0.  0.
         25    1    1    2    0    0 -0.13887375039E+03 -0.75062739538E+02  0.43859009506E+02  0.20607995081E+03  0.12500000000E+03 0.  0.
</event>
<event>
 5    0  0.5720942E-005  0.2907482E+03  0.7546771E-02  0.1089959E+00
         21   -1    0    0  502  501  0.00000000000E+00  0.00000000000E+00  0.36077773223E+02  0.36077773223E+02  0.00000000000E+00 0. -1.
         21   -1    0    0  501  502 -0.00000000000E+00 -0.00000000000E+00 -0.23431192795E+04  0.23431192795E+04  0.00000000000E+00 0. -1.
         25    1    1    2    0    0 -0.14541772820E+02  0.13172913597E+03 -0.80386064790E+03  0.82424569739E+03  0.12500000000E+03 0.  0.
         25    1    1    2    0    0  0.11227070186E+03 -0.12801687677E+03 -0.56006089919E+03  0.59857016467E+03  0.12500000000E+03 0.  0.
         25    1    1    2    0    0 -0.97728929038E+02 -0.37122592041E+01 -0.94311995914E+03  0.95638119062E+03  0.12500000000E+03 0.  0.
</event>
<event>
 5    0  0.5720942E-005  0.2887479E+03  0.7546771E-02  0.1091005E+00
         21   -1    0    0  502  501  0.00000000000E+00  0.00000000000E+00  0.23373895528E+03  0.23373895528E+03  0.00000000000E+00 0. -1.
         21   -1    0    0  501  502 -0.00000000000E+00 -0.00000000000E+00 -0.35670283896E+03  0.35670283896E+03  0.00000000000E+00 0. -1.
         25    1    1    2    0    0  0.52437541645E+02  0.26258752403E+02 -0.52237256936E+02  0.14762435051E+03  0.12500000000E+03 0.  0.
         25    1    1    2    0    0 -0.16101249999E+03  0.93819441210E+02  0.57268395782E+01  0.22446583124E+03  0.12500000000E+03 0.  0.
         25    1    1    2    0    0  0.10857495835E+03 -0.12007819361E+03 -0.76453466331E+02  0.21835161249E+03  0.12500000000E+03 0.  0.
</event>
<event>
 5    0  0.5720942E-005  0.3844332E+03  0.7546771E-02  0.1049307E+00
         21   -1    0    0  502  501  0.00000000000E+00  0.00000000000E+00  0.12886778292E+03  0.12886778292E+03  0.00000000000E+00 0.  1.
         21   -1    0    0  501  502 -0.00000000000E+00 -0.00000000000E+00 -0.11468259443E+04  0.11468259443E+04  0.00000000000E+00 0.  1.
         25    1    1    2    0    0 -0.80703722652E+02 -0.27815676159E+03 -0.23763447911E+03  0.39494230025E+03  0.12500000000E+03 0.  0.
         25    1    1    2    0    0  0.34160465933E+02  0.20218101464E+03 -0.35518560584E+03  0.42874924456E+03  0.12500000000E+03 0.  0.
         25    1    1    2    0    0  0.46543256719E+02  0.75975746951E+02 -0.42513807646E+03  0.45200218244E+03  0.12500000000E+03 0.  0.
</event>
<event>
 5    0  0.5720942E-005  0.3046834E+03  0.7546771E-02  0.1082923E+00
         21   -1    0    0  502  501  0.00000000000E+00  0.00000000000E+00  0.13312924968E+03  0.13312924968E+03  0.00000000000E+00 0.  1.
         21   -1    0    0  501  502 -0.00000000000E+00 -0.00000000000E+00 -0.69730696887E+03  0.69730696887E+03  0.00000000000E+00 0.  1.
         25    1    1    2    0    0  0.30912209694E+02  0.22725066458E+02 -0.93635874258E+02  0.16082496791E+03  0.12500000000E+03 0.  0.
         25    1    1    2    0    0  0.64919241464E+02  0.11787292802E+03 -0.36949094499E+02  0.18734665905E+03  0.12500000000E+03 0.  0.
         25    1    1    2    0    0 -0.95831451159E+02 -0.14059799448E+03 -0.43359275043E+03  0.48226459160E+03  0.12500000000E+03 0.  0.
</event>
<event>
 5    0  0.5720942E-005  0.3874481E+03  0.7546771E-02  0.1048215E+00
         21   -1    0    0  502  501  0.00000000000E+00  0.00000000000E+00  0.11501577713E+03  0.11501577713E+03  0.00000000000E+00 0.  1.
         21   -1    0    0  501  502 -0.00000000000E+00 -0.00000000000E+00 -0.13051778116E+04  0.13051778116E+04  0.00000000000E+00 0.  1.
         25    1    1    2    0    0 -0.12459962936E+03  0.16555156153E+03 -0.30453753984E+03  0.38897364992E+03  0.12500000000E+03 0.  0.
         25    1    1    2    0    0 -0.10892590951E+03 -0.11986149434E+03 -0.16739836639E+03  0.26434606987E+03  0.12500000000E+03 0.  0.
         25    1    1    2    0    0  0.23352553888E+03 -0.45690067188E+02 -0.71822612822E+03  0.76687386891E+03  0.12500000000E+03 0.  0.
</event>
<event>
 5    0  0.5720942E-005  0.2794414E+03  0.7546771E-02  0.1095994E+00
         21   -1    0    0  502  501  0.00000000000E+00  0.00000000000E+00  0.31018403790E+03  0.31018403790E+03  0.00000000000E+00 0. -1.
         21   -1    0    0  501  502 -0.00000000000E+00 -0.00000000000E+00 -0.25174568167E+03  0.25174568167E+03  0.00000000000E+00 0. -1.
         25    1    1    2    0    0 -0.12115765708E+03 -0.16294107858E+01 -0.52602742344E+01  0.17416803190E+03  0.12500000000E+03 0.  0.
         25    1    1    2    0    0  0.12251985774E+03 -0.11210566634E+03  0.68020156793E+02  0.21870193802E+03  0.12500000000E+03 0.  0.
         25    1    1    2    0    0 -0.13622006542E+01  0.11373507713E+03 -0.43215263251E+01  0.16905974964E+03  0.12500000000E+03 0.  0.
</event>
<event>
 5    0  0.5720942E-005  0.2410466E+03  0.7546771E-02  0.1119098E+00
         21   -1    0    0  502  501  0.00000000000E+00  0.00000000000E+00  0.68220074472E+03  0.68220074472E+03  0.00000000000E+00 0.  1.
         21   -1    0    0  501  502 -0.00000000000E+00 -0.00000000000E+00 -0.85170656885E+02  0.85170656885E+02  0.00000000000E+00 0.  1.
         25    1    1    2    0    0 -0.47135980499E+01 -0.32638555727E+02  0.37738795387E+03  0.39891623312E+03  0.12500000000E+03 0.  0.
         25    1    1    2    0    0 -0.44446399534E+02  0.31341500610E+02  0.36113108507E+02  0.14102102219E+03  0.12500000000E+03 0.  0.
         25    1    1    2    0    0  0.49159997584E+02  0.12970551174E+01  0.18352902546E+03  0.22743414630E+03  0.12500000000E+03 0.  0.
</event>
<event>
 5    0  0.5720942E-005  0.3338052E+03  0.7546771E-02  0.1069465E+00
         21   -1    0    0  502  501  0.00000000000E+00  0.00000000000E+00  0.14895529183E+04  0.14895529183E+04  0.00000000000E+00 0.  1.
         21   -1    0    0  501  502 -0.00000000000E+00 -0.00000000000E+00 -0.74804936313E+02  0.74804936313E+02  0.00000000000E+00 0.  1.
         25    1    1    2    0    0 -0.33294615006E+02  0.12649268688E+03  0.21432086914E+03  0.28047703323E+03  0.12500000000E+03 0.  0.
         25    1    1    2    0    0 -0.10223965918E+03 -0.16613573233E+03  0.89853301466E+03  0.92792273811E+03  0.12500000000E+03 0.  0.
         25    1    1    2    0    0  0.13553427419E+03  0.39643045452E+02  0.30189409823E+03  0.35595808331E+03  0.12500000000E+03 0.  0.
</event>
<event>
 5    0  0.5720942E-005  0.2408703E+03  0.7546771E-02  0.1119214E+00
         21   -1    0    0  502  501  0.00000000000E+00  0.00000000000E+00  0.41264141558E+03  0.41264141558E+03  0.00000000000E+00 0. -1.
         21   -1    0    0  501  502 -0.00000000000E+00 -0.00000000000E+00 -0.14060272863E+03  0.14060272863E+03  0.00000000000E+00 0. -1.
         25    1    1    2    0    0  0.98758283333E+02 -0.15719613172E+02  0.14377902583E+03  0.21516903363E+03  0.12500000000E+03 0.  0.
         25    1    1    2    0    0 -0.50097151512E+02  0.56868721334E+01 -0.21817053351E+02  0.13653955076E+03  0.12500000000E+03 0.  0.
         25    1    1    2    0    0 -0.48661131821E+02  0.10032741038E+02  0.15007671447E+03  0.20153555982E+03  0.12500000000E+03 0.  0.
</event>
<event>
 5    0  0.5720942E-005  0.3151629E+03  0.7546771E-02  0.1077897E+00
         21   -1    0    0  502  501  0.00000000000E+00  0.00000000000E+00  0.13534547261E+03  0.13534547261E+03  0.00000000000E+00 0. -1.
         21   -1    0    0  501  502 -0.00000000000E+00 -0.00000000000E+00 -0.73388236447E+03  0.73388236447E+03  0.00000000000E+00 0. -1.
         25    1    1    2    0    0 -0.47488083111E+02 -0.41248996534E+02 -0.60817824646E+02  0.15257917796E+03  0.12500000000E+03 0.  0.
         25    1    1    2    0    0  0.20935189008E+03 -0.50975377817E+02 -0.29582058267E+03  0.38673184528E+03  0.12500000000E+03 0.  0.
         25    1    1    2    0    0 -0.16186380696E+03  0.92224374352E+02 -0.24189848454E+03  0.32991681384E+03  0.12500000000E+03 0.  0.
</event>
<event>
 5    0  0.5720942E-005  0.2727502E+03  0.7546771E-02  0.1099716E+00
         21   -1    0    0  502  501  0.00000000000E+00  0.00000000000E+00  0.13534467326E+03  0.13534467326E+03  0.00000000000E+00 0. -1.
         21   -1    0    0  501  502 -0.00000000000E+00 -0.00000000000E+00 -0.54965363809E+03  0.54965363809E+03  0.00000000000E+00 0. -1.
         25    1    1    2    0    0  0.12248969406E+03  0.39460215685E+02 -0.22485137004E+03  0.28765252021E+03  0.12500000000E+03 0.  0.
         25    1    1    2    0    0 -0.70089334451E+02 -0.19615836308E+01  0.20356852046E+02  0.14476105844E+03  0.12500000000E+03 0.  0.
         25    1    1    2    0    0 -0.52400359606E+02 -0.37498632054E+02 -0.20981444684E+03  0.25258473271E+03  0.12500000000E+03 0.  0.
</event>
<event>
 5    0  0.5720942E-005  0.3489630E+03  0.7546771E-02  0.1063041E+00
         21   -1    0    0  502  501  0.00000000000E+00  0.00000000000E+00  0.73227844884E+03  0.73227844884E+03  0.00000000000E+00 0.  1.
         21   -1    0    0  501  502 -0.00000000000E+00 -0.00000000000E+00 -0.16629624296E+03  0.16629624296E+03  0.00000000000E+00 0.  1.
         25    1    1    2    0    0  0.12648692536E+02 -0.46397025376E+02 -0.70398648848E+02  0.15130645441E+03  0.12500000000E+03 0.  0.
         25    1    1    2    0    0 -0.12794597793E+03  0.10358374691E+03  0.40277660270E+03  0.45271818781E+03  0.12500000000E+03 0.  0.
         25    1    1    2    0    0  0.11529728539E+03 -0.57186721538E+02  0.23360425203E+03  0.29455004958E+03  0.12500000000E+03 0.  0.
</event>
<event>
 5    0  0.5720942E-005  0.5618805E+03  0.7546771E-02  0.9987809E-01
         21   -1    0    0  502  501  0.00000000000E+00  0.00000000000E+00  0.10892892777E+04  0.10892892777E+04  0.00000000000E+00 0. -1.
         21   -1    0    0  501  502 -0.00000000000E+00 -0.00000000000E+00 -0.28983094684E+03  0.28983094684E+03  0.00000000000E+00 0. -1.
         25    1    1    2    0    0 -0.29709463810E+03  0.25954392957E+03  0.13213175755E+03  0.43441003294E+03  0.12500000000E+03 0.  0.
         25    1    1    2    0    0  0.13450197056E+03 -0.14065561547E+03 -0.54776207987E+01  0.23136505047E+03  0.12500000000E+03 0.  0.
         25    1    1    2    0    0  0.16259266754E+03 -0.11888831410E+03  0.67280419412E+03  0.71334514115E+03  0.12500000000E+03 0.  0.
</event>
<event>
 5    0  0.5720942E-005  0.4300735E+03  0.7546771E-02  0.1033837E+00
         21   -1    0    0  502  501  0.00000000000E+00  0.00000000000E+00  0.12392591308E+04  0.12392591308E+04  0.00000000000E+00 0. -1.
         21   -1    0    0  501  502 -0.00000000000E+00 -0.00000000000E+00 -0.14925308189E+03  0.14925308189E+03  0.00000000000E+00 0. -1.
         25    1    1    2    0    0 -0.33141283937E+03  0.16206335201E+02  0.49752732868E+03  0.61094644461E+03  0.12500000000E+03 0.  0.
         25    1    1    2    0    0  0.31569293432E+03  0.18701315650E+02  0.53685735228E+03  0.63549396904E+03  0.12500000000E+03 0.  0.
         25    1    1    2    0    0  0.15719905050E+02 -0.34907650852E+02  0.55621367917E+02  0.14207179900E+03  0.12500000000E+03 0.  0.
</event>
<event>
 5    0  0.5720942E-005  0.2474987E+03  0.7546771E-02  0.1114896E+00
         21   -1    0    0  502  501  0.00000000000E+00  0.00000000000E+00  0.41013495980E+03  0.41013495980E+03  0.00000000000E+00 0. -1.
         21   -1    0    0  501  502 -0.00000000000E+00 -0.00000000000E+00 -0.14935472084E+03  0.14935472084E+03  0.00000000000E+00 0. -1.
         25    1    1    2    0    0 -0.74658011010E+02 -0.19106549577E+02  0.75454984111E+01  0.14704017611E+03  0.12500000000E+03 0.  0.
         25    1    1    2    0    0  0.12662711380E+02 -0.84803412707E+02  0.11894821271E+03  0.19268015044E+03  0.12500000000E+03 0.  0.
         25    1    1    2    0    0  0.61995299629E+02  0.10390996228E+03  0.13428652783E+03  0.21976935409E+03  0.12500000000E+03 0.  0.
</event>
<event>
 5    0  0.5720942E-005  0.4197624E+03  0.7546771E-02  0.1037144E+00
         21   -1    0    0  502  501  0.00000000000E+00  0.00000000000E+00  0.24500421527E+03  0.24500421527E+03  0.00000000000E+00 0.  1.
         21   -1    0    0  501  502 -0.00000000000E+00 -0.00000000000E+00 -0.71917315134E+03  0.71917315134E+03  0.00000000000E+00 0.  1.
         25    1    1    2    0    0 -0.17937969741E+03 -0.55794386352E+02 -0.72405189948E+02  0.23697595009E+03  0.12500000000E+03 0.  0.
         25    1    1    2    0    0  0.23923983725E+03 -0.13970766537E+03 -0.37995907475E+03  0.48656739510E+03  0.12500000000E+03 0.  0.
         25    1    1    2    0    0 -0.59860139841E+02  0.19550205172E+03 -0.21804671365E+02  0.24063402141E+03  0.12500000000E+03 0.  0.
</event>
<event>
 5    0  0.5720942E-005  0.3755767E+03  0.7546771E-02  0.1052581E+00
         21   -1    0    0  502  501  0.00000000000E+00  0.00000000000E+00  0.71130364270E+02  0.71130364270E+02  0.00000000000E+00 0.  1.
         21   -1    0    0  501  502 -0.00000000000E+00 -0.00000000000E+00 -0.19830896540E+04  0.19830896540E+04  0.00000000000E+00 0.  1.
         25    1    1    2    0    0  0.18096149697E+02 -0.83806062868E+02 -0.97608966007E+03  0.98778892042E+03  0.12500000000E+03 0.  0.
         25    1    1    2    0    0  0.18473695273E+02  0.18542488219E+03 -0.16619889289E+03  0.27923240563E+03  0.12500000000E+03 0.  0.
         25    1    1    2    0    0 -0.36569844969E+02 -0.10161881933E+03 -0.76967073677E+03  0.78719869222E+03  0.12500000000E+03 0.  0.
</event>
<event>
 5    0  0.5720942E-005  0.3168893E+03  0.7546771E-02  0.1077090E+00
         21   -1    0    0  502  501  0.00000000000E+00  0.00000000000E+00  0.11622173785E+03  0.11622173785E+03  0.00000000000E+00 0. -1.
         21   -1    0    0  501  502 -0.00000000000E+00 -0.00000000000E+00 -0.86402793129E+03  0.86402793129E+03  0.00000000000E+00 0. -1.
         25    1    1    2    0    0  0.10163675771E+03  0.10555275323E+03 -0.70071471154E+02  0.20495469085E+03  0.12500000000E+03 0.  0.
         25    1    1    2    0    0  0.42297351745E+02 -0.11789237785E+03 -0.40841823910E+03  0.44510463574E+03  0.12500000000E+03 0.  0.
         25    1    1    2    0    0 -0.14393410945E+03  0.12339624623E+02 -0.26931648319E+03  0.33019034255E+03  0.12500000000E+03 0.  0.
</event>
<event>
 5    0  0.5720942E-005  0.5148883E+03  0.7546771E-02  0.1009964E+00
         21   -1    0    0  502  501  0.00000000000E+00  0.00000000000E+00  0.15024371969E+04  0.15024371969E+04  0.00000000000E+00 0. -1.
         21   -1    0    0  501  502 -0.00000000000E+00 -0.00000000000E+00 -0.17645328551E+03  0.17645328551E+03  0.00000000000E+00 0. -1.
         25    1    1    2    0    0  0.11654476882E+03 -0.85978574878E+02  0.16371732915E+03  0.25180024293E+03  0.12500000000E+03 0.  0.
         25    1    1    2    0    0 -0.28096878925E+03 -0.25478912903E+03  0.39062603518E+03  0.55863642932E+03  0.12500000000E+03 0.  0.
         25    1    1    2    0    0  0.16442402042E+03  0.34076770391E+03  0.77164054711E+03  0.86845381021E+03  0.12500000000E+03 0.  0.
</event>
<event>
 5    0  0.5720942E-005  0.3218783E+03  0.7546771E-02  0.1074788E+00
         21   -1    0    0  502  501  0.00000000000E+00  0.00000000000E+00  0.17519948902E+03  0.17519948902E+03  0.00000000000E+00 0.  1.
         21   -1    0    0  501  502 -0.00000000000E+00 -0.00000000000E+00 -0.59135814315E+03  0.59135814315E+03  0.00000000000E+00 0.  1.
         25    1    1    2    0    0  0.11218724685E+03 -0.35435717917E+02 -0.16867324974E+03  0.24066020369E+03  0.12500000000E+03 0.  0.
         25    1    1    2    0    0  0.56844258460E+02  0.68252261434E+02  0.48981731389E+02  0.16097779636E+03  0.12500000000E+03 0.  0.
         25    1    1    2    0    0 -0.16903150532E+03 -0.32816543518E+02 -0.29646713577E+03  0.36491963213E+03  0.12500000000E+03 0.  0.
</event>
<event>
 5    0  0.5720942E-005  0.2866352E+03  0.7546771E-02  0.1092119E+00
         21   -1    0    0  502  501  0.00000000000E+00  0.00000000000E+00  0.89178536291E+02  0.89178536291E+02  0.00000000000E+00 0.  1.
         21   -1    0    0  501  502 -0.00000000000E+00 -0.00000000000E+00 -0.92129474001E+03  0.92129474001E+03  0.00000000000E+00 0.  1.
         25    1    1    2    0    0  0.19800656669E+03  0.22184784930E+02 -0.32697981272E+03  0.40278972562E+03  0.12500000000E+03 0.  0.
         25    1    1    2    0    0 -0.12213983420E+03  0.37898431384E+02 -0.29014373832E+03  0.34082667015E+03  0.12500000000E+03 0.  0.
         25    1    1    2    0    0 -0.75866732498E+02 -0.60083216314E+02 -0.21499265268E+03  0.26685688053E+03  0.12500000000E+03 0.  0.
</event>
<event>
 5    0  0.5720942E-005  0.4690750E+03  0.7546771E-02  0.1022182E+00
         21   -1    0    0  502  501  0.00000000000E+00  0.00000000000E+00  0.95840099870E+03  0.95840099870E+03  0.00000000000E+00 0.  1.
         21   -1    0    0  501  502 -0.00000000000E+00 -0.00000000000E+00 -0.22958168805E+03  0.22958168805E+03  0.00000000000E+00 0.  1.
         25    1    1    2    0    0  0.14460006355E+03  0.95220143875E+02 -0.44342799396E+01  0.21359006769E+03  0.12500000000E+03 0.  0.
         25    1    1    2    0    0 -0.31561580855E+03 -0.14366426747E+03  0.25248004937E+03  0.44679294498E+03  0.12500000000E+03 0.  0.
         25    1    1    2    0    0  0.17101574500E+03  0.48444123595E+02  0.48077354122E+03  0.52759967408E+03  0.12500000000E+03 0.  0.
</event>
<event>
 5    0  0.5720942E-005  0.3202707E+03  0.7546771E-02  0.1075525E+00
         21   -1    0    0  502  501  0.00000000000E+00  0.00000000000E+00  0.67002618751E+02  0.67002618751E+02  0.00000000000E+00 0. -1.
         21   -1    0    0  501  502 -0.00000000000E+00 -0.00000000000E+00 -0.15308856753E+04  0.15308856753E+04  0.00000000000E+00 0. -1.
         25    1    1    2    0    0 -0.13199215770E+03 -0.12681908192E+03 -0.54237562210E+03  0.58591921344E+03  0.12500000000E+03 0.  0.
         25    1    1    2    0    0  0.60850268542E+02  0.76838337924E+01 -0.73484364263E+03  0.74791842844E+03  0.12500000000E+03 0.  0.
         25    1    1    2    0    0  0.71141889161E+02  0.11913524813E+03 -0.18666379185E+03  0.26405065220E+03  0.12500000000E+03 0.  0.
</event>
<event>
 5    0  0.5720942E-005  0.3568713E+03  0.7546771E-02  0.1059830E+00
         21   -1    0    0  502  501  0.00000000000E+00  0.00000000000E+00  0.13404663337E+04  0.13404663337E+04  0.00000000000E+00 0. -1.
         21   -1    0    0  501  502 -0.00000000000E+00 -0.00000000000E+00 -0.95009563383E+02  0.95009563383E+02  0.00000000000E+00 0. -1.
         25    1    1    2    0    0  0.84901288191E+01 -0.10285913053E+03  0.25403627785E+03  0.30134948728E+03  0.12500000000E+03 0.  0.
         25    1    1    2    0    0 -0.24181747589E+03  0.76274768621E+02  0.46214312140E+03  0.54175160049E+03  0.12500000000E+03 0.  0.
         25    1    1    2    0    0  0.23332734707E+03  0.26584361905E+02  0.52927737110E+03  0.59237480935E+03  0.12500000000E+03 0.  0.
</event>
<event>
 5    0  0.5720942E-005  0.2485543E+03  0.7546771E-02  0.1114222E+00
         21   -1    0    0  502  501  0.00000000000E+00  0.00000000000E+00  0.10510844932E+03  0.10510844932E+03  0.00000000000E+00 0. -1.
         21   -1    0    0  501  502 -0.00000000000E+00 -0.00000000000E+00 -0.58776648055E+03  0.58776648055E+03  0.00000000000E+00 0. -1.
         25    1    1    2    0    0  0.50769577870E+02 -0.66890524157E+02 -0.79071129640E+02  0.17008567195E+03  0.12500000000E+03 0.  0.
         25    1    1    2    0    0  0.11868955789E+02 -0.65631809518E+00 -0.32571412077E+03  0.34907877526E+03  0.12500000000E+03 0.  0.
         25    1    1    2    0    0 -0.62638533660E+02  0.67546842253E+02 -0.77872780812E+02  0.17371048267E+03  0.12500000000E+03 0.  0.
</event>
<event>
 5    0  0.5720942E-005  0.4111250E+03  0.7546771E-02  0.1039994E+00
         21   -1    0    0  502  501  0.00000000000E+00  0.00000000000E+00  0.10759946534E+03  0.10759946534E+03  0.00000000000E+00 0. -1.
         21   -1    0    0  501  502 -0.00000000000E+00 -0.00000000000E+00 -0.15708602841E+04  0.15708602841E+04  0.00000000000E+00 0. -1.
         25    1    1    2    0    0  0.42283814353E+02 -0.22822749484E+03 -0.33072585577E+03  0.42294243347E+03  0.12500000000E+03 0.  0.
         25    1    1    2    0    0 -0.76990805843E+02 -0.43733498028E+02 -0.76533255126E+03  0.78051208642E+03  0.12500000000E+03 0.  0.
         25    1    1    2    0    0  0.34706991490E+02  0.27196099287E+03 -0.36720241169E+03  0.47500522950E+03  0.12500000000E+03 0.  0.
</event>
<event>
 5    0  0.5720942E-005  0.3058376E+03  0.7546771E-02  0.1082358E+00
         21   -1    0    0  502  501  0.00000000000E+00  0.00000000000E+00  0.14048696937E+03  0.14048696937E+03  0.00000000000E+00 0.  1.
         21   -1    0    0  501  502 -0.00000000000E+00 -0.00000000000E+00 -0.66580314544E+03  0.66580314544E+03  0.00000000000E+00 0.  1.
         25    1    1    2    0    0  0.32844010152E+02 -0.71914455797E+02 -0.15376065472E+02  0.14870050889E+03  0.12500000000E+03 0.  0.
         25    1    1    2    0    0 -0.91682477592E+02  0.13744501665E+03 -0.12159040159E+03  0.24022080480E+03  0.12500000000E+03 0.  0.
         25    1    1    2    0    0  0.58838467440E+02 -0.65530560855E+02 -0.38834970901E+03  0.41736880111E+03  0.12500000000E+03 0.  0.
</event>
<event>
 5    0  0.5720942E-005  0.4580279E+03  0.7546771E-02  0.1025355E+00
         21   -1    0    0  502  501  0.00000000000E+00  0.00000000000E+00  0.15973374313E+03  0.15973374313E+03  0.00000000000E+00 0.  1.
         21   -1    0    0  501  502 -0.00000000000E+00 -0.00000000000E+00 -0.13133700420E+04  0.13133700420E+04  0.00000000000E+00 0.  1.
         25    1    1    2    0    0  0.23824399288E+03  0.99926526920E+02 -0.18126408961E+03  0.33945129416E+03  0.12500000000E+03 0.  0.
         25    1    1    2    0    0 -0.15023260675E+03 -0.44096180855E+02 -0.94817695135E+03  0.96911239821E+03  0.12500000000E+03 0.  0.
         25    1    1    2    0    0 -0.88011386126E+02 -0.55830346066E+02 -0.24195257960E+02  0.16454009280E+03  0.12500000000E+03 0.  0.
</event>
<event>
 5    0  0.5720942E-005  0.5257335E+03  0.7546771E-02  0.1007272E+00
         21   -1    0    0  502  501  0.00000000000E+00  0.00000000000E+00  0.20673879794E+04  0.20673879794E+04  0.00000000000E+00 0.  1.
         21   -1    0    0  501  502 -0.00000000000E+00 -0.00000000000E+00 -0.13369321629E+03  0.13369321629E+03  0.00000000000E+00 0.  1.
         25    1    1    2    0    0  0.36243169824E+03  0.22582557241E+02  0.70930405814E+03  0.80660024465E+03  0.12500000000E+03 0.  0.
         25    1    1    2    0    0 -0.22004958434E+03 -0.21636050949E+03  0.36817735435E+03  0.49640029602E+03  0.12500000000E+03 0.  0.
         25    1    1    2    0    0 -0.14238211390E+03  0.19377795225E+03  0.85621335061E+03  0.89808065501E+03  0.12500000000E+03 0.  0.
</event>
<event>
 5    0  0.5720942E-005  0.2404877E+03  0.7546771E-02  0.1119468E+00
         21   -1    0    0  502  501  0.00000000000E+00  0.00000000000E+00  0.62231335162E+03  0.62231335162E+03  0.00000000000E+00 0.  1.
         21   -1    0    0  501  502 -0.00000000000E+00 -0.00000000000E+00 -0.92934449109E+02  0.92934449109E+02  0.00000000000E+00 0.  1.
         25    1    1    2    0    0 -0.47021721745E+02 -0.31435428337E+02  0.29102896435E+03  0.32174848339E+03  0.12500000000E+03 0.  0.
         25    1    1    2    0    0  0.11289666381E+03  0.26833929161E+02  0.11333674888E+03  0.20478265332E+03  0.12500000000E+03 0.  0.
         25    1    1    2    0    0 -0.65874942062E+02  0.46014991753E+01  0.12501318928E+03  0.18871666402E+03  0.12500000000E+03 0.  0.
</event>
<event>
 5    0  0.5939264E-005  0.3063728E+03  0.7546771E-02  0.1082098E+00
         21   -1    0    0  502  501  0.00000000000E+00  0.00000000000E+00  0.45478951979E+03  0.45478951979E+03  0.00000000000E+00 0. -1.
         21   -1    0    0  501  502 -0.00000000000E+00 -0.00000000000E+00 -0.20639064970E+03  0.20639064970E+03  0.00000000000E+00 0.  1.
         25    1    1    2    0    0 -0.75802303332E+02  0.12539661309E+03  0.95393242977E+02  0.21493061804E+03  0.12500000000E+03 0.  0.
         25    1    1    2    0    0  0.13232599374E+03 -0.13927167918E+03 -0.14063099575E+02  0.22962913581E+03  0.12500000000E+03 0.  0.
         25    1    1    2    0    0 -0.56523690405E+02  0.13875066094E+02  0.16706872669E+03  0.21662041564E+03  0.12500000000E+03 0.  0.
</event>
<event>
 5    0  0.5720942E-005  0.3815779E+03  0.7546771E-02  0.1050352E+00
         21   -1    0    0  502  501  0.00000000000E+00  0.00000000000E+00  0.47055515260E+03  0.47055515260E+03  0.00000000000E+00 0.  1.
         21   -1    0    0  501  502 -0.00000000000E+00 -0.00000000000E+00 -0.30942540574E+03  0.30942540574E+03  0.00000000000E+00 0.  1.
         25    1    1    2    0    0  0.22843117433E+03  0.82855020565E+02  0.21423047536E+03  0.34722536257E+03  0.12500000000E+03 0.  0.
         25    1    1    2    0    0 -0.15704593940E+03 -0.96503646933E+02  0.79587650556E+02  0.23650702965E+03  0.12500000000E+03 0.  0.
         25    1    1    2    0    0 -0.71385234931E+02  0.13648626369E+02 -0.13268837905E+03  0.19624816611E+03  0.12500000000E+03 0.  0.
</event>
<event>
 5    0  0.5720942E-005  0.3691549E+03  0.7546771E-02  0.1055017E+00
         21   -1    0    0  502  501  0.00000000000E+00  0.00000000000E+00  0.65811291904E+03  0.65811291904E+03  0.00000000000E+00 0.  1.
         21   -1    0    0  501  502 -0.00000000000E+00 -0.00000000000E+00 -0.20706981323E+03  0.20706981323E+03  0.00000000000E+00 0.  1.
         25    1    1    2    0    0 -0.82064573965E+02  0.90493567468E+01  0.38443868405E+03  0.41259494295E+03  0.12500000000E+03 0.  0.
         25    1    1    2    0    0  0.39512996619E+02 -0.21883330444E+02  0.21548282465E+03  0.25317583765E+03  0.12500000000E+03 0.  0.
         25    1    1    2    0    0  0.42551577346E+02  0.12833973697E+02 -0.14887840289E+03  0.19941195166E+03  0.12500000000E+03 0.  0.
</event>
<event>
 5    0  0.5720942E-005  0.3764404E+03  0.7546771E-02  0.1052257E+00
         21   -1    0    0  502  501  0.00000000000E+00  0.00000000000E+00  0.18945775754E+03  0.18945775754E+03  0.00000000000E+00 0. -1.
         21   -1    0    0  501  502 -0.00000000000E+00 -0.00000000000E+00 -0.74796307361E+03  0.74796307361E+03  0.00000000000E+00 0. -1.
         25    1    1    2    0    0  0.15487988495E+02  0.27678415603E+02  0.44576973703E+01  0.12903814763E+03  0.12500000000E+03 0.  0.
         25    1    1    2    0    0  0.45218456744E+02 -0.20363838358E+03 -0.52819562418E+03  0.58148853600E+03  0.12500000000E+03 0.  0.
         25    1    1    2    0    0 -0.60706445239E+02  0.17595996797E+03 -0.34767389269E+02  0.22689414752E+03  0.12500000000E+03 0.  0.
</event>
<event>
 5    0  0.5720942E-005  0.3341263E+03  0.7546771E-02  0.1069326E+00
         21   -1    0    0  502  501  0.00000000000E+00  0.00000000000E+00  0.12943163397E+04  0.12943163397E+04  0.00000000000E+00 0. -1.
         21   -1    0    0  501  502 -0.00000000000E+00 -0.00000000000E+00 -0.86254314776E+02  0.86254314776E+02  0.00000000000E+00 0. -1.
         25    1    1    2    0    0  0.67363927673E+02 -0.19910003762E+02  0.14882468497E+03  0.20665936673E+03  0.12500000000E+03 0.  0.
         25    1    1    2    0    0  0.12526066381E+03  0.12470945507E+03  0.27461096704E+03  0.34968395059E+03  0.12500000000E+03 0.  0.
         25    1    1    2    0    0 -0.19262459148E+03 -0.10479945131E+03  0.78462637294E+03  0.82422733718E+03  0.12500000000E+03 0.  0.
</event>
<event>
 5    0  0.5720942E-005  0.3427860E+03  0.7546771E-02  0.1065615E+00
         21   -1    0    0  502  501  0.00000000000E+00  0.00000000000E+00  0.11737579576E+03  0.11737579576E+03  0.00000000000E+00 0. -1.
         21   -1    0    0  501  502 -0.00000000000E+00 -0.00000000000E+00 -0.10010775365E+04  0.10010775365E+04  0.00000000000E+00 0. -1.
         25    1    1    2    0    0  0.76149511557E+02 -0.23730862894E+02 -0.23074158620E+03  0.27427829219E+03  0.12500000000E+03 0.  0.
         25    1    1    2    0    0 -0.28683534130E+02 -0.16641975917E+03 -0.55220350746E+03  0.59082315037E+03  0.12500000000E+03 0.  0.
         25    1    1    2    0    0 -0.47465977427E+02  0.19015062206E+03 -0.10075664710E+03  0.25335188971E+03  0.12500000000E+03 0.  0.
</event>
<event>
 5    0  0.5720942E-005  0.3599769E+03  0.7546771E-02  0.1058593E+00
         21   -1    0    0  502  501  0.00000000000E+00  0.00000000000E+00  0.20541383165E+03  0.20541383165E+03  0.00000000000E+00 0. -1.
         21   -1    0    0  501  502 -0.00000000000E+00 -0.00000000000E+00 -0.63084043373E+03  0.63084043373E+03  0.00000000000E+00 0. -1.
         25    1    1    2    0    0  0.61833618911E+02 -0.70472977972E+02 -0.30057460468E+03  0.33876235037E+03  0.12500000000E+03 0.  0.
         25    1    1    2    0    0  0.28899955933E+01 -0.14162164056E+03  0.41471724404E+02  0.19341650673E+03  0.12500000000E+03 0.  0.
         25    1    1    2    0    0 -0.64723614505E+02  0.21209461853E+03 -0.16632372181E+03  0.30407540828E+03  0.12500000000E+03 0.  0.
</event>
<event>
 5    0  0.5720942E-005  0.2662806E+03  0.7546771E-02  0.1103427E+00
         21   -1    0    0  502  501  0.00000000000E+00  0.00000000000E+00  0.92824289669E+02  0.92824289669E+02  0.00000000000E+00 0.  1.
         21   -1    0    0  501  502 -0.00000000000E+00 -0.00000000000E+00 -0.76386615618E+03  0.76386615618E+03  0.00000000000E+00 0.  1.
         25    1    1    2    0    0 -0.16099585607E+03  0.16874645618E+02 -0.32989360811E+03  0.38814844068E+03  0.12500000000E+03 0.  0.
         25    1    1    2    0    0  0.13849409880E+03 -0.49310252220E+00 -0.24727644708E+03  0.30976039100E+03  0.12500000000E+03 0.  0.
         25    1    1    2    0    0  0.22501757266E+02 -0.16381543095E+02 -0.93871811320E+02  0.15878161416E+03  0.12500000000E+03 0.  0.
</event>
<event>
 5    0  0.5720942E-005  0.3177701E+03  0.7546771E-02  0.1076680E+00
         21   -1    0    0  502  501  0.00000000000E+00  0.00000000000E+00  0.17968336620E+03  0.17968336620E+03  0.00000000000E+00 0.  1.
         21   -1    0    0  501  502 -0.00000000000E+00 -0.00000000000E+00 -0.56197660605E+03  0.56197660605E+03  0.00000000000E+00 0.  1.
         25    1    1    2    0    0 -0.64887926193E-01 -0.69212346471E+02 -0.12532882813E+03  0.19005964399E+03  0.12500000000E+03 0.  0.
         25    1    1    2    0    0  0.50999404737E+02  0.34325633562E+02 -0.35487754799E+03  0.38123780305E+03  0.12500000000E+03 0.  0.
         25    1    1    2    0    0 -0.50934516810E+02  0.34886712908E+02  0.97913136270E+02  0.17036252521E+03  0.12500000000E+03 0.  0.
</event>
<event>
 5    0  0.5720942E-005  0.3087900E+03  0.7546771E-02  0.1080927E+00
         21   -1    0    0  502  501  0.00000000000E+00  0.00000000000E+00  0.17129371897E+03  0.17129371897E+03  0.00000000000E+00 0. -1.
         21   -1    0    0  501  502 -0.00000000000E+00 -0.00000000000E+00 -0.55665363359E+03  0.55665363359E+03  0.00000000000E+00 0. -1.
         25    1    1    2    0    0  0.12687638139E+03  0.10828413608E+03 -0.16564759847E+03  0.26624649699E+03  0.12500000000E+03 0.  0.
         25    1    1    2    0    0  0.57014207887E+02 -0.11514706241E+03 -0.64778648583E+02  0.19060624123E+03  0.12500000000E+03 0.  0.
         25    1    1    2    0    0 -0.18389058928E+03  0.68629263347E+01 -0.15493366757E+03  0.27109461435E+03  0.12500000000E+03 0.  0.
</event>
<event>
 5    0  0.5720942E-005  0.4040974E+03  0.7546771E-02  0.1042370E+00
         21   -1    0    0  502  501  0.00000000000E+00  0.00000000000E+00  0.94994933381E+03  0.94994933381E+03  0.00000000000E+00 0.  1.
         21   -1    0    0  501  502 -0.00000000000E+00 -0.00000000000E+00 -0.17189831029E+03  0.17189831029E+03  0.00000000000E+00 0.  1.
         25    1    1    2    0    0  0.22320224516E+03  0.25673985696E+03  0.41711979443E+03  0.55258349532E+03  0.12500000000E+03 0.  0.
         25    1    1    2    0    0 -0.95751039087E+02 -0.57767138201E+02  0.97720229008E+02  0.19411220183E+03  0.12500000000E+03 0.  0.
         25    1    1    2    0    0 -0.12745120607E+03 -0.19897271876E+03  0.26321100008E+03  0.37515194695E+03  0.12500000000E+03 0.  0.
</event>
<event>
 5    0  0.5720942E-005  0.2936802E+03  0.7546771E-02  0.1088443E+00
         21   -1    0    0  502  501  0.00000000000E+00  0.00000000000E+00  0.64736103037E+02  0.64736103037E+02  0.00000000000E+00 0.  1.
         21   -1    0    0  501  502 -0.00000000000E+00 -0.00000000000E+00 -0.13323019072E+04  0.13323019072E+04  0.00000000000E+00 0.  1.
         25    1    1    2    0    0  0.11578231511E+03 -0.30770440623E+02 -0.55897892287E+03  0.58517928938E+03  0.12500000000E+03 0.  0.
         25    1    1    2    0    0  0.70416077787E+02  0.10687399193E+02 -0.14187412910E+03  0.20205423287E+03  0.12500000000E+03 0.  0.
         25    1    1    2    0    0 -0.18619839290E+03  0.20083041430E+02 -0.56671275221E+03  0.60980448800E+03  0.12500000000E+03 0.  0.
</event>
<event>
 5    0  0.5720942E-005  0.2966788E+03  0.7546771E-02  0.1086913E+00
         21   -1    0    0  502  501  0.00000000000E+00  0.00000000000E+00  0.46847562000E+03  0.46847562000E+03  0.00000000000E+00 0. -1.
         21   -1    0    0  501  502 -0.00000000000E+00 -0.00000000000E+00 -0.18788235895E+03  0.18788235895E+03  0.00000000000E+00 0. -1.
         25    1    1    2    0    0 -0.46698111242E+02  0.13710630343E+03 -0.42110973347E+02  0.19590095995E+03  0.12500000000E+03 0.  0.
         25    1    1    2    0    0  0.46724221803E+02 -0.85007963325E+02  0.27426533464E+03  0.31663224807E+03  0.12500000000E+03 0.  0.
         25    1    1    2    0    0 -0.26110560542E-01 -0.52098340104E+02  0.48438899749E+02  0.14382477093E+03  0.12500000000E+03 0.  0.
</event>
<event>
 5    0  0.5720942E-005  0.2757331E+03  0.7546771E-02  0.1098042E+00
         21   -1    0    0  502  501  0.00000000000E+00  0.00000000000E+00  0.52566129002E+02  0.52566129002E+02  0.00000000000E+00 0. -1.
         21   -1    0    0  501  502 -0.00000000000E+00 -0.00000000000E+00 -0.14463452053E+04  0.14463452053E+04  0.00000000000E+00 0. -1.
         25    1    1    2    0    0  0.64938787127E+02 -0.65114717670E+02 -0.38210888278E+03  0.41241868390E+03  0.12500000000E+03 0.  0.
         25    1    1    2    0    0 -0.78241532203E+02  0.32499562559E+02 -0.90758358312E+03  0.92006028024E+03  0.12500000000E+03 0.  0.
         25    1    1    2    0    0  0.13302745076E+02  0.32615155110E+02 -0.10408661037E+03  0.16643237013E+03  0.12500000000E+03 0.  0.
</event>
<event>
 5    0  0.5720942E-005  0.2477700E+03  0.7546771E-02  0.1114722E+00
         21   -1    0    0  502  501  0.00000000000E+00  0.00000000000E+00  0.18148326958E+03  0.18148326958E+03  0.00000000000E+00 0. -1.
         21   -1    0    0  501  502 -0.00000000000E+00 -0.00000000000E+00 -0.33826808038E+03  0.33826808038E+03  0.00000000000E+00 0. -1.
         25    1    1    2    0    0  0.75503805079E+02 -0.78466830928E+02 -0.12226155108E+03  0.20598726905E+03  0.12500000000E+03 0.  0.
         25    1    1    2    0    0  0.34245365564E+01 -0.29845309928E+02 -0.16528378421E+02  0.12961734941E+03  0.12500000000E+03 0.  0.
         25    1    1    2    0    0 -0.78928341636E+02  0.10831214086E+03 -0.17994881302E+02  0.18414673150E+03  0.12500000000E+03 0.  0.
</event>
<event>
 5    0  0.5720942E-005  0.3340811E+03  0.7546771E-02  0.1069345E+00
         21   -1    0    0  502  501  0.00000000000E+00  0.00000000000E+00  0.12423706470E+03  0.12423706470E+03  0.00000000000E+00 0.  1.
         21   -1    0    0  501  502 -0.00000000000E+00 -0.00000000000E+00 -0.89836441569E+03  0.89836441569E+03  0.00000000000E+00 0.  1.
         25    1    1    2    0    0  0.84248145249E+01 -0.72036866421E+02 -0.50184246206E+02  0.15298282973E+03  0.12500000000E+03 0.  0.
         25    1    1    2    0    0  0.19114383622E+03 -0.19052920227E+02 -0.33386986203E+03  0.40496057174E+03  0.12500000000E+03 0.  0.
         25    1    1    2    0    0 -0.19956865074E+03  0.91089786648E+02 -0.39007324276E+03  0.46465807892E+03  0.12500000000E+03 0.  0.
</event>
<event>
 5    0  0.6105675E-005  0.3633554E+03  0.7546771E-02  0.1057263E+00
         21   -1    0    0  502  501  0.00000000000E+00  0.00000000000E+00  0.65547150125E+03  0.65547150125E+03  0.00000000000E+00 0.  1.
         21   -1    0    0  501  502 -0.00000000000E+00 -0.00000000000E+00 -0.20142313093E+03  0.20142313093E+03  0.00000000000E+00 0.  1.
         25    1    1    2    0    0 -0.20557070848E+02  0.64960176979E+02 -0.51063419046E+02  0.15124447269E+03  0.12500000000E+03 0.  0.
         25    1    1    2    0    0  0.17182852959E+03 -0.10763906280E+01  0.69396868128E+02  0.22353328053E+03  0.12500000000E+03 0.  0.
         25    1    1    2    0    0 -0.15127145875E+03 -0.63883786351E+02  0.43571492123E+03  0.48211687895E+03  0.12500000000E+03 0.  0.
</event>
<event>
 5    0  0.5720942E-005  0.2462314E+03  0.7546771E-02  0.1115710E+00
         21   -1    0    0  502  501  0.00000000000E+00  0.00000000000E+00  0.57120657587E+03  0.57120657587E+03  0.00000000000E+00 0.  1.
         21   -1    0    0  501  502 -0.00000000000E+00 -0.00000000000E+00 -0.10614353635E+03  0.10614353635E+03  0.00000000000E+00 0.  1.
         25    1    1    2    0    0 -0.76006966460E+01 -0.37143267636E+02  0.11812237033E+03  0.17611157626E+03  0.12500000000E+03 0.  0.
         25    1    1    2    0    0 -0.14168211325E+02  0.23313167078E+02 -0.37982837020E+01  0.12799870675E+03  0.12500000000E+03 0.  0.
         25    1    1    2    0    0  0.21768907971E+02  0.13830100558E+02  0.35073895289E+03  0.37323982921E+03  0.12500000000E+03 0.  0.
</event>
<event>
 5    0  0.5720942E-005  0.3136269E+03  0.7546771E-02  0.1078620E+00
         21   -1    0    0  502  501  0.00000000000E+00  0.00000000000E+00  0.66733831059E+02  0.66733831059E+02  0.00000000000E+00 0. -1.
         21   -1    0    0  501  502 -0.00000000000E+00 -0.00000000000E+00 -0.14739422230E+04  0.14739422230E+04  0.00000000000E+00 0. -1.
         25    1    1    2    0    0 -0.37894247135E+02 -0.16088787550E+02 -0.52953107067E+03  0.54563997091E+03  0.12500000000E+03 0.  0.
         25    1    1    2    0    0 -0.15155647895E+03 -0.91921714580E+02 -0.38262844158E+03  0.43982779838E+03  0.12500000000E+03 0.  0.
         25    1    1    2    0    0  0.18945072609E+03  0.10801050213E+03 -0.49504887965E+03  0.55520828472E+03  0.12500000000E+03 0.  0.
</event>
<event>
 5    0  0.5720942E-005  0.2565990E+03  0.7546771E-02  0.1109204E+00
         21   -1    0    0  502  501  0.00000000000E+00  0.00000000000E+00  0.46203587750E+03  0.46203587750E+03  0.00000000000E+00 0. -1.
         21   -1    0    0  501  502 -0.00000000000E+00 -0.00000000000E+00 -0.14250638732E+03  0.14250638732E+03  0.00000000000E+00 0. -1.
         25    1    1    2    0    0  0.42211735959E+02 -0.94151370727E+02  0.53089401072E+02  0.17055730934E+03  0.12500000000E+03 0.  0.
         25    1    1    2    0    0 -0.12105519906E+03  0.66854237164E+02  0.18680000359E+03  0.26389977565E+03  0.12500000000E+03 0.  0.
         25    1    1    2    0    0  0.78843463103E+02  0.27297133564E+02  0.79640085519E+02  0.17008517983E+03  0.12500000000E+03 0.  0.
</event>
<event>
 5    0  0.5720942E-005  0.2662648E+03  0.7546771E-02  0.1103437E+00
         21   -1    0    0  502  501  0.00000000000E+00  0.00000000000E+00  0.76060539820E+03  0.76060539820E+03  0.00000000000E+00 0.  1.
         21   -1    0    0  501  502 -0.00000000000E+00 -0.00000000000E+00 -0.93211213155E+02  0.93211213155E+02  0.00000000000E+00 0.  1.
         25    1    1    2    0    0 -0.11465278961E+03 -0.10912004047E+03  0.19767892108E+03  0.28240821737E+03  0.12500000000E+03 0.  0.
         25    1    1    2    0    0  0.11076894787E+03  0.97717499239E+02  0.33766097226E+03  0.38917656874E+03  0.12500000000E+03 0.  0.
         25    1    1    2    0    0  0.38838417389E+01  0.11402541234E+02  0.13205429170E+03  0.18223182524E+03  0.12500000000E+03 0.  0.
</event>
<event>
 5    0  0.5720942E-005  0.3606690E+03  0.7546771E-02  0.1058319E+00
         21   -1    0    0  502  501  0.00000000000E+00  0.00000000000E+00  0.51316952484E+03  0.51316952484E+03  0.00000000000E+00 0.  1.
         21   -1    0    0  501  502 -0.00000000000E+00 -0.00000000000E+00 -0.25348759264E+03  0.25348759264E+03  0.00000000000E+00 0.  1.
         25    1    1    2    0    0 -0.23197944387E+03  0.16818232236E+03  0.94047288569E+02  0.32645007033E+03  0.12500000000E+03 0.  0.
         25    1    1    2    0    0  0.80393680211E+02 -0.14182640025E+03  0.11571526780E+03  0.23578145565E+03  0.12500000000E+03 0.  0.
         25    1    1    2    0    0  0.15158576366E+03 -0.26355922107E+02  0.49919375831E+02  0.20442559149E+03  0.12500000000E+03 0.  0.
</event>
<event>
 5    0  0.5720942E-005  0.3682944E+03  0.7546771E-02  0.1055347E+00
         21   -1    0    0  502  501  0.00000000000E+00  0.00000000000E+00  0.10690604422E+04  0.10690604422E+04  0.00000000000E+00 0. -1.
         21   -1    0    0  501  502 -0.00000000000E+00 -0.00000000000E+00 -0.12687849865E+03  0.12687849865E+03  0.00000000000E+00 0. -1.
         25    1    1    2    0    0 -0.12358504519E+03 -0.47403082809E+02  0.24625335826E+03  0.30624505238E+03  0.12500000000E+03 0.  0.
         25    1    1    2    0    0 -0.17941330364E+03  0.35789862135E+02  0.33872281687E+03  0.40475695723E+03  0.12500000000E+03 0.  0.
         25    1    1    2    0    0  0.30299834883E+03  0.11613220674E+02  0.35720576844E+03  0.48493693126E+03  0.12500000000E+03 0.  0.
</event>
<event>
 5    0  0.5720942E-005  0.2305491E+03  0.7546771E-02  0.1126254E+00
         21   -1    0    0  502  501  0.00000000000E+00  0.00000000000E+00  0.82120432370E+02  0.82120432370E+02  0.00000000000E+00 0.  1.
         21   -1    0    0  501  502 -0.00000000000E+00 -0.00000000000E+00 -0.64725505014E+03  0.64725505014E+03  0.00000000000E+00 0.  1.
         25    1    1    2    0    0 -0.21884698739E+02  0.14623064560E+00 -0.40434800762E+03  0.42379390355E+03  0.12500000000E+03 0.  0.
         25    1    1    2    0    0  0.22408747019E+02 -0.30251576975E+02 -0.92520097183E+02  0.16000711933E+03  0.12500000000E+03 0.  0.
         25    1    1    2    0    0 -0.52404827973E+00  0.30105346330E+02 -0.68266512969E+02  0.14557445963E+03  0.12500000000E+03 0.  0.
</event>
<event>
 5    0  0.5720942E-005  0.2486862E+03  0.7546771E-02  0.1114138E+00
         21   -1    0    0  502  501  0.00000000000E+00  0.00000000000E+00  0.11211365089E+03  0.11211365089E+03  0.00000000000E+00 0.  1.
         21   -1    0    0  501  502 -0.00000000000E+00 -0.00000000000E+00 -0.55162640726E+03  0.55162640726E+03  0.00000000000E+00 0.  1.
         25    1    1    2    0    0  0.47995905831E+02  0.33729261215E+02 -0.21042845535E+02  0.13967487744E+03  0.12500000000E+03 0.  0.
         25    1    1    2    0    0 -0.41244746014E+02 -0.10019682096E+03 -0.16492056923E+03  0.23359008146E+03  0.12500000000E+03 0.  0.
         25    1    1    2    0    0 -0.67511598173E+01  0.66467559749E+02 -0.25354934160E+03  0.29047509925E+03  0.12500000000E+03 0.  0.
</event>
<event>
 5    0  0.5720942E-005  0.3023474E+03  0.7546771E-02  0.1084073E+00
         21   -1    0    0  502  501  0.00000000000E+00  0.00000000000E+00  0.37946955204E+03  0.37946955204E+03  0.00000000000E+00 0.  1.
         21   -1    0    0  501  502 -0.00000000000E+00 -0.00000000000E+00 -0.24089936858E+03  0.24089936858E+03  0.00000000000E+00 0.  1.
         25    1    1    2    0    0 -0.81835984549E+02  0.18449776598E+03  0.45293254320E+02  0.24168788324E+03  0.12500000000E+03 0.  0.
         25    1    1    2    0    0  0.62837637034E+02 -0.79800373939E+02  0.13403486055E+03  0.20954000131E+03  0.12500000000E+03 0.  0.
         25    1    1    2    0    0  0.18998347515E+02 -0.10469739204E+03 -0.40757931412E+02  0.16914103606E+03  0.12500000000E+03 0.  0.
</event>
<event>
 5    0  0.5720942E-005  0.2125365E+03  0.7546771E-02  0.1139573E+00
         21   -1    0    0  502  501  0.00000000000E+00  0.00000000000E+00  0.33274472837E+03  0.33274472837E+03  0.00000000000E+00 0. -1.
         21   -1    0    0  501  502 -0.00000000000E+00 -0.00000000000E+00 -0.13575496833E+03  0.13575496833E+03  0.00000000000E+00 0. -1.
         25    1    1    2    0    0 -0.19819653524E+02  0.51321385518E+02  0.13351608624E+03  0.19099279715E+03  0.12500000000E+03 0.  0.
         25    1    1    2    0    0  0.25656905016E+02 -0.21688345488E+02 -0.92586473565E+01  0.12976665078E+03  0.12500000000E+03 0.  0.
         25    1    1    2    0    0 -0.58372514918E+01 -0.29633040030E+02  0.72732321156E+02  0.14774024877E+03  0.12500000000E+03 0.  0.
</event>
<event>
 5    0  0.5720942E-005  0.2565144E+03  0.7546771E-02  0.1109256E+00
         21   -1    0    0  502  501  0.00000000000E+00  0.00000000000E+00  0.49481162144E+03  0.49481162144E+03  0.00000000000E+00 0. -1.
         21   -1    0    0  501  502 -0.00000000000E+00 -0.00000000000E+00 -0.13297915616E+03  0.13297915616E+03  0.00000000000E+00 0. -1.
         25    1    1    2    0    0  0.57466831344E+02  0.42877182365E+02  0.33798087185E+02  0.14801418908E+03  0.12500000000E+03 0.  0.
         25    1    1    2    0    0  0.47111740966E+02 -0.44835553498E+02  0.27392275168E+03  0.30803963524E+03  0.12500000000E+03 0.  0.
         25    1    1    2    0    0 -0.10457857231E+03  0.19583711332E+01  0.54111626417E+02  0.17173695327E+03  0.12500000000E+03 0.  0.
</event>
<event>
 5    0  0.5720942E-005  0.2580453E+03  0.7546771E-02  0.1108323E+00
         21   -1    0    0  502  501  0.00000000000E+00  0.00000000000E+00  0.59791674973E+02  0.59791674973E+02  0.00000000000E+00 0. -1.
         21   -1    0    0  501  502 -0.00000000000E+00 -0.00000000000E+00 -0.11136562668E+04  0.11136562668E+04  0.00000000000E+00 0. -1.
         25    1    1    2    0    0  0.44555502584E+02 -0.61266696787E+02 -0.23645551060E+03  0.27798382945E+03  0.12500000000E+03 0.  0.
         25    1    1    2    0    0 -0.43084238101E+01 -0.44920676315E+02 -0.62710019523E+03  0.64102736645E+03  0.12500000000E+03 0.  0.
         25    1    1    2    0    0 -0.40247078774E+02  0.10618737310E+03 -0.19030888597E+03  0.25443674584E+03  0.12500000000E+03 0.  0.
</event>
<event>
 5    0  0.5720942E-005  0.2451287E+03  0.7546771E-02  0.1116423E+00
         21   -1    0    0  502  501  0.00000000000E+00  0.00000000000E+00  0.11894236995E+04  0.11894236995E+04  0.00000000000E+00 0.  1.
         21   -1    0    0  501  502 -0.00000000000E+00 -0.00000000000E+00 -0.50518669631E+02  0.50518669631E+02  0.00000000000E+00 0.  1.
         25    1    1    2    0    0  0.13096390558E+03 -0.39923750352E+02  0.53392762192E+03  0.56519833321E+03  0.12500000000E+03 0.  0.
         25    1    1    2    0    0 -0.10293824955E+03  0.12485079067E+02  0.39709291592E+03  0.42902207903E+03  0.12500000000E+03 0.  0.
         25    1    1    2    0    0 -0.28025656029E+02  0.27438671285E+02  0.20788449205E+03  0.24572195692E+03  0.12500000000E+03 0.  0.
</event>
<event>
 5    0  0.5720942E-005  0.2649238E+03  0.7546771E-02  0.1104220E+00
         21   -1    0    0  502  501  0.00000000000E+00  0.00000000000E+00  0.53664241029E+02  0.53664241029E+02  0.00000000000E+00 0. -1.
         21   -1    0    0  501  502 -0.00000000000E+00 -0.00000000000E+00 -0.13078474538E+04  0.13078474538E+04  0.00000000000E+00 0. -1.
         25    1    1    2    0    0 -0.14335358222E+03 -0.54350509251E+02 -0.69317576182E+03  0.72084801739E+03  0.12500000000E+03 0.  0.
         25    1    1    2    0    0  0.71454120767E+02  0.13784950633E+02 -0.37440136240E+03  0.40136902771E+03  0.12500000000E+03 0.  0.
         25    1    1    2    0    0  0.71899461454E+02  0.40565558618E+02 -0.18660608852E+03  0.23929464970E+03  0.12500000000E+03 0.  0.
</event>
<event>
 5    0  0.5720942E-005  0.2925386E+03  0.7546771E-02  0.1089031E+00
         21   -1    0    0  502  501  0.00000000000E+00  0.00000000000E+00  0.22453128112E+03  0.22453128112E+03  0.00000000000E+00 0.  1.
         21   -1    0    0  501  502 -0.00000000000E+00 -0.00000000000E+00 -0.38114428645E+03  0.38114428645E+03  0.00000000000E+00 0.  1.
         25    1    1    2    0    0 -0.20522877307E+02 -0.12309657212E+03  0.72722284067E+02  0.19101697610E+03  0.12500000000E+03 0.  0.
         25    1    1    2    0    0 -0.18067149304E+02  0.74149115523E+02 -0.23268546317E+03  0.27494006254E+03  0.12500000000E+03 0.  0.
         25    1    1    2    0    0  0.38590026611E+02  0.48947456594E+02  0.33501737694E+01  0.13971852893E+03  0.12500000000E+03 0.  0.
</event>
<event>
 5    0  0.5720942E-005  0.2088525E+03  0.7546771E-02  0.1142478E+00
         21   -1    0    0  502  501  0.00000000000E+00  0.00000000000E+00  0.23526805515E+03  0.23526805515E+03  0.00000000000E+00 0. -1.
         21   -1    0    0  501  502 -0.00000000000E+00 -0.00000000000E+00 -0.18540282821E+03  0.18540282821E+03  0.00000000000E+00 0. -1.
         25    1    1    2    0    0  0.51467921284E+02 -0.45647837331E+02 -0.10460491414E+02  0.14306325124E+03  0.12500000000E+03 0.  0.
         25    1    1    2    0    0 -0.64228391828E+02  0.26012828920E+02  0.43045744007E+02  0.14926449565E+03  0.12500000000E+03 0.  0.
         25    1    1    2    0    0  0.12760470544E+02  0.19635008412E+02  0.17279974347E+02  0.12834313646E+03  0.12500000000E+03 0.  0.
</event>
<event>
 5    0  0.5720942E-005  0.2410218E+03  0.7546771E-02  0.1119114E+00
         21   -1    0    0  502  501  0.00000000000E+00  0.00000000000E+00  0.58897119662E+03  0.58897119662E+03  0.00000000000E+00 0. -1.
         21   -1    0    0  501  502 -0.00000000000E+00 -0.00000000000E+00 -0.98632211717E+02  0.98632211717E+02  0.00000000000E+00 0. -1.
         25    1    1    2    0    0 -0.33324536588E+02  0.28951408144E+02  0.62246707709E+02  0.14645259094E+03  0.12500000000E+03 0.  0.
         25    1    1    2    0    0 -0.80789577917E+01 -0.11761819382E+03  0.20830853976E+03  0.27003102935E+03  0.12500000000E+03 0.  0.
         25    1    1    2    0    0  0.41403494380E+02  0.88666785676E+02  0.21978373744E+03  0.27111978805E+03  0.12500000000E+03 0.  0.
</event>
<event>
 5    0  0.5720942E-005  0.2526737E+03  0.7546771E-02  0.1111627E+00
         21   -1    0    0  502  501  0.00000000000E+00  0.00000000000E+00  0.15299370522E+03  0.15299370522E+03  0.00000000000E+00 0. -1.
         21   -1    0    0  501  502 -0.00000000000E+00 -0.00000000000E+00 -0.41729816302E+03  0.41729816302E+03  0.00000000000E+00 0. -1.
         25    1    1    2    0    0 -0.49950721246E+02 -0.12999464204E+02 -0.10742876480E+03  0.17271363620E+03  0.12500000000E+03 0.  0.
         25    1    1    2    0    0  0.49210104953E+02  0.13120987206E+03 -0.47459120067E+02  0.19368797855E+03  0.12500000000E+03 0.  0.
         25    1    1    2    0    0  0.74061629300E+00 -0.11821040786E+03 -0.10941657293E+03  0.20389025349E+03  0.12500000000E+03 0.  0.
</event>
<event>
 5    0  0.5720942E-005  0.2418123E+03  0.7546771E-02  0.1118591E+00
         21   -1    0    0  502  501  0.00000000000E+00  0.00000000000E+00  0.33530767288E+03  0.33530767288E+03  0.00000000000E+00 0.  1.
         21   -1    0    0  501  502 -0.00000000000E+00 -0.00000000000E+00 -0.17438673675E+03  0.17438673675E+03  0.00000000000E+00 0.  1.
         25    1    1    2    0    0  0.13174878571E+02 -0.21342714792E+02 -0.64978218381E+02  0.14309527513E+03  0.12500000000E+03 0.  0.
         25    1    1    2    0    0 -0.49530571664E+02 -0.42191305597E+02  0.13757239869E+03  0.19693793103E+03  0.12500000000E+03 0.  0.
         25    1    1    2    0    0  0.36355693093E+02  0.63534020388E+02  0.88326755823E+02  0.16966120347E+03  0.12500000000E+03 0.  0.
</event>
<event>
 5    0  0.5944076E-005  0.3862020E+03  0.7546771E-02  0.1048665E+00
         21   -1    0    0  502  501  0.00000000000E+00  0.00000000000E+00  0.32838545196E+03  0.32838545196E+03  0.00000000000E+00 0. -1.
         21   -1    0    0  501  502 -0.00000000000E+00 -0.00000000000E+00 -0.45419801083E+03  0.45419801083E+03  0.00000000000E+00 0. -1.
         25    1    1    2    0    0  0.18745744335E+02  0.21192067747E+03 -0.13792849125E+03  0.28268541732E+03  0.12500000000E+03 0.  0.
         25    1    1    2    0    0  0.24395346447E+02 -0.22844628234E+03 -0.14081816525E+03  0.29704813163E+03  0.12500000000E+03 0.  0.
         25    1    1    2    0    0 -0.43141090781E+02  0.16525604876E+02  0.15293409762E+03  0.20284991384E+03  0.12500000000E+03 0.  0.
</event>
<event>
 5    0  0.5720942E-005  0.3009993E+03  0.7546771E-02  0.1084742E+00
         21   -1    0    0  502  501  0.00000000000E+00  0.00000000000E+00  0.81147023591E+02  0.81147023591E+02  0.00000000000E+00 0.  1.
         21   -1    0    0  501  502 -0.00000000000E+00 -0.00000000000E+00 -0.11164992398E+04  0.11164992398E+04  0.00000000000E+00 0.  1.
         25    1    1    2    0    0  0.43590458602E+02  0.54040625460E+02 -0.63244411124E+03  0.64840656314E+03  0.12500000000E+03 0.  0.
         25    1    1    2    0    0 -0.28283730583E+02 -0.59098375821E+02 -0.39891207452E+03  0.42314114742E+03  0.12500000000E+03 0.  0.
         25    1    1    2    0    0 -0.15306728019E+02  0.50577503617E+01 -0.39960304265E+01  0.12609855281E+03  0.12500000000E+03 0.  0.
</event>
<event>
 5    0  0.5720942E-005  0.3526736E+03  0.7546771E-02  0.1061523E+00
         21   -1    0    0  502  501  0.00000000000E+00  0.00000000000E+00  0.19380511253E+04  0.19380511253E+04  0.00000000000E+00 0.  1.
         21   -1    0    0  501  502 -0.00000000000E+00 -0.00000000000E+00 -0.64177177050E+02  0.64177177050E+02  0.00000000000E+00 0.  1.
         25    1    1    2    0    0  0.16624587168E+02  0.54384986085E+02  0.10952194345E+03  0.17565352176E+03  0.12500000000E+03 0.  0.
         25    1    1    2    0    0 -0.11200009263E+03 -0.13885763612E+03  0.44771295835E+03  0.49789291714E+03  0.12500000000E+03 0.  0.
         25    1    1    2    0    0  0.95375505460E+02  0.84472650031E+02  0.13166390465E+04  0.13286818635E+04  0.12500000000E+03 0.  0.
</event>
<event>
 5    0  0.5720942E-005  0.2614306E+03  0.7546771E-02  0.1106287E+00
         21   -1    0    0  502  501  0.00000000000E+00  0.00000000000E+00  0.14207174547E+03  0.14207174547E+03  0.00000000000E+00 0. -1.
         21   -1    0    0  501  502 -0.00000000000E+00 -0.00000000000E+00 -0.48106641392E+03  0.48106641392E+03  0.00000000000E+00 0. -1.
         25    1    1    2    0    0 -0.79777807925E+02 -0.50312522224E+02  0.31377060263E+02  0.15970400258E+03  0.12500000000E+03 0.  0.
         25    1    1    2    0    0  0.43229750615E+01  0.64783308057E+01 -0.14892566605E+03  0.19458805434E+03  0.12500000000E+03 0.  0.
         25    1    1    2    0    0  0.75454832864E+02  0.43834191418E+02 -0.22144606267E+03  0.26884610247E+03  0.12500000000E+03 0.  0.
</event>
<event>
 5    0  0.5720942E-005  0.2484121E+03  0.7546771E-02  0.1114312E+00
         21   -1    0    0  502  501  0.00000000000E+00  0.00000000000E+00  0.28882569620E+03  0.28882569620E+03  0.00000000000E+00 0.  1.
         21   -1    0    0  501  502 -0.00000000000E+00 -0.00000000000E+00 -0.21365324803E+03  0.21365324803E+03  0.00000000000E+00 0.  1.
         25    1    1    2    0    0  0.16161124784E+02 -0.18770823407E+02  0.21252283081E+02  0.12919050004E+03  0.12500000000E+03 0.  0.
         25    1    1    2    0    0  0.10006145011E+03 -0.41234498403E+02  0.90817380850E+02  0.18864086069E+03  0.12500000000E+03 0.  0.
         25    1    1    2    0    0 -0.11622257490E+03  0.60005321809E+02 -0.36897215763E+02  0.18464758350E+03  0.12500000000E+03 0.  0.
</event>
<event>
 5    0  0.5720942E-005  0.3020165E+03  0.7546771E-02  0.1084237E+00
         21   -1    0    0  502  501  0.00000000000E+00  0.00000000000E+00  0.11415533080E+03  0.11415533080E+03  0.00000000000E+00 0. -1.
         21   -1    0    0  501  502 -0.00000000000E+00 -0.00000000000E+00 -0.79903367980E+03  0.79903367980E+03  0.00000000000E+00 0. -1.
         25    1    1    2    0    0  0.88462414757E+01  0.88837999944E+02 -0.17871716368E+03  0.23565922604E+03  0.12500000000E+03 0.  0.
         25    1    1    2    0    0 -0.83216450296E+01  0.36388534781E+02  0.11019894705E+02  0.13091910983E+03  0.12500000000E+03 0.  0.
         25    1    1    2    0    0 -0.52459644610E+00 -0.12522653472E+03 -0.51718108002E+03  0.54661067474E+03  0.12500000000E+03 0.  0.
</event>
<event>
 5    0  0.5720942E-005  0.2708561E+03  0.7546771E-02  0.1100791E+00
         21   -1    0    0  502  501  0.00000000000E+00  0.00000000000E+00  0.11151874209E+03  0.11151874209E+03  0.00000000000E+00 0.  1.
         21   -1    0    0  501  502 -0.00000000000E+00 -0.00000000000E+00 -0.65785379249E+03  0.65785379249E+03  0.00000000000E+00 0.  1.
         25    1    1    2    0    0  0.53692305292E+01  0.12627107350E+03 -0.20489103057E+03  0.27125365813E+03  0.12500000000E+03 0.  0.
         25    1    1    2    0    0 -0.64346846766E+02 -0.84992006646E+02 -0.30946672317E+03  0.35036953439E+03  0.12500000000E+03 0.  0.
         25    1    1    2    0    0  0.58977616237E+02 -0.41279066854E+02 -0.31977296666E+02  0.14774934206E+03  0.12500000000E+03 0.  0.
</event>
<event>
 5    0  0.5720942E-005  0.3626177E+03  0.7546771E-02  0.1057552E+00
         21   -1    0    0  502  501  0.00000000000E+00  0.00000000000E+00  0.15319536483E+04  0.15319536483E+04  0.00000000000E+00 0. -1.
         21   -1    0    0  501  502 -0.00000000000E+00 -0.00000000000E+00 -0.85832624176E+02  0.85832624176E+02  0.00000000000E+00 0. -1.
         25    1    1    2    0    0 -0.13696704249E+03  0.90560447824E+02  0.16078317099E+03  0.26160541568E+03  0.12500000000E+03 0.  0.
         25    1    1    2    0    0  0.66635274194E+02 -0.16383321936E+03  0.38666034928E+03  0.44318484771E+03  0.12500000000E+03 0.  0.
         25    1    1    2    0    0  0.70331768299E+02  0.73272771537E+02  0.89867750387E+03  0.91299600910E+03  0.12500000000E+03 0.  0.
</event>
<event>
 5    0  0.5720942E-005  0.4236035E+03  0.7546771E-02  0.1035900E+00
         21   -1    0    0  502  501  0.00000000000E+00  0.00000000000E+00  0.17249958280E+03  0.17249958280E+03  0.00000000000E+00 0.  1.
         21   -1    0    0  501  502 -0.00000000000E+00 -0.00000000000E+00 -0.10402339225E+04  0.10402339225E+04  0.00000000000E+00 0.  1.
         25    1    1    2    0    0  0.27528314766E+02 -0.71584330146E+02 -0.48291146653E+02  0.15439935000E+03  0.12500000000E+03 0.  0.
         25    1    1    2    0    0 -0.18109176968E+03 -0.17985302131E+03 -0.61788890296E+03  0.68011251622E+03  0.12500000000E+03 0.  0.
         25    1    1    2    0    0  0.15356345491E+03  0.25143735145E+03 -0.20155429005E+03  0.37822163903E+03  0.12500000000E+03 0.  0.
</event>
<event>
 5    0  0.5720942E-005  0.3722045E+03  0.7546771E-02  0.1053853E+00
         21   -1    0    0  502  501  0.00000000000E+00  0.00000000000E+00  0.28342650866E+03  0.28342650866E+03  0.00000000000E+00 0.  1.
         21   -1    0    0  501  502 -0.00000000000E+00 -0.00000000000E+00 -0.48879046240E+03  0.48879046240E+03  0.00000000000E+00 0.  1.
         25    1    1    2    0    0 -0.85396734606E+02  0.19447478250E+03  0.11901776288E+03  0.27368461994E+03  0.12500000000E+03 0.  0.
         25    1    1    2    0    0 -0.20940491148E+02 -0.12355508932E+03 -0.24664335177E+03  0.30358245542E+03  0.12500000000E+03 0.  0.
         25    1    1    2    0    0  0.10633722575E+03 -0.70919693184E+02 -0.77738364846E+02  0.19494989569E+03  0.12500000000E+03 0.  0.
</event>
<event>
 5    0  0.5720942E-005  0.2969321E+03  0.7546771E-02  0.1086784E+00
         21   -1    0    0  502  501  0.00000000000E+00  0.00000000000E+00  0.26146908229E+03  0.26146908229E+03  0.00000000000E+00 0. -1.
         21   -1    0    0  501  502 -0.00000000000E+00 -0.00000000000E+00 -0.33720498211E+03  0.33720498211E+03  0.00000000000E+00 0. -1.
         25    1    1    2    0    0 -0.87080438671E+02  0.12229036095E+03  0.20068509101E+02  0.19638146613E+03  0.12500000000E+03 0.  0.
         25    1    1    2    0    0  0.14142563810E+03 -0.12851134228E+03 -0.12845444704E+03  0.26199603274E+03  0.12500000000E+03 0.  0.
         25    1    1    2    0    0 -0.54345199432E+02  0.62209813346E+01  0.32650038120E+02  0.14029656553E+03  0.12500000000E+03 0.  0.
</event>
<event>
 5    0  0.5720942E-005  0.8602054E+03  0.7546771E-02  0.9476741E-01
         21   -1    0    0  502  501  0.00000000000E+00  0.00000000000E+00  0.82348233339E+03  0.82348233339E+03  0.00000000000E+00 0.  1.
         21   -1    0    0  501  502 -0.00000000000E+00 -0.00000000000E+00 -0.89856615279E+03  0.89856615279E+03  0.00000000000E+00 0.  1.
         25    1    1    2    0    0  0.12441094256E+02  0.61955067397E+03  0.47768767272E+03  0.79234356886E+03  0.12500000000E+03 0.  0.
         25    1    1    2    0    0  0.42987919247E+02 -0.41044781285E+03 -0.52338671589E+03  0.67814012021E+03  0.12500000000E+03 0.  0.
         25    1    1    2    0    0 -0.55429013503E+02 -0.20910286113E+03 -0.29384776227E+02  0.25156479711E+03  0.12500000000E+03 0.  0.
</event>
<event>
 5    0  0.5720942E-005  0.2420129E+03  0.7546771E-02  0.1118459E+00
         21   -1    0    0  502  501  0.00000000000E+00  0.00000000000E+00  0.95779415550E+02  0.95779415550E+02  0.00000000000E+00 0.  1.
         21   -1    0    0  501  502 -0.00000000000E+00 -0.00000000000E+00 -0.61151197379E+03  0.61151197379E+03  0.00000000000E+00 0.  1.
         25    1    1    2    0    0 -0.32417838140E+02 -0.48972027978E+02 -0.13152293282E+03  0.19071564595E+03  0.12500000000E+03 0.  0.
         25    1    1    2    0    0 -0.83608492792E+02  0.12192348388E+02 -0.93409284863E+02  0.17745232578E+03  0.12500000000E+03 0.  0.
         25    1    1    2    0    0  0.11602633093E+03  0.36779679591E+02 -0.29080034055E+03  0.33912341760E+03  0.12500000000E+03 0.  0.
</event>
<event>
 5    0  0.5720942E-005  0.2526183E+03  0.7546771E-02  0.1111661E+00
         21   -1    0    0  502  501  0.00000000000E+00  0.00000000000E+00  0.52854778578E+03  0.52854778578E+03  0.00000000000E+00 0. -1.
         21   -1    0    0  501  502 -0.00000000000E+00 -0.00000000000E+00 -0.12073840082E+03  0.12073840082E+03  0.00000000000E+00 0. -1.
         25    1    1    2    0    0  0.12896097303E+02 -0.77279788224E+02  0.22151574133E+03  0.26614413135E+03  0.12500000000E+03 0.  0.
         25    1    1    2    0    0 -0.53759437127E+02 -0.52338222805E+02  0.51856548098E+02  0.15473677077E+03  0.12500000000E+03 0.  0.
         25    1    1    2    0    0  0.40863339824E+02  0.12961801103E+03  0.13443709553E+03  0.22840528448E+03  0.12500000000E+03 0.  0.
</event>
<event>
 5    0  0.5720942E-005  0.2269992E+03  0.7546771E-02  0.1128770E+00
         21   -1    0    0  502  501  0.00000000000E+00  0.00000000000E+00  0.22502213775E+03  0.22502213775E+03  0.00000000000E+00 0.  1.
         21   -1    0    0  501  502 -0.00000000000E+00 -0.00000000000E+00 -0.22899362295E+03  0.22899362295E+03  0.00000000000E+00 0.  1.
         25    1    1    2    0    0  0.76116017927E+02 -0.10488964463E+02  0.41615999922E+02  0.15251412397E+03  0.12500000000E+03 0.  0.
         25    1    1    2    0    0 -0.92711621069E+02  0.13144632686E+02 -0.73048537269E+02  0.17242190942E+03  0.12500000000E+03 0.  0.
         25    1    1    2    0    0  0.16595603142E+02 -0.26556682233E+01  0.27461052150E+02  0.12907972731E+03  0.12500000000E+03 0.  0.
</event>
<event>
 5    0  0.5720942E-005  0.3807269E+03  0.7546771E-02  0.1050665E+00
         21   -1    0    0  502  501  0.00000000000E+00  0.00000000000E+00  0.68941348569E+03  0.68941348569E+03  0.00000000000E+00 0.  1.
         21   -1    0    0  501  502 -0.00000000000E+00 -0.00000000000E+00 -0.21025551506E+03  0.21025551506E+03  0.00000000000E+00 0.  1.
         25    1    1    2    0    0 -0.10826482106E+03 -0.24385178189E+02 -0.89443639811E+02  0.18958130999E+03  0.12500000000E+03 0.  0.
         25    1    1    2    0    0 -0.10438282024E+03  0.36751991150E+01  0.13837578773E+03  0.21373380378E+03  0.12500000000E+03 0.  0.
         25    1    1    2    0    0  0.21264764130E+03  0.20709979074E+02  0.43022582271E+03  0.49635388698E+03  0.12500000000E+03 0.  0.
</event>
<event>
 5    0  0.5720942E-005  0.5721339E+03  0.7546771E-02  0.9964968E-01
         21   -1    0    0  502  501  0.00000000000E+00  0.00000000000E+00  0.55871279601E+03  0.55871279601E+03  0.00000000000E+00 0.  1.
         21   -1    0    0  501  502 -0.00000000000E+00 -0.00000000000E+00 -0.58587735058E+03  0.58587735058E+03  0.00000000000E+00 0. -1.
         25    1    1    2    0    0 -0.16884250489E+03  0.32210691065E+03 -0.13023622430E+03  0.40601370355E+03  0.12500000000E+03 0.  0.
         25    1    1    2    0    0  0.19908802898E+03 -0.36652236714E+03  0.27826756750E+03  0.51675190180E+03  0.12500000000E+03 0.  0.
         25    1    1    2    0    0 -0.30245524087E+02  0.44415456485E+02 -0.17519589777E+03  0.22182454124E+03  0.12500000000E+03 0.  0.
</event>
<event>
 5    0  0.5720942E-005  0.2913903E+03  0.7546771E-02  0.1089625E+00
         21   -1    0    0  502  501  0.00000000000E+00  0.00000000000E+00  0.93789421529E+02  0.93789421529E+02  0.00000000000E+00 0. -1.
         21   -1    0    0  501  502 -0.00000000000E+00 -0.00000000000E+00 -0.90530807296E+03  0.90530807296E+03  0.00000000000E+00 0. -1.
         25    1    1    2    0    0  0.11198514967E+03 -0.56219284258E+02 -0.15324419764E+03  0.23411549666E+03  0.12500000000E+03 0.  0.
         25    1    1    2    0    0 -0.50248193667E+02 -0.70997314512E+02 -0.48651764558E+03  0.50979399672E+03  0.12500000000E+03 0.  0.
         25    1    1    2    0    0 -0.61736956000E+02  0.12721659877E+03 -0.17175680821E+03  0.25518800110E+03  0.12500000000E+03 0.  0.
</event>
<event>
 5    0  0.5720942E-005  0.3048946E+03  0.7546771E-02  0.1082819E+00
         21   -1    0    0  502  501  0.00000000000E+00  0.00000000000E+00  0.83685761666E+03  0.83685761666E+03  0.00000000000E+00 0.  1.
         21   -1    0    0  501  502 -0.00000000000E+00 -0.00000000000E+00 -0.11108307753E+03  0.11108307753E+03  0.00000000000E+00 0.  1.
         25    1    1    2    0    0 -0.12821262196E+03  0.37724322857E+01  0.42806592408E+03  0.46402386041E+03  0.12500000000E+03 0.  0.
         25    1    1    2    0    0 -0.26291513135E+01  0.10310663129E+03  0.77911335516E+02  0.17981397625E+03  0.12500000000E+03 0.  0.
         25    1    1    2    0    0  0.13084177328E+03 -0.10687906357E+03  0.21979727954E+03  0.30410285753E+03  0.12500000000E+03 0.  0.
</event>
<event>
 5    0  0.5720942E-005  0.3625762E+03  0.7546771E-02  0.1057568E+00
         21   -1    0    0  502  501  0.00000000000E+00  0.00000000000E+00  0.19688023023E+03  0.19688023023E+03  0.00000000000E+00 0. -1.
         21   -1    0    0  501  502 -0.00000000000E+00 -0.00000000000E+00 -0.66772329219E+03  0.66772329219E+03  0.00000000000E+00 0. -1.
         25    1    1    2    0    0  0.11389400638E+03 -0.18100555288E+03 -0.69256736875E+02  0.25720876825E+03  0.12500000000E+03 0.  0.
         25    1    1    2    0    0  0.11657385265E+01 -0.51133634800E+02 -0.24527796276E+03  0.28000408313E+03  0.12500000000E+03 0.  0.
         25    1    1    2    0    0 -0.11505974491E+03  0.23213918768E+03 -0.15630836232E+03  0.32739067104E+03  0.12500000000E+03 0.  0.
</event>
<event>
 5    0  0.5720942E-005  0.2320602E+03  0.7546771E-02  0.1125198E+00
         21   -1    0    0  502  501  0.00000000000E+00  0.00000000000E+00  0.55718494021E+03  0.55718494021E+03  0.00000000000E+00 0. -1.
         21   -1    0    0  501  502 -0.00000000000E+00 -0.00000000000E+00 -0.96650017709E+02  0.96650017709E+02  0.00000000000E+00 0. -1.
         25    1    1    2    0    0  0.16865261578E+02  0.59168103098E+02  0.56855531982E+02  0.15047542321E+03  0.12500000000E+03 0.  0.
         25    1    1    2    0    0  0.13319217842E+02 -0.43779448401E+01  0.75624623466E+02  0.14676733846E+03  0.12500000000E+03 0.  0.
         25    1    1    2    0    0 -0.30184479420E+02 -0.54790158258E+02  0.32805476706E+03  0.35659219625E+03  0.12500000000E+03 0.  0.
</event>
<event>
 5    0  0.5720942E-005  0.2772043E+03  0.7546771E-02  0.1097226E+00
         21   -1    0    0  502  501  0.00000000000E+00  0.00000000000E+00  0.88249334322E+03  0.88249334322E+03  0.00000000000E+00 0. -1.
         21   -1    0    0  501  502 -0.00000000000E+00 -0.00000000000E+00 -0.87074027527E+02  0.87074027527E+02  0.00000000000E+00 0. -1.
         25    1    1    2    0    0  0.15624050378E+03  0.69753459340E+02  0.25562676994E+03  0.33203416334E+03  0.12500000000E+03 0.  0.
         25    1    1    2    0    0 -0.76621121609E+02 -0.11263711738E+03  0.29991935679E+03  0.35232731524E+03  0.12500000000E+03 0.  0.
         25    1    1    2    0    0 -0.79619382173E+02  0.42883658041E+02  0.23987318896E+03  0.28520589216E+03  0.12500000000E+03 0.  0.
</event>
<event>
 5    0  0.5720942E-005  0.3691192E+03  0.7546771E-02  0.1055030E+00
         21   -1    0    0  502  501  0.00000000000E+00  0.00000000000E+00  0.10590903801E+03  0.10590903801E+03  0.00000000000E+00 0. -1.
         21   -1    0    0  501  502 -0.00000000000E+00 -0.00000000000E+00 -0.12864716766E+04  0.12864716766E+04  0.00000000000E+00 0. -1.
         25    1    1    2    0    0  0.17413503936E+03  0.24431353716E+03 -0.40753744491E+03  0.52127141239E+03  0.12500000000E+03 0.  0.
         25    1    1    2    0    0 -0.11202785334E+03 -0.80326663603E+02 -0.34668507672E+03  0.39346938284E+03  0.12500000000E+03 0.  0.
         25    1    1    2    0    0 -0.62107186013E+02 -0.16398687355E+03 -0.42634011696E+03  0.47763991938E+03  0.12500000000E+03 0.  0.
</event>
<event>
 5    0  0.5720942E-005  0.4594306E+03  0.7546771E-02  0.1024946E+00
         21   -1    0    0  502  501  0.00000000000E+00  0.00000000000E+00  0.17920261463E+04  0.17920261463E+04  0.00000000000E+00 0. -1.
         21   -1    0    0  501  502 -0.00000000000E+00 -0.00000000000E+00 -0.11778649468E+03  0.11778649468E+03  0.00000000000E+00 0. -1.
         25    1    1    2    0    0  0.22528106841E+03  0.22130605854E+03  0.10342221173E+04  0.10885625013E+04  0.12500000000E+03 0.  0.
         25    1    1    2    0    0  0.17346203144E+02 -0.83738871634E+02  0.54868761352E+02  0.16108590987E+03  0.12500000000E+03 0.  0.
         25    1    1    2    0    0 -0.24262727155E+03 -0.13756718690E+03  0.58514877295E+03  0.66016422979E+03  0.12500000000E+03 0.  0.
</event>
<event>
 5    0  0.5720942E-005  0.3573297E+03  0.7546771E-02  0.1059646E+00
         21   -1    0    0  502  501  0.00000000000E+00  0.00000000000E+00  0.58473628608E+03  0.58473628608E+03  0.00000000000E+00 0.  1.
         21   -1    0    0  501  502 -0.00000000000E+00 -0.00000000000E+00 -0.21836257656E+03  0.21836257656E+03  0.00000000000E+00 0.  1.
         25    1    1    2    0    0  0.57370587945E+02 -0.13707743492E+03 -0.48773874510E+02  0.20021363180E+03  0.12500000000E+03 0.  0.
         25    1    1    2    0    0 -0.47028188915E+02 -0.10108764262E+03  0.14526471371E+03  0.22171422844E+03  0.12500000000E+03 0.  0.
         25    1    1    2    0    0 -0.10342399031E+02  0.23816507754E+03  0.26988287032E+03  0.38117100240E+03  0.12500000000E+03 0.  0.
</event>
<event>
 5    0  0.5720942E-005  0.2919282E+03  0.7546771E-02  0.1089347E+00
         21   -1    0    0  502  501  0.00000000000E+00  0.00000000000E+00  0.82585119104E+02  0.82585119104E+02  0.00000000000E+00 0. -1.
         21   -1    0    0  501  502 -0.00000000000E+00 -0.00000000000E+00 -0.10319300469E+04  0.10319300469E+04  0.00000000000E+00 0.  1.
         25    1    1    2    0    0  0.14224466916E+03 -0.40030670044E+02 -0.18852077984E+03  0.27018712938E+03  0.12500000000E+03 0.  0.
         25    1    1    2    0    0  0.32310222177E+02  0.72628934073E+02 -0.28114897155E+03  0.31778712486E+03  0.12500000000E+03 0.  0.
         25    1    1    2    0    0 -0.17455489134E+03 -0.32598264028E+02 -0.47967517643E+03  0.52654091179E+03  0.12500000000E+03 0.  0.
</event>
<event>
 5    0  0.5720942E-005  0.3592317E+03  0.7546771E-02  0.1058889E+00
         21   -1    0    0  502  501  0.00000000000E+00  0.00000000000E+00  0.11148543263E+04  0.11148543263E+04  0.00000000000E+00 0.  1.
         21   -1    0    0  501  502 -0.00000000000E+00 -0.00000000000E+00 -0.11575269319E+03  0.11575269319E+03  0.00000000000E+00 0.  1.
         25    1    1    2    0    0  0.31911078322E+02  0.72399090203E+02  0.69862751518E+02  0.16360241206E+03  0.12500000000E+03 0.  0.
         25    1    1    2    0    0  0.15910440493E+03  0.36193563383E+02  0.16984239869E+03  0.26663763067E+03  0.12500000000E+03 0.  0.
         25    1    1    2    0    0 -0.19101548325E+03 -0.10859265359E+03  0.75939648293E+03  0.80036697679E+03  0.12500000000E+03 0.  0.
</event>
<event>
 5    0  0.5720942E-005  0.4545206E+03  0.7546771E-02  0.1026382E+00
         21   -1    0    0  502  501  0.00000000000E+00  0.00000000000E+00  0.19209376739E+03  0.19209376739E+03  0.00000000000E+00 0.  1.
         21   -1    0    0  501  502 -0.00000000000E+00 -0.00000000000E+00 -0.10754588220E+04  0.10754588220E+04  0.00000000000E+00 0.  1.
         25    1    1    2    0    0  0.65085321792E+02 -0.37638349914E+03 -0.49396816255E+03  0.63681251805E+03  0.12500000000E+03 0.  0.
         25    1    1    2    0    0  0.30203730783E+02  0.97922525087E+02 -0.20695396629E+03  0.26259480276E+03  0.12500000000E+03 0.  0.
         25    1    1    2    0    0 -0.95289052575E+02  0.27846097405E+03 -0.18244292575E+03  0.36814526857E+03  0.12500000000E+03 0.  0.
</event>
<event>
 5    0  0.5720942E-005  0.2802221E+03  0.7546771E-02  0.1095568E+00
         21   -1    0    0  502  501  0.00000000000E+00  0.00000000000E+00  0.92213749750E+03  0.92213749750E+03  0.00000000000E+00 0.  1.
         21   -1    0    0  501  502 -0.00000000000E+00 -0.00000000000E+00 -0.85154797470E+02  0.85154797470E+02  0.00000000000E+00 0.  1.
         25    1    1    2    0    0 -0.23966277834E+02  0.10707776421E+03  0.30016781644E+03  0.34317014452E+03  0.12500000000E+03 0.  0.
         25    1    1    2    0    0  0.72300293380E+02  0.58193537779E+02  0.34139697589E+03  0.37522088882E+03  0.12500000000E+03 0.  0.
         25    1    1    2    0    0 -0.48334015546E+02 -0.16527130199E+03  0.19541790770E+03  0.28890126163E+03  0.12500000000E+03 0.  0.
</event>
<event>
 5    0  0.5720942E-005  0.2238396E+03  0.7546771E-02  0.1131052E+00
         21   -1    0    0  502  501  0.00000000000E+00  0.00000000000E+00  0.56829228808E+02  0.56829228808E+02  0.00000000000E+00 0. -1.
         21   -1    0    0  501  502 -0.00000000000E+00 -0.00000000000E+00 -0.88166198074E+03  0.88166198074E+03  0.00000000000E+00 0. -1.
         25    1    1    2    0    0 -0.16427568456E+02 -0.61557266013E+02 -0.43701436278E+03  0.45898334968E+03  0.12500000000E+03 0.  0.
         25    1    1    2    0    0  0.49597108056E+02 -0.66609488431E+01 -0.20751218100E+03  0.24736723031E+03  0.12500000000E+03 0.  0.
         25    1    1    2    0    0 -0.33169539600E+02  0.68218214856E+02 -0.18030620815E+03  0.23214062956E+03  0.12500000000E+03 0.  0.
</event>
<event>
 5    0  0.5720942E-005  0.2478424E+03  0.7546771E-02  0.1114676E+00
         21   -1    0    0  502  501  0.00000000000E+00  0.00000000000E+00  0.32305342066E+04  0.32305342066E+04  0.00000000000E+00 0.  1.
         21   -1    0    0  501  502 -0.00000000000E+00 -0.00000000000E+00 -0.19014149219E+02  0.19014149219E+02  0.00000000000E+00 0.  1.
         25    1    1    2    0    0  0.32675664069E+02 -0.76759882527E+02  0.65377410289E+03  0.67082438551E+03  0.12500000000E+03 0.  0.
         25    1    1    2    0    0 -0.39944025221E+01 -0.47299684881E+02  0.71788263107E+03  0.73022851727E+03  0.12500000000E+03 0.  0.
         25    1    1    2    0    0 -0.28681261547E+02  0.12405956741E+03  0.18398633234E+04  0.18484954530E+04  0.12500000000E+03 0.  0.
</event>
<event>
 5    0  0.5720942E-005  0.2691581E+03  0.7546771E-02  0.1101762E+00
         21   -1    0    0  502  501  0.00000000000E+00  0.00000000000E+00  0.14342957355E+03  0.14342957355E+03  0.00000000000E+00 0.  1.
         21   -1    0    0  501  502 -0.00000000000E+00 -0.00000000000E+00 -0.50509881097E+03  0.50509881097E+03  0.00000000000E+00 0.  1.
         25    1    1    2    0    0  0.67872811710E+02 -0.76269523434E+01  0.29151420808E+02  0.14539495970E+03  0.12500000000E+03 0.  0.
         25    1    1    2    0    0 -0.71731148475E+02  0.75625328187E+02 -0.27527754114E+03  0.31979254616E+03  0.12500000000E+03 0.  0.
         25    1    1    2    0    0  0.38583367647E+01 -0.67998375844E+02 -0.11554311709E+03  0.18334087866E+03  0.12500000000E+03 0.  0.
</event>
<event>
 5    0  0.5720942E-005  0.2562802E+03  0.7546771E-02  0.1109399E+00
         21   -1    0    0  502  501  0.00000000000E+00  0.00000000000E+00  0.13996147363E+03  0.13996147363E+03  0.00000000000E+00 0. -1.
         21   -1    0    0  501  502 -0.00000000000E+00 -0.00000000000E+00 -0.46926882594E+03  0.46926882594E+03  0.00000000000E+00 0. -1.
         25    1    1    2    0    0 -0.28250255986E+02 -0.49285218229E+02 -0.14261410277E+03  0.19796689624E+03  0.12500000000E+03 0.  0.
         25    1    1    2    0    0  0.85892404855E+02  0.71625071764E+02 -0.21117387174E+03  0.26967955099E+03  0.12500000000E+03 0.  0.
         25    1    1    2    0    0 -0.57642148869E+02 -0.22339853535E+02  0.24480622195E+02  0.14158385235E+03  0.12500000000E+03 0.  0.
</event>
<event>
 5    0  0.5720942E-005  0.2172610E+03  0.7546771E-02  0.1135942E+00
         21   -1    0    0  502  501  0.00000000000E+00  0.00000000000E+00  0.12943483579E+03  0.12943483579E+03  0.00000000000E+00 0.  1.
         21   -1    0    0  501  502 -0.00000000000E+00 -0.00000000000E+00 -0.36468029598E+03  0.36468029598E+03  0.00000000000E+00 0.  1.
         25    1    1    2    0    0  0.13927339389E+02  0.30188052520E+02 -0.48913193815E+02  0.13828517573E+03  0.12500000000E+03 0.  0.
         25    1    1    2    0    0 -0.24107240269E+02 -0.97421202829E+02 -0.10929110715E+03  0.19401442188E+03  0.12500000000E+03 0.  0.
         25    1    1    2    0    0  0.10179900881E+02  0.67233150309E+02 -0.77041159226E+02  0.16181553417E+03  0.12500000000E+03 0.  0.
</event>
<event>
 5    0  0.5720942E-005  0.2404920E+03  0.7546771E-02  0.1119466E+00
         21   -1    0    0  502  501  0.00000000000E+00  0.00000000000E+00  0.36311793865E+03  0.36311793865E+03  0.00000000000E+00 0. -1.
         21   -1    0    0  501  502 -0.00000000000E+00 -0.00000000000E+00 -0.15927713841E+03  0.15927713841E+03  0.00000000000E+00 0. -1.
         25    1    1    2    0    0  0.11077085743E+03  0.30724648860E+02  0.26503022300E+02  0.17187669154E+03  0.12500000000E+03 0.  0.
         25    1    1    2    0    0 -0.10933688430E+03 -0.50955405039E+01  0.14079314825E+03  0.21778023187E+03  0.12500000000E+03 0.  0.
         25    1    1    2    0    0 -0.14339731352E+01 -0.25629108356E+02  0.36544629686E+02  0.13273815364E+03  0.12500000000E+03 0.  0.
</event>
<event>
 5    0  0.5720942E-005  0.5263211E+03  0.7546771E-02  0.1007128E+00
         21   -1    0    0  502  501  0.00000000000E+00  0.00000000000E+00  0.19267418384E+04  0.19267418384E+04  0.00000000000E+00 0. -1.
         21   -1    0    0  501  502 -0.00000000000E+00 -0.00000000000E+00 -0.14377321179E+03  0.14377321179E+03  0.00000000000E+00 0. -1.
         25    1    1    2    0    0 -0.34889318338E+03  0.24049208635E+03  0.10161980894E+04  0.11080823318E+04  0.12500000000E+03 0.  0.
         25    1    1    2    0    0  0.13423617333E+03  0.38890262927E+02  0.14540080836E+03  0.23727241275E+03  0.12500000000E+03 0.  0.
         25    1    1    2    0    0  0.21465701005E+03 -0.27938234928E+03  0.62136972887E+03  0.72516030573E+03  0.12500000000E+03 0.  0.
</event>
<event>
 5    0  0.5720942E-005  0.3430530E+03  0.7546771E-02  0.1065503E+00
         21   -1    0    0  502  501  0.00000000000E+00  0.00000000000E+00  0.12444871935E+03  0.12444871935E+03  0.00000000000E+00 0. -1.
         21   -1    0    0  501  502 -0.00000000000E+00 -0.00000000000E+00 -0.94565357852E+03  0.94565357852E+03  0.00000000000E+00 0. -1.
         25    1    1    2    0    0  0.18595083926E+03 -0.67636464701E+02 -0.16251808049E+03  0.28493776946E+03  0.12500000000E+03 0.  0.
         25    1    1    2    0    0 -0.53944416307E+02  0.16422303056E+03 -0.41129382061E+03  0.46332149819E+03  0.12500000000E+03 0.  0.
         25    1    1    2    0    0 -0.13200642295E+03 -0.96586565854E+02 -0.24739295807E+03  0.32184303023E+03  0.12500000000E+03 0.  0.
</event>
<event>
 5    0  0.5720942E-005  0.3003544E+03  0.7546771E-02  0.1085064E+00
         21   -1    0    0  502  501  0.00000000000E+00  0.00000000000E+00  0.15389931764E+03  0.15389931764E+03  0.00000000000E+00 0.  1.
         21   -1    0    0  501  502 -0.00000000000E+00 -0.00000000000E+00 -0.58618052067E+03  0.58618052067E+03  0.00000000000E+00 0.  1.
         25    1    1    2    0    0  0.13568058203E+03  0.31948882277E+02 -0.12063432352E+03  0.22272761712E+03  0.12500000000E+03 0.  0.
         25    1    1    2    0    0 -0.11662108181E+03  0.88800748072E+02 -0.43908918617E+02  0.19758300209E+03  0.12500000000E+03 0.  0.
         25    1    1    2    0    0 -0.19059500224E+02 -0.12074963035E+03 -0.26773796089E+03  0.31976921909E+03  0.12500000000E+03 0.  0.
</event>
<event>
 5    0  0.5720942E-005  0.4150226E+03  0.7546771E-02  0.1038699E+00
         21   -1    0    0  502  501  0.00000000000E+00  0.00000000000E+00  0.29048169942E+03  0.29048169942E+03  0.00000000000E+00 0. -1.
         21   -1    0    0  501  502 -0.00000000000E+00 -0.00000000000E+00 -0.59295916914E+03  0.59295916914E+03  0.00000000000E+00 0. -1.
         25    1    1    2    0    0 -0.23138520287E+03  0.16006938967E+03  0.33764483509E+02  0.30971981203E+03  0.12500000000E+03 0.  0.
         25    1    1    2    0    0  0.24170266130E+03 -0.11953092262E+03 -0.32655024114E+03  0.44155167074E+03  0.12500000000E+03 0.  0.
         25    1    1    2    0    0 -0.10317458431E+02 -0.40538467041E+02 -0.96917120851E+01  0.13216938580E+03  0.12500000000E+03 0.  0.
</event>
<event>
 5    0  0.5720942E-005  0.2657749E+03  0.7546771E-02  0.1103722E+00
         21   -1    0    0  502  501  0.00000000000E+00  0.00000000000E+00  0.23088285890E+04  0.23088285890E+04  0.00000000000E+00 0.  1.
         21   -1    0    0  501  502 -0.00000000000E+00 -0.00000000000E+00 -0.30593998347E+02  0.30593998347E+02  0.00000000000E+00 0.  1.
         25    1    1    2    0    0 -0.23735174975E+02  0.69511041543E+02  0.75070842990E+03  0.76458046676E+03  0.12500000000E+03 0.  0.
         25    1    1    2    0    0  0.11410961514E+03  0.34122018103E+02  0.10168995062E+04  0.10314528211E+04  0.12500000000E+03 0.  0.
         25    1    1    2    0    0 -0.90374440163E+02 -0.10363305965E+03  0.51062665453E+03  0.54338929949E+03  0.12500000000E+03 0.  0.
</event>
<event>
 5    0  0.5720942E-005  0.3856729E+03  0.7546771E-02  0.1048857E+00
         21   -1    0    0  502  501  0.00000000000E+00  0.00000000000E+00  0.22480951968E+03  0.22480951968E+03  0.00000000000E+00 0. -1.
         21   -1    0    0  501  502 -0.00000000000E+00 -0.00000000000E+00 -0.66164276221E+03  0.66164276221E+03  0.00000000000E+00 0. -1.
         25    1    1    2    0    0  0.89799674410E+02 -0.54064451269E+02 -0.31282002790E+03  0.35280067499E+03  0.12500000000E+03 0.  0.
         25    1    1    2    0    0  0.10304663322E+03 -0.75591362666E+02  0.84128823518E+02  0.19757358547E+03  0.12500000000E+03 0.  0.
         25    1    1    2    0    0 -0.19284630763E+03  0.12965581394E+03 -0.20814203814E+03  0.33607802144E+03  0.12500000000E+03 0.  0.
</event>
<event>
 5    0  0.5720942E-005  0.2720860E+03  0.7546771E-02  0.1100092E+00
         21   -1    0    0  502  501  0.00000000000E+00  0.00000000000E+00  0.10515160931E+03  0.10515160931E+03  0.00000000000E+00 0.  1.
         21   -1    0    0  501  502 -0.00000000000E+00 -0.00000000000E+00 -0.70403866568E+03  0.70403866568E+03  0.00000000000E+00 0.  1.
         25    1    1    2    0    0 -0.47453230357E+02 -0.94327198674E+02 -0.20052561963E+03  0.25881451584E+03  0.12500000000E+03 0.  0.
         25    1    1    2    0    0  0.87108620100E+02 -0.27918076597E+02 -0.57464207410E+02  0.16521036841E+03  0.12500000000E+03 0.  0.
         25    1    1    2    0    0 -0.39655389742E+02  0.12224527527E+03 -0.34089722933E+03  0.38516539075E+03  0.12500000000E+03 0.  0.
</event>
<event>
 5    0  0.5720942E-005  0.2273459E+03  0.7546771E-02  0.1128522E+00
         21   -1    0    0  502  501  0.00000000000E+00  0.00000000000E+00  0.21380185018E+03  0.21380185018E+03  0.00000000000E+00 0.  1.
         21   -1    0    0  501  502 -0.00000000000E+00 -0.00000000000E+00 -0.24174785728E+03  0.24174785728E+03  0.00000000000E+00 0.  1.
         25    1    1    2    0    0  0.61689129676E+02 -0.42546424892E+02  0.98623343980E+01  0.14607536627E+03  0.12500000000E+03 0.  0.
         25    1    1    2    0    0 -0.60138640703E+02  0.21864923967E+02 -0.95935672606E+02  0.17006876340E+03  0.12500000000E+03 0.  0.
         25    1    1    2    0    0 -0.15504889731E+01  0.20681500925E+02  0.58127331112E+02  0.13940557779E+03  0.12500000000E+03 0.  0.
</event>
<event>
 5    0  0.6248258E-005  0.2799712E+03  0.7546771E-02  0.1095705E+00
         21   -1    0    0  502  501  0.00000000000E+00  0.00000000000E+00  0.11909959719E+03  0.11909959719E+03  0.00000000000E+00 0.  1.
         21   -1    0    0  501  502 -0.00000000000E+00 -0.00000000000E+00 -0.65813734173E+03  0.65813734173E+03  0.00000000000E+00 0.  1.
         25    1    1    2    0    0  0.14397587800E+02  0.46148246901E+02 -0.74600410805E+01  0.13422966676E+03  0.12500000000E+03 0.  0.
         25    1    1    2    0    0  0.94057198250E+02  0.18363009179E+02 -0.13118132251E+03  0.20498169680E+03  0.12500000000E+03 0.  0.
         25    1    1    2    0    0 -0.10845478605E+03 -0.64511256080E+02 -0.40039638096E+03  0.43802557535E+03  0.12500000000E+03 0.  0.
</event>
<event>
 5    0  0.5720942E-005  0.3127628E+03  0.7546771E-02  0.1079029E+00
         21   -1    0    0  502  501  0.00000000000E+00  0.00000000000E+00  0.13878888587E+03  0.13878888587E+03  0.00000000000E+00 0.  1.
         21   -1    0    0  501  502 -0.00000000000E+00 -0.00000000000E+00 -0.70481546109E+03  0.70481546109E+03  0.00000000000E+00 0.  1.
         25    1    1    2    0    0 -0.19304707094E+02 -0.12450794153E+03 -0.22261480650E+03  0.28470555192E+03  0.12500000000E+03 0.  0.
         25    1    1    2    0    0  0.73441961336E+02  0.14517371582E+03 -0.18523303240E+02  0.20600301506E+03  0.12500000000E+03 0.  0.
         25    1    1    2    0    0 -0.54137254243E+02 -0.20665774290E+02 -0.32488846548E+03  0.35289577998E+03  0.12500000000E+03 0.  0.
</event>
<event>
 5    0  0.5720942E-005  0.4328205E+03  0.7546771E-02  0.1032973E+00
         21   -1    0    0  502  501  0.00000000000E+00  0.00000000000E+00  0.23543570936E+04  0.23543570936E+04  0.00000000000E+00 0. -1.
         21   -1    0    0  501  502 -0.00000000000E+00 -0.00000000000E+00 -0.79568901211E+02  0.79568901211E+02  0.00000000000E+00 0. -1.
         25    1    1    2    0    0  0.27463190771E+03 -0.12285135483E+03  0.15311167948E+04  0.15653941291E+04  0.12500000000E+03 0.  0.
         25    1    1    2    0    0 -0.20807507440E+03  0.36510165858E+02  0.60301317255E+03  0.65105922547E+03  0.12500000000E+03 0.  0.
         25    1    1    2    0    0 -0.66556833306E+02  0.86341188971E+02  0.14065822498E+03  0.21747264018E+03  0.12500000000E+03 0.  0.
</event>
<event>
 5    0  0.5720942E-005  0.5131385E+03  0.7546771E-02  0.1010405E+00
         21   -1    0    0  502  501  0.00000000000E+00  0.00000000000E+00  0.15890005475E+04  0.15890005475E+04  0.00000000000E+00 0. -1.
         21   -1    0    0  501  502 -0.00000000000E+00 -0.00000000000E+00 -0.16570866082E+03  0.16570866082E+03  0.00000000000E+00 0. -1.
         25    1    1    2    0    0 -0.42606905652E+02 -0.13882916036E+03  0.48625070711E+03  0.52264101862E+03  0.12500000000E+03 0.  0.
         25    1    1    2    0    0 -0.31823415096E+03  0.22391947576E+03  0.47441804321E+03  0.62618718143E+03  0.12500000000E+03 0.  0.
         25    1    1    2    0    0  0.36084105661E+03 -0.85090315394E+02  0.46262313640E+03  0.60588100832E+03  0.12500000000E+03 0.  0.
</event>
<event>
 5    0  0.5720942E-005  0.4612939E+03  0.7546771E-02  0.1024407E+00
         21   -1    0    0  502  501  0.00000000000E+00  0.00000000000E+00  0.21394290274E+03  0.21394290274E+03  0.00000000000E+00 0. -1.
         21   -1    0    0  501  502 -0.00000000000E+00 -0.00000000000E+00 -0.99462063733E+03  0.99462063733E+03  0.00000000000E+00 0. -1.
         25    1    1    2    0    0  0.86522602217E+02  0.61236790516E+02 -0.44470790444E+02  0.16981977626E+03  0.12500000000E+03 0.  0.
         25    1    1    2    0    0  0.35852969258E+01 -0.69884227192E+02 -0.84040543473E+03  0.85252739210E+03  0.12500000000E+03 0.  0.
         25    1    1    2    0    0 -0.90107899142E+02  0.86474366762E+01  0.10419849058E+03  0.18621637170E+03  0.12500000000E+03 0.  0.
</event>
<event>
 5    0  0.5720942E-005  0.5160759E+03  0.7546771E-02  0.1009666E+00
         21   -1    0    0  502  501  0.00000000000E+00  0.00000000000E+00  0.38353014724E+03  0.38353014724E+03  0.00000000000E+00 0. -1.
         21   -1    0    0  501  502 -0.00000000000E+00 -0.00000000000E+00 -0.69442865025E+03  0.69442865025E+03  0.00000000000E+00 0. -1.
         25    1    1    2    0    0  0.59235503254E+02  0.44838446533E+02  0.15261467462E+03  0.21079746213E+03  0.12500000000E+03 0.  0.
         25    1    1    2    0    0 -0.22970180997E+03 -0.17809241894E+03  0.26101052348E+02  0.31746826002E+03  0.12500000000E+03 0.  0.
         25    1    1    2    0    0  0.17046630671E+03  0.13325397241E+03 -0.48961422997E+03  0.54969307534E+03  0.12500000000E+03 0.  0.
</event>
<event>
 5    0  0.5720942E-005  0.3279177E+03  0.7546771E-02  0.1072062E+00
         21   -1    0    0  502  501  0.00000000000E+00  0.00000000000E+00  0.52634248402E+03  0.52634248402E+03  0.00000000000E+00 0. -1.
         21   -1    0    0  501  502 -0.00000000000E+00 -0.00000000000E+00 -0.20429664662E+03  0.20429664662E+03  0.00000000000E+00 0. -1.
         25    1    1    2    0    0 -0.11953853340E+03  0.23683824580E+01  0.27372646683E+03  0.32379970482E+03  0.12500000000E+03 0.  0.
         25    1    1    2    0    0  0.63539447380E+02 -0.75207713331E+02  0.15215843492E+03  0.22016051153E+03  0.12500000000E+03 0.  0.
         25    1    1    2    0    0  0.55999086018E+02  0.72839330873E+02 -0.10383906434E+03  0.18667891429E+03  0.12500000000E+03 0.  0.
</event>
<event>
 5    0  0.5720942E-005  0.2429549E+03  0.7546771E-02  0.1117840E+00
         21   -1    0    0  502  501  0.00000000000E+00  0.00000000000E+00  0.10211208603E+04  0.10211208603E+04  0.00000000000E+00 0. -1.
         21   -1    0    0  501  502 -0.00000000000E+00 -0.00000000000E+00 -0.57806151042E+02  0.57806151042E+02  0.00000000000E+00 0. -1.
         25    1    1    2    0    0  0.39371936864E+02 -0.63670964923E+02  0.24217538244E+03  0.28262706354E+03  0.12500000000E+03 0.  0.
         25    1    1    2    0    0 -0.53556780182E+02  0.11767869460E+03  0.26656012052E+03  0.32155233123E+03  0.12500000000E+03 0.  0.
         25    1    1    2    0    0  0.14184843317E+02 -0.54007729676E+02  0.45457920634E+03  0.47474761662E+03  0.12500000000E+03 0.  0.
</event>
<event>
 5    0  0.5720942E-005  0.2552345E+03  0.7546771E-02  0.1110041E+00
         21   -1    0    0  502  501  0.00000000000E+00  0.00000000000E+00  0.32527211046E+02  0.32527211046E+02  0.00000000000E+00 0.  1.
         21   -1    0    0  501  502 -0.00000000000E+00 -0.00000000000E+00 -0.20027738794E+04  0.20027738794E+04  0.00000000000E+00 0.  1.
         25    1    1    2    0    0  0.58335822636E+02 -0.37206939079E+02 -0.23362792510E+03  0.27385111266E+03  0.12500000000E+03 0.  0.
         25    1    1    2    0    0 -0.79166915490E+02 -0.14723985466E+02 -0.68508251375E+03  0.70103298560E+03  0.12500000000E+03 0.  0.
         25    1    1    2    0    0  0.20831092854E+02  0.51930924545E+02 -0.10515362295E+04  0.10604169922E+04  0.12500000000E+03 0.  0.
</event>
<event>
 5    0  0.5720942E-005  0.3347667E+03  0.7546771E-02  0.1069047E+00
         21   -1    0    0  502  501  0.00000000000E+00  0.00000000000E+00  0.55719131829E+02  0.55719131829E+02  0.00000000000E+00 0. -1.
         21   -1    0    0  501  502 -0.00000000000E+00 -0.00000000000E+00 -0.20113150827E+04  0.20113150827E+04  0.00000000000E+00 0. -1.
         25    1    1    2    0    0 -0.80866750557E+02  0.16885312135E+03 -0.10221187539E+04  0.10466148074E+04  0.12500000000E+03 0.  0.
         25    1    1    2    0    0  0.90162134390E+02  0.16375302294E+02 -0.59401968230E+03  0.61390695058E+03  0.12500000000E+03 0.  0.
         25    1    1    2    0    0 -0.92953838336E+01 -0.18522842365E+03 -0.33945751463E+03  0.40651245655E+03  0.12500000000E+03 0.  0.
</event>
<event>
 5    0  0.5720942E-005  0.2851924E+03  0.7546771E-02  0.1092886E+00
         21   -1    0    0  502  501  0.00000000000E+00  0.00000000000E+00  0.72085155150E+02  0.72085155150E+02  0.00000000000E+00 0.  1.
         21   -1    0    0  501  502 -0.00000000000E+00 -0.00000000000E+00 -0.11283145685E+04  0.11283145685E+04  0.00000000000E+00 0.  1.
         25    1    1    2    0    0 -0.19791201039E+02  0.15753416607E+03 -0.18481701455E+03  0.27384490863E+03  0.12500000000E+03 0.  0.
         25    1    1    2    0    0 -0.29500777316E+02 -0.11792036937E+03 -0.45903756067E+03  0.49103563158E+03  0.12500000000E+03 0.  0.
         25    1    1    2    0    0  0.49291978355E+02 -0.39613796696E+02 -0.41237483809E+03  0.43551918340E+03  0.12500000000E+03 0.  0.
</event>
<event>
 5    0  0.5720942E-005  0.3995068E+03  0.7546771E-02  0.1043951E+00
         21   -1    0    0  502  501  0.00000000000E+00  0.00000000000E+00  0.45393990967E+03  0.45393990967E+03  0.00000000000E+00 0. -1.
         21   -1    0    0  501  502 -0.00000000000E+00 -0.00000000000E+00 -0.35160089017E+03  0.35160089017E+03  0.00000000000E+00 0. -1.
         25    1    1    2    0    0  0.40180143763E+02  0.14095848430E+03  0.37825151259E+02  0.19631474809E+03  0.12500000000E+03 0.  0.
         25    1    1    2    0    0 -0.19451984003E+03 -0.27957825446E+03  0.23376596751E+02  0.36355664457E+03  0.12500000000E+03 0.  0.
         25    1    1    2    0    0  0.15433969626E+03  0.13861977016E+03  0.41137271492E+02  0.24566940719E+03  0.12500000000E+03 0.  0.
</event>
<event>
 5    0  0.5720942E-005  0.3219270E+03  0.7546771E-02  0.1074766E+00
         21   -1    0    0  502  501  0.00000000000E+00  0.00000000000E+00  0.55151841921E+02  0.55151841921E+02  0.00000000000E+00 0.  1.
         21   -1    0    0  501  502 -0.00000000000E+00 -0.00000000000E+00 -0.18791214026E+04  0.18791214026E+04  0.00000000000E+00 0.  1.
         25    1    1    2    0    0  0.11227858242E+03 -0.11106886561E+03 -0.58267759726E+03  0.61650706024E+03  0.12500000000E+03 0.  0.
         25    1    1    2    0    0  0.66306369958E+02 -0.57756096006E+02 -0.61068982672E+03  0.62952312569E+03  0.12500000000E+03 0.  0.
         25    1    1    2    0    0 -0.17858495238E+03  0.16882496161E+03 -0.63060213666E+03  0.68824305855E+03  0.12500000000E+03 0.  0.
</event>
<event>
 5    0  0.6307155E-005  0.3266113E+03  0.7546771E-02  0.1072646E+00
         21   -1    0    0  502  501  0.00000000000E+00  0.00000000000E+00  0.47773039553E+03  0.47773039553E+03  0.00000000000E+00 0.  1.
         21   -1    0    0  501  502 -0.00000000000E+00 -0.00000000000E+00 -0.22329522049E+03  0.22329522049E+03  0.00000000000E+00 0.  1.
         25    1    1    2    0    0  0.14037564896E+03 -0.11257080485E+02  0.12336182471E+03  0.22511149344E+03  0.12500000000E+03 0.  0.
         25    1    1    2    0    0 -0.18664572321E+03  0.48121715560E+02  0.21458415673E+03  0.31436234797E+03  0.12500000000E+03 0.  0.
         25    1    1    2    0    0  0.46270074257E+02 -0.36864635075E+02 -0.83510806409E+02  0.16155177461E+03  0.12500000000E+03 0.  0.
</event>
<event>
 5    0  0.6153502E-005  0.5690219E+03  0.7546771E-02  0.9971845E-01
         21   -1    0    0  502  501  0.00000000000E+00  0.00000000000E+00  0.35301991975E+03  0.35301991975E+03  0.00000000000E+00 0. -1.
         21   -1    0    0  501  502 -0.00000000000E+00 -0.00000000000E+00 -0.91718875568E+03  0.91718875568E+03  0.00000000000E+00 0. -1.
         25    1    1    2    0    0  0.64253005183E+02  0.37210216077E+03 -0.70878086936E+02  0.40402619956E+03  0.12500000000E+03 0.  0.
         25    1    1    2    0    0 -0.16434974968E+03 -0.22880550169E+03 -0.56167155958E+03  0.64067366004E+03  0.12500000000E+03 0.  0.
         25    1    1    2    0    0  0.10009674449E+03 -0.14329665908E+03  0.68380810590E+02  0.22550881583E+03  0.12500000000E+03 0.  0.
</event>
<event>
 5    0  0.5720942E-005  0.2141117E+03  0.7546771E-02  0.1138351E+00
         21   -1    0    0  502  501  0.00000000000E+00  0.00000000000E+00  0.38065828372E+02  0.38065828372E+02  0.00000000000E+00 0. -1.
         21   -1    0    0  501  502 -0.00000000000E+00 -0.00000000000E+00 -0.12043298663E+04  0.12043298663E+04  0.00000000000E+00 0. -1.
         25    1    1    2    0    0 -0.76633163715E+02 -0.22323035868E+01 -0.51418016553E+03  0.53468108961E+03  0.12500000000E+03 0.  0.
         25    1    1    2    0    0  0.66073844202E+02  0.15462563945E+02 -0.42195902677E+03  0.44528559829E+03  0.12500000000E+03 0.  0.
         25    1    1    2    0    0  0.10559319514E+02 -0.13230260358E+02 -0.23012484558E+03  0.26242900673E+03  0.12500000000E+03 0.  0.
</event>
<event>
 5    0  0.5720942E-005  0.2286939E+03  0.7546771E-02  0.1127562E+00
         21   -1    0    0  502  501  0.00000000000E+00  0.00000000000E+00  0.30381242116E+03  0.30381242116E+03  0.00000000000E+00 0. -1.
         21   -1    0    0  501  502 -0.00000000000E+00 -0.00000000000E+00 -0.17214860362E+03  0.17214860362E+03  0.00000000000E+00 0. -1.
         25    1    1    2    0    0  0.52512327422E+02  0.27418756513E+02 -0.14207879248E+02  0.13905465319E+03  0.12500000000E+03 0.  0.
         25    1    1    2    0    0 -0.35604723055E+02  0.60688872017E+02  0.36148443106E+02  0.14792750059E+03  0.12500000000E+03 0.  0.
         25    1    1    2    0    0 -0.16907604367E+02 -0.88107628530E+02  0.10972325368E+03  0.18897887101E+03  0.12500000000E+03 0.  0.
</event>
<event>
 5    0  0.5887805E-005  0.2686112E+03  0.7546771E-02  0.1102077E+00
         21   -1    0    0  502  501  0.00000000000E+00  0.00000000000E+00  0.19739000555E+03  0.19739000555E+03  0.00000000000E+00 0.  1.
         21   -1    0    0  501  502 -0.00000000000E+00 -0.00000000000E+00 -0.36553000241E+03  0.36553000241E+03  0.00000000000E+00 0.  1.
         25    1    1    2    0    0  0.74766034642E+02 -0.61587914753E+02 -0.15103229907E+03  0.21867507069E+03  0.12500000000E+03 0.  0.
         25    1    1    2    0    0  0.11909820079E+02 -0.55239875236E+02 -0.56644213486E+02  0.14841446881E+03  0.12500000000E+03 0.  0.
         25    1    1    2    0    0 -0.86675854721E+02  0.11682778999E+03  0.39536515700E+02  0.19583046846E+03  0.12500000000E+03 0.  0.
</event>
<event>
 5    0  0.5720942E-005  0.3175023E+03  0.7546771E-02  0.1076805E+00
         21   -1    0    0  502  501  0.00000000000E+00  0.00000000000E+00  0.71278945099E+03  0.71278945099E+03  0.00000000000E+00 0.  1.
         21   -1    0    0  501  502 -0.00000000000E+00 -0.00000000000E+00 -0.14142707367E+03  0.14142707367E+03  0.00000000000E+00 0.  1.
         25    1    1    2    0    0 -0.20879655767E+03  0.42354437938E+02  0.24548348855E+03  0.34824853777E+03  0.12500000000E+03 0.  0.
         25    1    1    2    0    0  0.86351791551E+02 -0.11306700753E+03  0.21726416047E+03  0.28821779182E+03  0.12500000000E+03 0.  0.
         25    1    1    2    0    0  0.12244476612E+03  0.70712569592E+02  0.10861472830E+03  0.21775019507E+03  0.12500000000E+03 0.  0.
</event>
<event>
 5    0  0.5720942E-005  0.2162734E+03  0.7546771E-02  0.1136692E+00
         21   -1    0    0  502  501  0.00000000000E+00  0.00000000000E+00  0.17885905613E+02  0.17885905613E+02  0.00000000000E+00 0.  1.
         21   -1    0    0  501  502 -0.00000000000E+00 -0.00000000000E+00 -0.26151417262E+04  0.26151417262E+04  0.00000000000E+00 0.  1.
         25    1    1    2    0    0  0.44232435247E+02 -0.64042668775E+02 -0.90176957217E+03  0.91371293799E+03  0.12500000000E+03 0.  0.
         25    1    1    2    0    0 -0.22253074003E+02 -0.15807008837E+02 -0.97749629549E+03  0.98583419931E+03  0.12500000000E+03 0.  0.
         25    1    1    2    0    0 -0.21979361244E+02  0.79849677612E+02 -0.71798995293E+03  0.73348049453E+03  0.12500000000E+03 0.  0.
</event>
<event>
 5    0  0.5720942E-005  0.2128601E+03  0.7546771E-02  0.1139321E+00
         21   -1    0    0  502  501  0.00000000000E+00  0.00000000000E+00  0.21325567699E+03  0.21325567699E+03  0.00000000000E+00 0.  1.
         21   -1    0    0  501  502 -0.00000000000E+00 -0.00000000000E+00 -0.21246517731E+03  0.21246517731E+03  0.00000000000E+00 0.  1.
         25    1    1    2    0    0  0.30638101481E+02 -0.69053560399E+02 -0.29972750782E+02  0.14909880367E+03  0.12500000000E+03 0.  0.
         25    1    1    2    0    0 -0.47168546651E+02  0.65428671394E+02  0.16182115482E+02  0.14964171776E+03  0.12500000000E+03 0.  0.
         25    1    1    2    0    0  0.16530445170E+02  0.36248890054E+01  0.14581134973E+02  0.12698033287E+03  0.12500000000E+03 0.  0.
</event>
<event>
 5    0  0.5720942E-005  0.2569176E+03  0.7546771E-02  0.1109009E+00
         21   -1    0    0  502  501  0.00000000000E+00  0.00000000000E+00  0.10062118246E+04  0.10062118246E+04  0.00000000000E+00 0.  1.
         21   -1    0    0  501  502 -0.00000000000E+00 -0.00000000000E+00 -0.65599154935E+02  0.65599154935E+02  0.00000000000E+00 0.  1.
         25    1    1    2    0    0  0.83270491926E+02 -0.31415460643E+02  0.24947700280E+03  0.29289021991E+03  0.12500000000E+03 0.  0.
         25    1    1    2    0    0 -0.33127299139E+01  0.13053776035E+03  0.34355653924E+03  0.38821022231E+03  0.12500000000E+03 0.  0.
         25    1    1    2    0    0 -0.79957762012E+02 -0.99122299706E+02  0.34757912766E+03  0.39071053734E+03  0.12500000000E+03 0.  0.
</event>
<event>
 5    0  0.5720942E-005  0.2655717E+03  0.7546771E-02  0.1103841E+00
         21   -1    0    0  502  501  0.00000000000E+00  0.00000000000E+00  0.16221885109E+04  0.16221885109E+04  0.00000000000E+00 0. -1.
         21   -1    0    0  501  502 -0.00000000000E+00 -0.00000000000E+00 -0.43477268427E+02  0.43477268427E+02  0.00000000000E+00 0. -1.
         25    1    1    2    0    0 -0.70998164680E+02 -0.66642344404E+02  0.88693184338E+03  0.90097449256E+03  0.12500000000E+03 0.  0.
         25    1    1    2    0    0 -0.21016959788E+01 -0.39168459479E+02  0.41232799764E+03  0.43264068577E+03  0.12500000000E+03 0.  0.
         25    1    1    2    0    0  0.73099860659E+02  0.10581080388E+03  0.27945140147E+03  0.33205060101E+03  0.12500000000E+03 0.  0.
</event>
