<event>
 5    0  0.5705185E-005  0.4419363E+03  0.7546771E-02  0.1030154E+00
         21   -1    0    0  502  501  0.00000000000E+00  0.00000000000E+00  0.12651560849E+03  0.12651560849E+03  0.00000000000E+00 0. -1.
         21   -1    0    0  501  502 -0.00000000000E+00 -0.00000000000E+00 -0.15437439751E+04  0.15437439751E+04  0.00000000000E+00 0. -1.
         25    1    1    2    0    0 -0.13522328234E+03 -0.27503836720E+03 -0.41976167794E+03  0.53456178856E+03  0.12500000000E+03 0.  0.
         25    1    1    2    0    0 -0.12036209443E+03  0.11568149555E+03 -0.48935258630E+03  0.53194003037E+03  0.12500000000E+03 0.  0.
         25    1    1    2    0    0  0.25558537676E+03  0.15935687165E+03 -0.50811410237E+03  0.60375776466E+03  0.12500000000E+03 0.  0.
</event>
<event>
 5    0  0.5705185E-005  0.6863497E+03  0.7546771E-02  0.9740865E-01
         21   -1    0    0  502  501  0.00000000000E+00  0.00000000000E+00  0.29654981674E+03  0.29654981674E+03  0.00000000000E+00 0.  1.
         21   -1    0    0  501  502 -0.00000000000E+00 -0.00000000000E+00 -0.15885218954E+04  0.15885218954E+04  0.00000000000E+00 0.  1.
         25    1    1    2    0    0 -0.19094707993E+03  0.30588250707E+03 -0.53576011818E+03  0.65779084799E+03  0.12500000000E+03 0.  0.
         25    1    1    2    0    0  0.46634343115E+02  0.30146084499E+03 -0.27291098949E+03  0.42797057283E+03  0.12500000000E+03 0.  0.
         25    1    1    2    0    0  0.14431273681E+03 -0.60734335206E+03 -0.48330097103E+03  0.79931029137E+03  0.12500000000E+03 0.  0.
</event>
<event>
 5    0  0.5705185E-005  0.2350778E+03  0.7546771E-02  0.1123116E+00
         21   -1    0    0  502  501  0.00000000000E+00  0.00000000000E+00  0.30266380762E+02  0.30266380762E+02  0.00000000000E+00 0.  1.
         21   -1    0    0  501  502 -0.00000000000E+00 -0.00000000000E+00 -0.18258403516E+04  0.18258403516E+04  0.00000000000E+00 0.  1.
         25    1    1    2    0    0 -0.26307767284E+02  0.26028470677E+02 -0.30865246223E+03  0.33505361115E+03  0.12500000000E+03 0.  0.
         25    1    1    2    0    0  0.68082470167E+02 -0.66821091797E+02 -0.48951499307E+03  0.51414998735E+03  0.12500000000E+03 0.  0.
         25    1    1    2    0    0 -0.41774702882E+02  0.40792621120E+02 -0.99740651558E+03  0.10069031339E+04  0.12500000000E+03 0.  0.
</event>
<event>
 5    0  0.5705185E-005  0.3151398E+03  0.7546771E-02  0.1077908E+00
         21   -1    0    0  502  501  0.00000000000E+00  0.00000000000E+00  0.31683533408E+03  0.31683533408E+03  0.00000000000E+00 0.  1.
         21   -1    0    0  501  502 -0.00000000000E+00 -0.00000000000E+00 -0.31345338956E+03  0.31345338956E+03  0.00000000000E+00 0.  1.
         25    1    1    2    0    0 -0.57074017519E+02 -0.14438009142E+03 -0.10594124817E+03  0.22572461616E+03  0.12500000000E+03 0.  0.
         25    1    1    2    0    0  0.82709981163E+02 -0.47275983436E+02  0.65063016466E+02  0.17010042829E+03  0.12500000000E+03 0.  0.
         25    1    1    2    0    0 -0.25635963645E+02  0.19165607486E+03  0.44260176222E+02  0.23446367919E+03  0.12500000000E+03 0.  0.
</event>
<event>
 5    0  0.5705185E-005  0.2201726E+03  0.7546771E-02  0.1133754E+00
         21   -1    0    0  502  501  0.00000000000E+00  0.00000000000E+00  0.19418997671E+04  0.19418997671E+04  0.00000000000E+00 0. -1.
         21   -1    0    0  501  502 -0.00000000000E+00 -0.00000000000E+00 -0.24963176702E+02  0.24963176702E+02  0.00000000000E+00 0. -1.
         25    1    1    2    0    0 -0.41569293421E+02  0.54886354313E+02  0.37586397863E+03  0.40204383899E+03  0.12500000000E+03 0.  0.
         25    1    1    2    0    0  0.69071600105E+01 -0.63734417987E+02  0.86969836902E+03  0.88097107669E+03  0.12500000000E+03 0.  0.
         25    1    1    2    0    0  0.34662133410E+02  0.88480636733E+01  0.67137424279E+03  0.68384802815E+03  0.12500000000E+03 0.  0.
</event>
<event>
 5    0  0.6131916E-005  0.2883956E+03  0.7546771E-02  0.1091190E+00
         21   -1    0    0  502  501  0.00000000000E+00  0.00000000000E+00  0.42787504502E+03  0.42787504502E+03  0.00000000000E+00 0.  1.
         21   -1    0    0  501  502 -0.00000000000E+00 -0.00000000000E+00 -0.19438388931E+03  0.19438388931E+03  0.00000000000E+00 0.  1.
         25    1    1    2    0    0  0.68198264804E+02 -0.28407361282E+01  0.25414365737E+02  0.14467191535E+03  0.12500000000E+03 0.  0.
         25    1    1    2    0    0  0.22523730491E+02  0.29896897695E+02 -0.77520848023E+02  0.15177491494E+03  0.12500000000E+03 0.  0.
         25    1    1    2    0    0 -0.90721995295E+02 -0.27056161567E+02  0.28559763800E+03  0.32581210404E+03  0.12500000000E+03 0.  0.
</event>
<event>
 5    0  0.5705185E-005  0.4452371E+03  0.7546771E-02  0.1029152E+00
         21   -1    0    0  502  501  0.00000000000E+00  0.00000000000E+00  0.82920380142E+03  0.82920380142E+03  0.00000000000E+00 0. -1.
         21   -1    0    0  501  502 -0.00000000000E+00 -0.00000000000E+00 -0.23906796768E+03  0.23906796768E+03  0.00000000000E+00 0.  1.
         25    1    1    2    0    0 -0.13660225628E+03  0.88735156449E+02  0.17186249437E+03  0.26776075400E+03  0.12500000000E+03 0.  0.
         25    1    1    2    0    0 -0.27400204824E+02 -0.33497301534E+03  0.18450716887E+03  0.40326862957E+03  0.12500000000E+03 0.  0.
         25    1    1    2    0    0  0.16400246110E+03  0.24623785889E+03  0.23376617050E+03  0.39724238554E+03  0.12500000000E+03 0.  0.
</event>
<event>
 5    0  0.5705185E-005  0.3425643E+03  0.7546771E-02  0.1065709E+00
         21   -1    0    0  502  501  0.00000000000E+00  0.00000000000E+00  0.39603912383E+03  0.39603912383E+03  0.00000000000E+00 0. -1.
         21   -1    0    0  501  502 -0.00000000000E+00 -0.00000000000E+00 -0.29630986615E+03  0.29630986615E+03  0.00000000000E+00 0. -1.
         25    1    1    2    0    0  0.11595839573E+03 -0.27362883228E+02 -0.82574722861E+02  0.19141228220E+03  0.12500000000E+03 0.  0.
         25    1    1    2    0    0  0.13488683653E+03  0.29769407204E+02  0.74868094469E+02  0.20077576508E+03  0.12500000000E+03 0.  0.
         25    1    1    2    0    0 -0.25084523227E+03 -0.24065239767E+01  0.10743588607E+03  0.30016094270E+03  0.12500000000E+03 0.  0.
</event>
<event>
 5    0  0.5705185E-005  0.3549268E+03  0.7546771E-02  0.1060611E+00
         21   -1    0    0  502  501  0.00000000000E+00  0.00000000000E+00  0.20631187634E+04  0.20631187634E+04  0.00000000000E+00 0. -1.
         21   -1    0    0  501  502 -0.00000000000E+00 -0.00000000000E+00 -0.61059524739E+02  0.61059524739E+02  0.00000000000E+00 0. -1.
         25    1    1    2    0    0  0.89796445317E+02 -0.15213161086E+03  0.76835428571E+03  0.79824854336E+03  0.12500000000E+03 0.  0.
         25    1    1    2    0    0 -0.15296541779E+03  0.10607592563E+03  0.11130781163E+04  0.11354375430E+04  0.12500000000E+03 0.  0.
         25    1    1    2    0    0  0.63168972475E+02  0.46055685228E+02  0.12062683668E+03  0.19049220182E+03  0.12500000000E+03 0.  0.
</event>
<event>
 5    0  0.5705185E-005  0.3555418E+03  0.7546771E-02  0.1060363E+00
         21   -1    0    0  502  501  0.00000000000E+00  0.00000000000E+00  0.87381491906E+03  0.87381491906E+03  0.00000000000E+00 0.  1.
         21   -1    0    0  501  502 -0.00000000000E+00 -0.00000000000E+00 -0.14466444542E+03  0.14466444542E+03  0.00000000000E+00 0.  1.
         25    1    1    2    0    0  0.36443018284E+02  0.21990226959E+03  0.23181722120E+03  0.34503525297E+03  0.12500000000E+03 0.  0.
         25    1    1    2    0    0  0.88678974599E+02 -0.13910546355E+03  0.41206414808E+03  0.46112487751E+03  0.12500000000E+03 0.  0.
         25    1    1    2    0    0 -0.12512199288E+03 -0.80796806035E+02  0.85269104361E+02  0.21231923400E+03  0.12500000000E+03 0.  0.
</event>
<event>
 5    0  0.5705185E-005  0.3852857E+03  0.7546771E-02  0.1048997E+00
         21   -1    0    0  502  501  0.00000000000E+00  0.00000000000E+00  0.35561595280E+03  0.35561595280E+03  0.00000000000E+00 0.  1.
         21   -1    0    0  501  502 -0.00000000000E+00 -0.00000000000E+00 -0.41743087234E+03  0.41743087234E+03  0.00000000000E+00 0.  1.
         25    1    1    2    0    0  0.84247109015E+02  0.16053484140E+03  0.74493589165E+02  0.23247216072E+03  0.12500000000E+03 0.  0.
         25    1    1    2    0    0  0.31094967646E+02  0.11947909903E+03 -0.11958200658E+03  0.21252531241E+03  0.12500000000E+03 0.  0.
         25    1    1    2    0    0 -0.11534207666E+03 -0.28001394043E+03 -0.16726502120E+02  0.32804935202E+03  0.12500000000E+03 0.  0.
</event>
<event>
 5    0  0.5705185E-005  0.2052033E+03  0.7546771E-02  0.1145422E+00
         21   -1    0    0  502  501  0.00000000000E+00  0.00000000000E+00  0.98035689071E+03  0.98035689071E+03  0.00000000000E+00 0. -1.
         21   -1    0    0  501  502 -0.00000000000E+00 -0.00000000000E+00 -0.42952095643E+02  0.42952095643E+02  0.00000000000E+00 0. -1.
         25    1    1    2    0    0 -0.51897884074E+02  0.46352767623E+02  0.25515790919E+03  0.29252782442E+03  0.12500000000E+03 0.  0.
         25    1    1    2    0    0  0.35724135415E+02 -0.34996854948E+02  0.32506839261E+03  0.35184578097E+03  0.12500000000E+03 0.  0.
         25    1    1    2    0    0  0.16173748659E+02 -0.11355912675E+02  0.35717849326E+03  0.37893538097E+03  0.12500000000E+03 0.  0.
</event>
<event>
 5    0  0.5705185E-005  0.3662816E+03  0.7546771E-02  0.1056124E+00
         21   -1    0    0  502  501  0.00000000000E+00  0.00000000000E+00  0.33394019277E+03  0.33394019277E+03  0.00000000000E+00 0.  1.
         21   -1    0    0  501  502 -0.00000000000E+00 -0.00000000000E+00 -0.40175512038E+03  0.40175512038E+03  0.00000000000E+00 0.  1.
         25    1    1    2    0    0 -0.32608016111E+02 -0.47554879317E+02 -0.90089055288E+02  0.16451682936E+03  0.12500000000E+03 0.  0.
         25    1    1    2    0    0  0.19351528203E+03  0.10742340145E+03  0.17585796457E+03  0.30909379686E+03  0.12500000000E+03 0.  0.
         25    1    1    2    0    0 -0.16090726592E+03 -0.59868522130E+02 -0.15358383689E+03  0.26208468692E+03  0.12500000000E+03 0.  0.
</event>
<event>
 5    0  0.7480542E-005  0.6888685E+03  0.7546771E-02  0.9736460E-01
         21   -1    0    0  502  501  0.00000000000E+00  0.00000000000E+00  0.72728666166E+03  0.72728666166E+03  0.00000000000E+00 0.  1.
         21   -1    0    0  501  502 -0.00000000000E+00 -0.00000000000E+00 -0.65247976393E+03  0.65247976393E+03  0.00000000000E+00 0.  1.
         25    1    1    2    0    0 -0.28299115294E+03  0.17317874879E+03 -0.22406170198E+03  0.41940853349E+03  0.12500000000E+03 0.  0.
         25    1    1    2    0    0 -0.83902331960E+02  0.10599073879E+03  0.42767529302E+03  0.46562301734E+03  0.12500000000E+03 0.  0.
         25    1    1    2    0    0  0.36689348490E+03 -0.27916948758E+03 -0.12880669332E+03  0.49473487475E+03  0.12500000000E+03 0.  0.
</event>
<event>
 5    0  0.5705185E-005  0.2804541E+03  0.7546771E-02  0.1095441E+00
         21   -1    0    0  502  501  0.00000000000E+00  0.00000000000E+00  0.20445201018E+03  0.20445201018E+03  0.00000000000E+00 0. -1.
         21   -1    0    0  501  502 -0.00000000000E+00 -0.00000000000E+00 -0.38470878595E+03  0.38470878595E+03  0.00000000000E+00 0. -1.
         25    1    1    2    0    0 -0.17103523261E+03  0.44315588587E+02 -0.30627087837E+02  0.21858623172E+03  0.12500000000E+03 0.  0.
         25    1    1    2    0    0  0.13229867951E+03  0.24544099374E+02 -0.12105045448E+03  0.21996264670E+03  0.12500000000E+03 0.  0.
         25    1    1    2    0    0  0.38736553108E+02 -0.68859687961E+02 -0.28579233452E+02  0.15061191771E+03  0.12500000000E+03 0.  0.
</event>
<event>
 5    0  0.6192037E-005  0.2728128E+03  0.7546771E-02  0.1099680E+00
         21   -1    0    0  502  501  0.00000000000E+00  0.00000000000E+00  0.75856704885E+03  0.75856704885E+03  0.00000000000E+00 0. -1.
         21   -1    0    0  501  502 -0.00000000000E+00 -0.00000000000E+00 -0.98115039157E+02  0.98115039157E+02  0.00000000000E+00 0. -1.
         25    1    1    2    0    0 -0.10940491846E+03  0.40031673426E+02  0.13791387300E+03  0.21958416935E+03  0.12500000000E+03 0.  0.
         25    1    1    2    0    0 -0.42318282871E+02  0.58760591349E+02  0.20963039566E+03  0.25458504855E+03  0.12500000000E+03 0.  0.
         25    1    1    2    0    0  0.15172320133E+03 -0.98792264775E+02  0.31290774103E+03  0.38251287011E+03  0.12500000000E+03 0.  0.
</event>
<event>
 5    0  0.5705185E-005  0.2187180E+03  0.7546771E-02  0.1134842E+00
         21   -1    0    0  502  501  0.00000000000E+00  0.00000000000E+00  0.40870261875E+03  0.40870261875E+03  0.00000000000E+00 0. -1.
         21   -1    0    0  501  502 -0.00000000000E+00 -0.00000000000E+00 -0.11704738005E+03  0.11704738005E+03  0.00000000000E+00 0. -1.
         25    1    1    2    0    0 -0.60151605531E+02  0.64000127322E+02  0.88402834118E+02  0.17650578751E+03  0.12500000000E+03 0.  0.
         25    1    1    2    0    0  0.70345008413E+02 -0.11406647039E+02  0.13404587193E+03  0.19665153848E+03  0.12500000000E+03 0.  0.
         25    1    1    2    0    0 -0.10193402882E+02 -0.52593480284E+02  0.69206532657E+02  0.15259267280E+03  0.12500000000E+03 0.  0.
</event>
<event>
 5    0  0.5705185E-005  0.2742177E+03  0.7546771E-02  0.1098890E+00
         21   -1    0    0  502  501  0.00000000000E+00  0.00000000000E+00  0.14420544858E+03  0.14420544858E+03  0.00000000000E+00 0. -1.
         21   -1    0    0  501  502 -0.00000000000E+00 -0.00000000000E+00 -0.52144576108E+03  0.52144576108E+03  0.00000000000E+00 0. -1.
         25    1    1    2    0    0  0.65164578046E+01  0.21667740452E+02  0.55604102131E+02  0.13866784549E+03  0.12500000000E+03 0.  0.
         25    1    1    2    0    0  0.56310797321E+02 -0.65999829120E+02 -0.24810585703E+03  0.29104707459E+03  0.12500000000E+03 0.  0.
         25    1    1    2    0    0 -0.62827255125E+02  0.44332088668E+02 -0.18473855760E+03  0.23593628957E+03  0.12500000000E+03 0.  0.
</event>
<event>
 5    0  0.5705185E-005  0.2822687E+03  0.7546771E-02  0.1094456E+00
         21   -1    0    0  502  501  0.00000000000E+00  0.00000000000E+00  0.14603547963E+04  0.14603547963E+04  0.00000000000E+00 0.  1.
         21   -1    0    0  501  502 -0.00000000000E+00 -0.00000000000E+00 -0.54559075146E+02  0.54559075146E+02  0.00000000000E+00 0.  1.
         25    1    1    2    0    0 -0.68980208818E+02  0.63871875728E+02  0.76721391853E+03  0.78299430554E+03  0.12500000000E+03 0.  0.
         25    1    1    2    0    0  0.31903370954E+01 -0.83352177754E+02  0.11489188407E+03  0.18916370903E+03  0.12500000000E+03 0.  0.
         25    1    1    2    0    0  0.65789871723E+02  0.19480302026E+02  0.52368991859E+03  0.54275585692E+03  0.12500000000E+03 0.  0.
</event>
<event>
 5    0  0.5705185E-005  0.4022881E+03  0.7546771E-02  0.1042990E+00
         21   -1    0    0  502  501  0.00000000000E+00  0.00000000000E+00  0.13777168387E+03  0.13777168387E+03  0.00000000000E+00 0.  1.
         21   -1    0    0  501  502 -0.00000000000E+00 -0.00000000000E+00 -0.11746662799E+04  0.11746662799E+04  0.00000000000E+00 0.  1.
         25    1    1    2    0    0 -0.27063252290E+03  0.19849557310E+03 -0.42749187185E+03  0.55768876220E+03  0.12500000000E+03 0.  0.
         25    1    1    2    0    0  0.15170654022E+03 -0.18667651585E+03 -0.34406518675E+03  0.43802836512E+03  0.12500000000E+03 0.  0.
         25    1    1    2    0    0  0.11892598268E+03 -0.11819057250E+02 -0.26533753741E+03  0.31672083643E+03  0.12500000000E+03 0.  0.
</event>
<event>
 5    0  0.5705185E-005  0.3079628E+03  0.7546771E-02  0.1081326E+00
         21   -1    0    0  502  501  0.00000000000E+00  0.00000000000E+00  0.29035945823E+03  0.29035945823E+03  0.00000000000E+00 0. -1.
         21   -1    0    0  501  502 -0.00000000000E+00 -0.00000000000E+00 -0.32663331614E+03  0.32663331614E+03  0.00000000000E+00 0. -1.
         25    1    1    2    0    0 -0.11978504389E+03  0.78760744676E+02 -0.15562328069E+03  0.24575458721E+03  0.12500000000E+03 0.  0.
         25    1    1    2    0    0  0.34314557998E+02 -0.76802705997E+02  0.15446641531E+03  0.21578002224E+03  0.12500000000E+03 0.  0.
         25    1    1    2    0    0  0.85470485896E+02 -0.19580386798E+01 -0.35116992539E+02  0.15545816492E+03  0.12500000000E+03 0.  0.
</event>
<event>
 5    0  0.5705185E-005  0.4199292E+03  0.7546771E-02  0.1037089E+00
         21   -1    0    0  502  501  0.00000000000E+00  0.00000000000E+00  0.13806974558E+04  0.13806974558E+04  0.00000000000E+00 0.  1.
         21   -1    0    0  501  502 -0.00000000000E+00 -0.00000000000E+00 -0.12771846005E+03  0.12771846005E+03  0.00000000000E+00 0.  1.
         25    1    1    2    0    0  0.12439684157E+03  0.18136567418E+03  0.92427736550E+03  0.95827017607E+03  0.12500000000E+03 0.  0.
         25    1    1    2    0    0 -0.83594245534E+02 -0.23281539749E+03  0.29541841921E+03  0.40507783154E+03  0.12500000000E+03 0.  0.
         25    1    1    2    0    0 -0.40802596033E+02  0.51449723310E+02  0.33283211056E+02  0.14506790827E+03  0.12500000000E+03 0.  0.
</event>
<event>
 5    0  0.5705185E-005  0.3007666E+03  0.7546771E-02  0.1084858E+00
         21   -1    0    0  502  501  0.00000000000E+00  0.00000000000E+00  0.19217698615E+04  0.19217698615E+04  0.00000000000E+00 0. -1.
         21   -1    0    0  501  502 -0.00000000000E+00 -0.00000000000E+00 -0.47071462657E+02  0.47071462657E+02  0.00000000000E+00 0. -1.
         25    1    1    2    0    0 -0.73163972612E+02  0.11852509785E+03  0.12096118546E+04  0.12240044952E+04  0.12500000000E+03 0.  0.
         25    1    1    2    0    0  0.51739709336E+02 -0.76032756575E+02  0.53946281274E+03  0.56134045277E+03  0.12500000000E+03 0.  0.
         25    1    1    2    0    0  0.21424263276E+02 -0.42492341272E+02  0.12562373154E+03  0.18349637612E+03  0.12500000000E+03 0.  0.
</event>
<event>
 5    0  0.5705185E-005  0.2548076E+03  0.7546771E-02  0.1110304E+00
         21   -1    0    0  502  501  0.00000000000E+00  0.00000000000E+00  0.28691502146E+03  0.28691502146E+03  0.00000000000E+00 0. -1.
         21   -1    0    0  501  502 -0.00000000000E+00 -0.00000000000E+00 -0.22629323297E+03  0.22629323297E+03  0.00000000000E+00 0. -1.
         25    1    1    2    0    0  0.12413637446E+02  0.26532107715E+02 -0.16792074469E+02  0.12947982429E+03  0.12500000000E+03 0.  0.
         25    1    1    2    0    0 -0.99117551992E+02 -0.76457263083E+02 -0.44584727818E+02  0.18243574251E+03  0.12500000000E+03 0.  0.
         25    1    1    2    0    0  0.86703914547E+02  0.49925155368E+02  0.12199859078E+03  0.20129268762E+03  0.12500000000E+03 0.  0.
</event>
<event>
 5    0  0.5705185E-005  0.5611302E+03  0.7546771E-02  0.9989501E-01
         21   -1    0    0  502  501  0.00000000000E+00  0.00000000000E+00  0.39415315267E+03  0.39415315267E+03  0.00000000000E+00 0.  1.
         21   -1    0    0  501  502 -0.00000000000E+00 -0.00000000000E+00 -0.79884454619E+03  0.79884454619E+03  0.00000000000E+00 0.  1.
         25    1    1    2    0    0 -0.12546175659E+03 -0.34837715342E+02  0.15275023123E+02  0.18114260987E+03  0.12500000000E+03 0.  0.
         25    1    1    2    0    0  0.49419122797E+03 -0.40578199840E+02 -0.31870849129E+03  0.60255428181E+03  0.12500000000E+03 0.  0.
         25    1    1    2    0    0 -0.36872947137E+03  0.75415915182E+02 -0.10125792536E+03  0.40930080719E+03  0.12500000000E+03 0.  0.
</event>
<event>
 5    0  0.5705185E-005  0.2833214E+03  0.7546771E-02  0.1093889E+00
         21   -1    0    0  502  501  0.00000000000E+00  0.00000000000E+00  0.49549837124E+03  0.49549837124E+03  0.00000000000E+00 0. -1.
         21   -1    0    0  501  502 -0.00000000000E+00 -0.00000000000E+00 -0.16200053082E+03  0.16200053082E+03  0.00000000000E+00 0. -1.
         25    1    1    2    0    0  0.35629710249E+01 -0.53227157482E+02  0.39894600468E+02  0.14164181657E+03  0.12500000000E+03 0.  0.
         25    1    1    2    0    0  0.14139174592E+03 -0.38612119597E+02  0.63623146449E+02  0.20286800230E+03  0.12500000000E+03 0.  0.
         25    1    1    2    0    0 -0.14495471694E+03  0.91839277079E+02  0.22998009350E+03  0.31298908318E+03  0.12500000000E+03 0.  0.
</event>
<event>
 5    0  0.5705185E-005  0.3086227E+03  0.7546771E-02  0.1081008E+00
         21   -1    0    0  502  501  0.00000000000E+00  0.00000000000E+00  0.26714640389E+03  0.26714640389E+03  0.00000000000E+00 0. -1.
         21   -1    0    0  501  502 -0.00000000000E+00 -0.00000000000E+00 -0.35653849430E+03  0.35653849430E+03  0.00000000000E+00 0. -1.
         25    1    1    2    0    0  0.44440451295E+02  0.18699902097E+02  0.53937935639E+02  0.14442624744E+03  0.12500000000E+03 0.  0.
         25    1    1    2    0    0 -0.59509028767E+02  0.21467459805E+02 -0.26491622620E+03  0.29967946750E+03  0.12500000000E+03 0.  0.
         25    1    1    2    0    0  0.15068577472E+02 -0.40167361902E+02  0.12158620015E+03  0.17957918325E+03  0.12500000000E+03 0.  0.
</event>
<event>
 5    0  0.5705185E-005  0.2493571E+03  0.7546771E-02  0.1113712E+00
         21   -1    0    0  502  501  0.00000000000E+00  0.00000000000E+00  0.53892697105E+03  0.53892697105E+03  0.00000000000E+00 0.  1.
         21   -1    0    0  501  502 -0.00000000000E+00 -0.00000000000E+00 -0.11537548817E+03  0.11537548817E+03  0.00000000000E+00 0.  1.
         25    1    1    2    0    0  0.51789783829E+02 -0.12689270688E+03  0.19548501393E+03  0.26948716378E+03  0.12500000000E+03 0.  0.
         25    1    1    2    0    0 -0.67260469710E+01  0.66651160022E+00  0.11129965764E+03  0.16750611253E+03  0.12500000000E+03 0.  0.
         25    1    1    2    0    0 -0.45063736858E+02  0.12622619528E+03  0.11676681131E+03  0.21730918292E+03  0.12500000000E+03 0.  0.
</event>
<event>
 5    0  0.5705185E-005  0.2267300E+03  0.7546771E-02  0.1128963E+00
         21   -1    0    0  502  501  0.00000000000E+00  0.00000000000E+00  0.36660047425E+03  0.36660047425E+03  0.00000000000E+00 0. -1.
         21   -1    0    0  501  502 -0.00000000000E+00 -0.00000000000E+00 -0.14022484729E+03  0.14022484729E+03  0.00000000000E+00 0. -1.
         25    1    1    2    0    0  0.53449819824E+02 -0.72097365512E+02  0.93248724195E+02  0.17993120329E+03  0.12500000000E+03 0.  0.
         25    1    1    2    0    0 -0.45585366454E+02 -0.26431000056E+02  0.86386996911E+02  0.16082393054E+03  0.12500000000E+03 0.  0.
         25    1    1    2    0    0 -0.78644533701E+01  0.98528365568E+02  0.46739905858E+02  0.16607018772E+03  0.12500000000E+03 0.  0.
</event>
<event>
 5    0  0.5705185E-005  0.3662405E+03  0.7546771E-02  0.1056140E+00
         21   -1    0    0  502  501  0.00000000000E+00  0.00000000000E+00  0.87145711653E+03  0.87145711653E+03  0.00000000000E+00 0. -1.
         21   -1    0    0  501  502 -0.00000000000E+00 -0.00000000000E+00 -0.15391701866E+03  0.15391701866E+03  0.00000000000E+00 0. -1.
         25    1    1    2    0    0 -0.10430187404E+03 -0.17268252134E+03  0.55006009632E+03  0.59907365463E+03  0.12500000000E+03 0.  0.
         25    1    1    2    0    0  0.15782705173E+03  0.15394897352E+03  0.12514078583E+03  0.28265682547E+03  0.12500000000E+03 0.  0.
         25    1    1    2    0    0 -0.53525177693E+02  0.18733547819E+02  0.42339215729E+02  0.14364365510E+03  0.12500000000E+03 0.  0.
</event>
<event>
 5    0  0.5705185E-005  0.2560211E+03  0.7546771E-02  0.1109558E+00
         21   -1    0    0  502  501  0.00000000000E+00  0.00000000000E+00  0.21082012708E+03  0.21082012708E+03  0.00000000000E+00 0. -1.
         21   -1    0    0  501  502 -0.00000000000E+00 -0.00000000000E+00 -0.31091347740E+03  0.31091347740E+03  0.00000000000E+00 0. -1.
         25    1    1    2    0    0 -0.66368073645E+02 -0.20234021869E+02 -0.29877599382E+02  0.14605412622E+03  0.12500000000E+03 0.  0.
         25    1    1    2    0    0  0.12354347956E+03  0.92707295047E+02  0.13522146181E+02  0.19916195001E+03  0.12500000000E+03 0.  0.
         25    1    1    2    0    0 -0.57175405912E+02 -0.72473273178E+02 -0.83737897115E+02  0.17651752825E+03  0.12500000000E+03 0.  0.
</event>
<event>
 5    0  0.5705185E-005  0.4520419E+03  0.7546771E-02  0.1027115E+00
         21   -1    0    0  502  501  0.00000000000E+00  0.00000000000E+00  0.81899839724E+03  0.81899839724E+03  0.00000000000E+00 0. -1.
         21   -1    0    0  501  502 -0.00000000000E+00 -0.00000000000E+00 -0.24950218664E+03  0.24950218664E+03  0.00000000000E+00 0. -1.
         25    1    1    2    0    0  0.27180850353E+03  0.14451901320E+03  0.30137225831E+03  0.44857089278E+03  0.12500000000E+03 0.  0.
         25    1    1    2    0    0 -0.27936375559E+03 -0.24943762838E+03  0.20411230469E+03  0.44446605193E+03  0.12500000000E+03 0.  0.
         25    1    1    2    0    0  0.75552520557E+01  0.10491861519E+03  0.64011647592E+02  0.17546363918E+03  0.12500000000E+03 0.  0.
</event>
<event>
 5    0  0.5705185E-005  0.3851506E+03  0.7546771E-02  0.1049046E+00
         21   -1    0    0  502  501  0.00000000000E+00  0.00000000000E+00  0.16151197130E+04  0.16151197130E+04  0.00000000000E+00 0.  1.
         21   -1    0    0  501  502 -0.00000000000E+00 -0.00000000000E+00 -0.91845197658E+02  0.91845197658E+02  0.00000000000E+00 0.  1.
         25    1    1    2    0    0  0.24874547707E+03  0.79375448848E+02  0.54069821576E+03  0.61331422188E+03  0.12500000000E+03 0.  0.
         25    1    1    2    0    0 -0.61681482169E+00 -0.14780144047E+03  0.42149255609E+03  0.46381744373E+03  0.12500000000E+03 0.  0.
         25    1    1    2    0    0 -0.24812866225E+03  0.68425991621E+02  0.56108374354E+03  0.62983324509E+03  0.12500000000E+03 0.  0.
</event>
<event>
 5    0  0.5705185E-005  0.3772154E+03  0.7546771E-02  0.1051968E+00
         21   -1    0    0  502  501  0.00000000000E+00  0.00000000000E+00  0.78573889953E+02  0.78573889953E+02  0.00000000000E+00 0.  1.
         21   -1    0    0  501  502 -0.00000000000E+00 -0.00000000000E+00 -0.18109252342E+04  0.18109252342E+04  0.00000000000E+00 0.  1.
         25    1    1    2    0    0 -0.58170469979E+02 -0.24416177605E+03 -0.11440234883E+04  0.11778851889E+04  0.12500000000E+03 0.  0.
         25    1    1    2    0    0  0.68228964591E+02  0.11107778212E+03 -0.14352260571E+03  0.23068854249E+03  0.12500000000E+03 0.  0.
         25    1    1    2    0    0 -0.10058494613E+02  0.13308399393E+03 -0.44480525027E+03  0.48092539278E+03  0.12500000000E+03 0.  0.
</event>
<event>
 5    0  0.5705185E-005  0.2824301E+03  0.7546771E-02  0.1094369E+00
         21   -1    0    0  502  501  0.00000000000E+00  0.00000000000E+00  0.42572886470E+03  0.42572886470E+03  0.00000000000E+00 0. -1.
         21   -1    0    0  501  502 -0.00000000000E+00 -0.00000000000E+00 -0.18736517699E+03  0.18736517699E+03  0.00000000000E+00 0. -1.
         25    1    1    2    0    0  0.65751868599E+02  0.12257685637E+03 -0.18616699919E+02  0.18793609408E+03  0.12500000000E+03 0.  0.
         25    1    1    2    0    0 -0.48019266334E+02  0.24761911121E+02  0.60473431373E+02  0.14900012780E+03  0.12500000000E+03 0.  0.
         25    1    1    2    0    0 -0.17732602266E+02 -0.14733876750E+03  0.19650695626E+03  0.27615781982E+03  0.12500000000E+03 0.  0.
</event>
<event>
 5    0  0.5705185E-005  0.2951899E+03  0.7546771E-02  0.1087670E+00
         21   -1    0    0  502  501  0.00000000000E+00  0.00000000000E+00  0.16467332439E+03  0.16467332439E+03  0.00000000000E+00 0. -1.
         21   -1    0    0  501  502 -0.00000000000E+00 -0.00000000000E+00 -0.52915118960E+03  0.52915118960E+03  0.00000000000E+00 0. -1.
         25    1    1    2    0    0 -0.57930515333E+02 -0.17332577389E+03 -0.32629160204E+02  0.22380221312E+03  0.12500000000E+03 0.  0.
         25    1    1    2    0    0  0.66471586085E+02  0.14795204314E+03 -0.19536561601E+03  0.28302120547E+03  0.12500000000E+03 0.  0.
         25    1    1    2    0    0 -0.85410707517E+01  0.25373730746E+02 -0.13648308899E+03  0.18700109540E+03  0.12500000000E+03 0.  0.
</event>
<event>
 5    0  0.6913852E-005  0.2920297E+03  0.7546771E-02  0.1089294E+00
         21   -1    0    0  502  501  0.00000000000E+00  0.00000000000E+00  0.16398124614E+03  0.16398124614E+03  0.00000000000E+00 0. -1.
         21   -1    0    0  501  502 -0.00000000000E+00 -0.00000000000E+00 -0.52006756301E+03  0.52006756301E+03  0.00000000000E+00 0. -1.
         25    1    1    2    0    0 -0.12339292164E+03 -0.12999196544E+02 -0.15176636029E+03  0.23249262426E+03  0.12500000000E+03 0.  0.
         25    1    1    2    0    0  0.18782563823E+03  0.67237953944E+02 -0.18536888263E+03  0.29964318026E+03  0.12500000000E+03 0.  0.
         25    1    1    2    0    0 -0.64432716592E+02 -0.54238757400E+02 -0.18951073942E+02  0.15191300463E+03  0.12500000000E+03 0.  0.
</event>
<event>
 5    0  0.5705185E-005  0.2416700E+03  0.7546771E-02  0.1118685E+00
         21   -1    0    0  502  501  0.00000000000E+00  0.00000000000E+00  0.23089419188E+03  0.23089419188E+03  0.00000000000E+00 0.  1.
         21   -1    0    0  501  502 -0.00000000000E+00 -0.00000000000E+00 -0.25294864953E+03  0.25294864953E+03  0.00000000000E+00 0.  1.
         25    1    1    2    0    0 -0.42219162117E+02 -0.31325304083E+02  0.43472498394E+02  0.14240291585E+03  0.12500000000E+03 0.  0.
         25    1    1    2    0    0  0.12326390222E+03 -0.75312006693E+01 -0.65373698887E+02  0.18748181000E+03  0.12500000000E+03 0.  0.
         25    1    1    2    0    0 -0.81044740103E+02  0.38856504752E+02 -0.15325716157E+00  0.15395811556E+03  0.12500000000E+03 0.  0.
</event>
<event>
 5    0  0.5705185E-005  0.2271230E+03  0.7546771E-02  0.1128681E+00
         21   -1    0    0  502  501  0.00000000000E+00  0.00000000000E+00  0.10425036685E+03  0.10425036685E+03  0.00000000000E+00 0.  1.
         21   -1    0    0  501  502 -0.00000000000E+00 -0.00000000000E+00 -0.49481723710E+03  0.49481723710E+03  0.00000000000E+00 0.  1.
         25    1    1    2    0    0 -0.13372193117E+02 -0.19000624127E+02 -0.27855804279E+03  0.30620160429E+03  0.12500000000E+03 0.  0.
         25    1    1    2    0    0  0.40943079235E+01  0.15914848655E+02 -0.11023475100E+03  0.16747162772E+03  0.12500000000E+03 0.  0.
         25    1    1    2    0    0  0.92778851934E+01  0.30857754719E+01 -0.17740764608E+01  0.12539437193E+03  0.12500000000E+03 0.  0.
</event>
<event>
 5    0  0.5705185E-005  0.4765089E+03  0.7546771E-02  0.1020099E+00
         21   -1    0    0  502  501  0.00000000000E+00  0.00000000000E+00  0.11117199410E+03  0.11117199410E+03  0.00000000000E+00 0.  1.
         21   -1    0    0  501  502 -0.00000000000E+00 -0.00000000000E+00 -0.20424278283E+04  0.20424278283E+04  0.00000000000E+00 0.  1.
         25    1    1    2    0    0  0.16266725401E+03 -0.21106862957E+03 -0.10381133061E+04  0.10790342155E+04  0.12500000000E+03 0.  0.
         25    1    1    2    0    0 -0.61131198347E+02 -0.11071895460E+03 -0.10094987744E+03  0.20447882060E+03  0.12500000000E+03 0.  0.
         25    1    1    2    0    0 -0.10153605566E+03  0.32178758418E+03 -0.79219265061E+03  0.87008678625E+03  0.12500000000E+03 0.  0.
</event>
<event>
 5    0  0.5705185E-005  0.2846829E+03  0.7546771E-02  0.1093158E+00
         21   -1    0    0  502  501  0.00000000000E+00  0.00000000000E+00  0.11212923251E+04  0.11212923251E+04  0.00000000000E+00 0. -1.
         21   -1    0    0  501  502 -0.00000000000E+00 -0.00000000000E+00 -0.72277616567E+02  0.72277616567E+02  0.00000000000E+00 0. -1.
         25    1    1    2    0    0 -0.28349286528E+02 -0.15314599174E+03  0.66070619100E+03  0.69022825765E+03  0.12500000000E+03 0.  0.
         25    1    1    2    0    0  0.89490016818E+01  0.96695598239E+02  0.29961987880E+03  0.33886161648E+03  0.12500000000E+03 0.  0.
         25    1    1    2    0    0  0.19400284846E+02  0.56450393504E+02  0.88688638746E+02  0.16448006755E+03  0.12500000000E+03 0.  0.
</event>
<event>
 5    0  0.1013463E-004  0.3826917E+03  0.7546771E-02  0.1049943E+00
         21   -1    0    0  502  501  0.00000000000E+00  0.00000000000E+00  0.24767321401E+03  0.24767321401E+03  0.00000000000E+00 0. -1.
         21   -1    0    0  501  502 -0.00000000000E+00 -0.00000000000E+00 -0.59131524953E+03  0.59131524953E+03  0.00000000000E+00 0. -1.
         25    1    1    2    0    0  0.10856314740E+03 -0.44553813928E+02  0.10046505873E+03  0.19871896571E+03  0.12500000000E+03 0.  0.
         25    1    1    2    0    0  0.81508149839E+02 -0.96645149781E+02 -0.26136848578E+03  0.31610496489E+03  0.12500000000E+03 0.  0.
         25    1    1    2    0    0 -0.19007129724E+03  0.14119896371E+03 -0.18273860846E+03  0.32416453293E+03  0.12500000000E+03 0.  0.
</event>
<event>
 5    0  0.5705185E-005  0.3159133E+03  0.7546771E-02  0.1077546E+00
         21   -1    0    0  502  501  0.00000000000E+00  0.00000000000E+00  0.98691474095E+02  0.98691474095E+02  0.00000000000E+00 0. -1.
         21   -1    0    0  501  502 -0.00000000000E+00 -0.00000000000E+00 -0.10112447214E+04  0.10112447214E+04  0.00000000000E+00 0. -1.
         25    1    1    2    0    0  0.95441594258E+02 -0.95927992630E+02 -0.55662895844E+03  0.58632079535E+03  0.12500000000E+03 0.  0.
         25    1    1    2    0    0  0.38018215341E+01 -0.66166651765E+02 -0.21047100326E+03  0.25360505292E+03  0.12500000000E+03 0.  0.
         25    1    1    2    0    0 -0.99243415792E+02  0.16209464439E+03 -0.14545328562E+03  0.27001034724E+03  0.12500000000E+03 0.  0.
</event>
<event>
 5    0  0.5705185E-005  0.3287046E+03  0.7546771E-02  0.1071711E+00
         21   -1    0    0  502  501  0.00000000000E+00  0.00000000000E+00  0.89571670866E+02  0.89571670866E+02  0.00000000000E+00 0. -1.
         21   -1    0    0  501  502 -0.00000000000E+00 -0.00000000000E+00 -0.12062600612E+04  0.12062600612E+04  0.00000000000E+00 0. -1.
         25    1    1    2    0    0 -0.43635532965E+02 -0.12290013688E+03 -0.44255575348E+03  0.47800533294E+03  0.12500000000E+03 0.  0.
         25    1    1    2    0    0  0.12547738141E+03 -0.92220384435E+02 -0.32357292786E+03  0.38022836848E+03  0.12500000000E+03 0.  0.
         25    1    1    2    0    0 -0.81841848450E+02  0.21512052132E+03 -0.35055970897E+03  0.43759803062E+03  0.12500000000E+03 0.  0.
</event>
<event>
 5    0  0.5705185E-005  0.3788452E+03  0.7546771E-02  0.1051361E+00
         21   -1    0    0  502  501  0.00000000000E+00  0.00000000000E+00  0.11452917933E+04  0.11452917933E+04  0.00000000000E+00 0.  1.
         21   -1    0    0  501  502 -0.00000000000E+00 -0.00000000000E+00 -0.12531623959E+03  0.12531623959E+03  0.00000000000E+00 0.  1.
         25    1    1    2    0    0  0.16901064706E+03  0.18761385458E+03  0.37947216925E+03  0.47263906365E+03  0.12500000000E+03 0.  0.
         25    1    1    2    0    0 -0.10661309633E+03 -0.26233870995E+03  0.35133256948E+03  0.46823874832E+03  0.12500000000E+03 0.  0.
         25    1    1    2    0    0 -0.62397550731E+02  0.74724855375E+02  0.28917081496E+03  0.32973022089E+03  0.12500000000E+03 0.  0.
</event>
<event>
 5    0  0.6174334E-005  0.2495838E+03  0.7546771E-02  0.1113568E+00
         21   -1    0    0  502  501  0.00000000000E+00  0.00000000000E+00  0.21037422886E+03  0.21037422886E+03  0.00000000000E+00 0.  1.
         21   -1    0    0  501  502 -0.00000000000E+00 -0.00000000000E+00 -0.29610131855E+03  0.29610131855E+03  0.00000000000E+00 0.  1.
         25    1    1    2    0    0 -0.39690820266E+02  0.50249910561E+01 -0.90663961123E+02  0.15951666244E+03  0.12500000000E+03 0.  0.
         25    1    1    2    0    0 -0.95667750030E+02 -0.31465171666E+02 -0.45016436741E+01  0.16058530512E+03  0.12500000000E+03 0.  0.
         25    1    1    2    0    0  0.13535857030E+03  0.26440180610E+02  0.94385151097E+01  0.18637357986E+03  0.12500000000E+03 0.  0.
</event>
<event>
 5    0  0.5705185E-005  0.4295618E+03  0.7546771E-02  0.1033998E+00
         21   -1    0    0  502  501  0.00000000000E+00  0.00000000000E+00  0.90375044126E+02  0.90375044126E+02  0.00000000000E+00 0. -1.
         21   -1    0    0  501  502 -0.00000000000E+00 -0.00000000000E+00 -0.20417512325E+04  0.20417512325E+04  0.00000000000E+00 0. -1.
         25    1    1    2    0    0 -0.88071013165E+02 -0.20789014741E+03 -0.47464861576E+03  0.54026949312E+03  0.12500000000E+03 0.  0.
         25    1    1    2    0    0  0.59438205845E+02  0.32204586546E+03 -0.57106657025E+03  0.67006601722E+03  0.12500000000E+03 0.  0.
         25    1    1    2    0    0  0.28632807320E+02 -0.11415571805E+03 -0.90566100234E+03  0.92179076627E+03  0.12500000000E+03 0.  0.
</event>
<event>
 5    0  0.5705185E-005  0.2150598E+03  0.7546771E-02  0.1137621E+00
         21   -1    0    0  502  501  0.00000000000E+00  0.00000000000E+00  0.18565423316E+03  0.18565423316E+03  0.00000000000E+00 0.  1.
         21   -1    0    0  501  502 -0.00000000000E+00 -0.00000000000E+00 -0.24912290568E+03  0.24912290568E+03  0.00000000000E+00 0.  1.
         25    1    1    2    0    0  0.56545599213E+02  0.23001364270E+02 -0.42090640158E+02  0.14533784620E+03  0.12500000000E+03 0.  0.
         25    1    1    2    0    0  0.63239961227E+01 -0.26270196837E+02 -0.64172659621E+02  0.14308475255E+03  0.12500000000E+03 0.  0.
         25    1    1    2    0    0 -0.62869595336E+02  0.32688325670E+01  0.42794627263E+02  0.14635454010E+03  0.12500000000E+03 0.  0.
</event>
<event>
 5    0  0.6555634E-005  0.2722524E+03  0.7546771E-02  0.1099997E+00
         21   -1    0    0  502  501  0.00000000000E+00  0.00000000000E+00  0.15641863902E+03  0.15641863902E+03  0.00000000000E+00 0.  1.
         21   -1    0    0  501  502 -0.00000000000E+00 -0.00000000000E+00 -0.47386535576E+03  0.47386535576E+03  0.00000000000E+00 0.  1.
         25    1    1    2    0    0 -0.10626568132E+03  0.50964481933E+02  0.16673398841E+02  0.17260583905E+03  0.12500000000E+03 0.  0.
         25    1    1    2    0    0  0.66085272721E+02 -0.93744406238E+02 -0.14292557663E+03  0.22182875699E+03  0.12500000000E+03 0.  0.
         25    1    1    2    0    0  0.40180408601E+02  0.42779924305E+02 -0.19119453895E+03  0.23584939874E+03  0.12500000000E+03 0.  0.
</event>
<event>
 5    0  0.5705185E-005  0.3885620E+03  0.7546771E-02  0.1047814E+00
         21   -1    0    0  502  501  0.00000000000E+00  0.00000000000E+00  0.18111254761E+03  0.18111254761E+03  0.00000000000E+00 0.  1.
         21   -1    0    0  501  502 -0.00000000000E+00 -0.00000000000E+00 -0.83362747627E+03  0.83362747627E+03  0.00000000000E+00 0.  1.
         25    1    1    2    0    0 -0.11016618094E+03 -0.13539854677E+03 -0.43171973941E+03  0.48215794849E+03  0.12500000000E+03 0.  0.
         25    1    1    2    0    0 -0.13633744756E+03  0.32639277109E+02 -0.62764747234E+02  0.19803443012E+03  0.12500000000E+03 0.  0.
         25    1    1    2    0    0  0.24650362849E+03  0.10275926967E+03 -0.15803044201E+03  0.33454764529E+03  0.12500000000E+03 0.  0.
</event>
<event>
 5    0  0.6026838E-005  0.3389684E+03  0.7546771E-02  0.1067236E+00
         21   -1    0    0  502  501  0.00000000000E+00  0.00000000000E+00  0.18684077958E+03  0.18684077958E+03  0.00000000000E+00 0. -1.
         21   -1    0    0  501  502 -0.00000000000E+00 -0.00000000000E+00 -0.61495990823E+03  0.61495990823E+03  0.00000000000E+00 0. -1.
         25    1    1    2    0    0  0.17223431852E+03 -0.35840024507E+02 -0.76466973544E+02  0.22895712672E+03  0.12500000000E+03 0.  0.
         25    1    1    2    0    0 -0.13142606376E+03  0.11007381379E+03 -0.36402138246E+03  0.42133789481E+03  0.12500000000E+03 0.  0.
         25    1    1    2    0    0 -0.40808254762E+02 -0.74233789287E+02  0.12369227356E+02  0.15150566628E+03  0.12500000000E+03 0.  0.
</event>
<event>
 5    0  0.5705185E-005  0.2924475E+03  0.7546771E-02  0.1089078E+00
         21   -1    0    0  502  501  0.00000000000E+00  0.00000000000E+00  0.60827480373E+03  0.60827480373E+03  0.00000000000E+00 0. -1.
         21   -1    0    0  501  502 -0.00000000000E+00 -0.00000000000E+00 -0.14060341493E+03  0.14060341493E+03  0.00000000000E+00 0. -1.
         25    1    1    2    0    0  0.79438900596E+02 -0.10222344440E+02  0.30561427172E+02  0.15157188422E+03  0.12500000000E+03 0.  0.
         25    1    1    2    0    0 -0.16260146475E+03  0.10331066808E+03  0.22868836849E+03  0.32409211709E+03  0.12500000000E+03 0.  0.
         25    1    1    2    0    0  0.83162564156E+02 -0.93088323636E+02  0.20842159314E+03  0.27321421735E+03  0.12500000000E+03 0.  0.
</event>
<event>
 5    0  0.5705185E-005  0.2166673E+03  0.7546771E-02  0.1136392E+00
         21   -1    0    0  502  501  0.00000000000E+00  0.00000000000E+00  0.16881595813E+03  0.16881595813E+03  0.00000000000E+00 0. -1.
         21   -1    0    0  501  502 -0.00000000000E+00 -0.00000000000E+00 -0.27808214909E+03  0.27808214909E+03  0.00000000000E+00 0. -1.
         25    1    1    2    0    0 -0.35785224079E+02 -0.16233080100E+02 -0.49421106320E+01  0.13112406190E+03  0.12500000000E+03 0.  0.
         25    1    1    2    0    0 -0.65808646275E+01  0.27973370440E+02 -0.12796159713E+03  0.18117667502E+03  0.12500000000E+03 0.  0.
         25    1    1    2    0    0  0.42366088706E+02 -0.11740290339E+02  0.23637516800E+02  0.13459737029E+03  0.12500000000E+03 0.  0.
</event>
<event>
 5    0  0.5705185E-005  0.3579894E+03  0.7546771E-02  0.1059383E+00
         21   -1    0    0  502  501  0.00000000000E+00  0.00000000000E+00  0.13415543533E+04  0.13415543533E+04  0.00000000000E+00 0. -1.
         21   -1    0    0  501  502 -0.00000000000E+00 -0.00000000000E+00 -0.95528279279E+02  0.95528279279E+02  0.00000000000E+00 0. -1.
         25    1    1    2    0    0  0.43602130100E+02  0.16117670644E+03  0.37485614470E+03  0.42897692906E+03  0.12500000000E+03 0.  0.
         25    1    1    2    0    0  0.83538635896E+02  0.10699826941E+03  0.34348095608E+03  0.38991217028E+03  0.12500000000E+03 0.  0.
         25    1    1    2    0    0 -0.12714076600E+03 -0.26817497585E+03  0.52768897320E+03  0.61819353319E+03  0.12500000000E+03 0.  0.
</event>
<event>
 5    0  0.5800165E-005  0.2649075E+03  0.7546771E-02  0.1104230E+00
         21   -1    0    0  502  501  0.00000000000E+00  0.00000000000E+00  0.58199234412E+03  0.58199234412E+03  0.00000000000E+00 0.  1.
         21   -1    0    0  501  502 -0.00000000000E+00 -0.00000000000E+00 -0.12057885033E+03  0.12057885033E+03  0.00000000000E+00 0.  1.
         25    1    1    2    0    0 -0.95133907765E+02 -0.87140965919E+01  0.31679401419E+03  0.35370869839E+03  0.12500000000E+03 0.  0.
         25    1    1    2    0    0  0.10120956639E+03 -0.11085064066E+02  0.63837174183E+01  0.16134437338E+03  0.12500000000E+03 0.  0.
         25    1    1    2    0    0 -0.60756586226E+01  0.19799160658E+02  0.13823576218E+03  0.18751812269E+03  0.12500000000E+03 0.  0.
</event>
<event>
 5    0  0.5705185E-005  0.6195656E+03  0.7546771E-02  0.9865625E-01
         21   -1    0    0  502  501  0.00000000000E+00  0.00000000000E+00  0.15750185160E+04  0.15750185160E+04  0.00000000000E+00 0.  1.
         21   -1    0    0  501  502 -0.00000000000E+00 -0.00000000000E+00 -0.24371873724E+03  0.24371873724E+03  0.00000000000E+00 0.  1.
         25    1    1    2    0    0 -0.46264040158E+03 -0.12584778423E+03  0.39976801806E+03  0.63664218698E+03  0.12500000000E+03 0.  0.
         25    1    1    2    0    0  0.47391089102E+03  0.20186915960E+03  0.50928001441E+03  0.73507402573E+03  0.12500000000E+03 0.  0.
         25    1    1    2    0    0 -0.11270489438E+02 -0.76021375366E+02  0.42225174630E+03  0.44702104056E+03  0.12500000000E+03 0.  0.
</event>
<event>
 5    0  0.5705185E-005  0.4300782E+03  0.7546771E-02  0.1033835E+00
         21   -1    0    0  502  501  0.00000000000E+00  0.00000000000E+00  0.10287340590E+04  0.10287340590E+04  0.00000000000E+00 0. -1.
         21   -1    0    0  501  502 -0.00000000000E+00 -0.00000000000E+00 -0.17980083564E+03  0.17980083564E+03  0.00000000000E+00 0. -1.
         25    1    1    2    0    0 -0.13037928441E+03  0.11256520060E+03  0.64140097672E+02  0.22228053068E+03  0.12500000000E+03 0.  0.
         25    1    1    2    0    0  0.17560735468E+03 -0.15305091806E+03  0.80365629258E+03  0.84602066354E+03  0.12500000000E+03 0.  0.
         25    1    1    2    0    0 -0.45228070269E+02  0.40485717461E+02 -0.18863166927E+02  0.14023370039E+03  0.12500000000E+03 0.  0.
</event>
<event>
 5    0  0.5705185E-005  0.3332432E+03  0.7546771E-02  0.1069711E+00
         21   -1    0    0  502  501  0.00000000000E+00  0.00000000000E+00  0.87486873178E+03  0.87486873178E+03  0.00000000000E+00 0. -1.
         21   -1    0    0  501  502 -0.00000000000E+00 -0.00000000000E+00 -0.12693452316E+03  0.12693452316E+03  0.00000000000E+00 0. -1.
         25    1    1    2    0    0 -0.82148699727E+02  0.45203330015E+02  0.32314553227E+03  0.35894259281E+03  0.12500000000E+03 0.  0.
         25    1    1    2    0    0 -0.94342863281E+02  0.88328606834E+02  0.32178055537E+03  0.36860581174E+03  0.12500000000E+03 0.  0.
         25    1    1    2    0    0  0.17649156301E+03 -0.13353193685E+03  0.10300812099E+03  0.27425485039E+03  0.12500000000E+03 0.  0.
</event>
<event>
 5    0  0.5705185E-005  0.3844419E+03  0.7546771E-02  0.1049304E+00
         21   -1    0    0  502  501  0.00000000000E+00  0.00000000000E+00  0.32228252679E+03  0.32228252679E+03  0.00000000000E+00 0. -1.
         21   -1    0    0  501  502 -0.00000000000E+00 -0.00000000000E+00 -0.45859019268E+03  0.45859019268E+03  0.00000000000E+00 0. -1.
         25    1    1    2    0    0  0.80130474756E+02 -0.92713847262E+02  0.68432895814E+02  0.18794896033E+03  0.12500000000E+03 0.  0.
         25    1    1    2    0    0 -0.23548050001E+03 -0.14001347028E+02  0.27961598473E+02  0.26842867692E+03  0.12500000000E+03 0.  0.
         25    1    1    2    0    0  0.15535002525E+03  0.10671519429E+03 -0.23270216018E+03  0.32449508223E+03  0.12500000000E+03 0.  0.
</event>
<event>
 5    0  0.5705185E-005  0.3345654E+03  0.7546771E-02  0.1069135E+00
         21   -1    0    0  502  501  0.00000000000E+00  0.00000000000E+00  0.13413312545E+04  0.13413312545E+04  0.00000000000E+00 0. -1.
         21   -1    0    0  501  502 -0.00000000000E+00 -0.00000000000E+00 -0.83449924843E+02  0.83449924843E+02  0.00000000000E+00 0. -1.
         25    1    1    2    0    0  0.49700358152E+01 -0.11650580256E+03  0.10540693330E+03  0.20083307714E+03  0.12500000000E+03 0.  0.
         25    1    1    2    0    0 -0.11646655073E+00  0.38771253104E+01  0.10575591230E+03  0.16378143561E+03  0.12500000000E+03 0.  0.
         25    1    1    2    0    0 -0.48535692644E+01  0.11262867725E+03  0.10467184841E+04  0.10601666666E+04  0.12500000000E+03 0.  0.
</event>
<event>
 5    0  0.5705185E-005  0.3119560E+03  0.7546771E-02  0.1079412E+00
         21   -1    0    0  502  501  0.00000000000E+00  0.00000000000E+00  0.96118346105E+03  0.96118346105E+03  0.00000000000E+00 0.  1.
         21   -1    0    0  501  502 -0.00000000000E+00 -0.00000000000E+00 -0.10124660663E+03  0.10124660663E+03  0.00000000000E+00 0.  1.
         25    1    1    2    0    0 -0.13400924720E+03  0.81641670704E+02  0.24237583948E+03  0.31463453131E+03  0.12500000000E+03 0.  0.
         25    1    1    2    0    0  0.15066130915E+03 -0.19543270737E+02  0.11929224334E+03  0.23007913601E+03  0.12500000000E+03 0.  0.
         25    1    1    2    0    0 -0.16652061951E+02 -0.62098399967E+02  0.49826877161E+03  0.51771640036E+03  0.12500000000E+03 0.  0.
</event>
<event>
 5    0  0.5705185E-005  0.2815486E+03  0.7546771E-02  0.1094846E+00
         21   -1    0    0  502  501  0.00000000000E+00  0.00000000000E+00  0.97263712936E+02  0.97263712936E+02  0.00000000000E+00 0.  1.
         21   -1    0    0  501  502 -0.00000000000E+00 -0.00000000000E+00 -0.81499663713E+03  0.81499663713E+03  0.00000000000E+00 0.  1.
         25    1    1    2    0    0 -0.16139242263E+02  0.24480413986E+02 -0.24912293031E+03  0.28026237745E+03  0.12500000000E+03 0.  0.
         25    1    1    2    0    0  0.13767780452E+03  0.56191219058E+02 -0.36562734521E+03  0.41403017586E+03  0.12500000000E+03 0.  0.
         25    1    1    2    0    0 -0.12153856226E+03 -0.80671633044E+02 -0.10298264867E+03  0.21796779675E+03  0.12500000000E+03 0.  0.
</event>
<event>
 5    0  0.5705185E-005  0.2041357E+03  0.7546771E-02  0.1146296E+00
         21   -1    0    0  502  501  0.00000000000E+00  0.00000000000E+00  0.29002530718E+02  0.29002530718E+02  0.00000000000E+00 0. -1.
         21   -1    0    0  501  502 -0.00000000000E+00 -0.00000000000E+00 -0.14368189900E+04  0.14368189900E+04  0.00000000000E+00 0. -1.
         25    1    1    2    0    0 -0.15318287001E+02 -0.29817538885E+02 -0.28096656369E+03  0.30933953102E+03  0.12500000000E+03 0.  0.
         25    1    1    2    0    0 -0.14686359961E+02  0.15163113394E+02 -0.65838521089E+03  0.67047870593E+03  0.12500000000E+03 0.  0.
         25    1    1    2    0    0  0.30004646962E+02  0.14654425491E+02 -0.46846468471E+03  0.48600328378E+03  0.12500000000E+03 0.  0.
</event>
<event>
 5    0  0.5705185E-005  0.2713424E+03  0.7546771E-02  0.1100514E+00
         21   -1    0    0  502  501  0.00000000000E+00  0.00000000000E+00  0.95654297550E+02  0.95654297550E+02  0.00000000000E+00 0.  1.
         21   -1    0    0  501  502 -0.00000000000E+00 -0.00000000000E+00 -0.76971676966E+03  0.76971676966E+03  0.00000000000E+00 0.  1.
         25    1    1    2    0    0  0.46167930197E+02  0.96599448808E+02 -0.15666776845E+03  0.22722834542E+03  0.12500000000E+03 0.  0.
         25    1    1    2    0    0  0.65966582202E+02  0.14869114796E+02 -0.34424036575E+03  0.37242329405E+03  0.12500000000E+03 0.  0.
         25    1    1    2    0    0 -0.11213451240E+03 -0.11146856360E+03 -0.17315433791E+03  0.26571942774E+03  0.12500000000E+03 0.  0.
</event>
<event>
 5    0  0.5705185E-005  0.3710162E+03  0.7546771E-02  0.1054305E+00
         21   -1    0    0  502  501  0.00000000000E+00  0.00000000000E+00  0.66791853161E+02  0.66791853161E+02  0.00000000000E+00 0.  1.
         21   -1    0    0  501  502 -0.00000000000E+00 -0.00000000000E+00 -0.20609254756E+04  0.20609254756E+04  0.00000000000E+00 0.  1.
         25    1    1    2    0    0 -0.20417099630E+03  0.10457940834E+02 -0.48115026844E+03  0.53751813465E+03  0.12500000000E+03 0.  0.
         25    1    1    2    0    0  0.18672343589E+03 -0.16018108912E+03 -0.66663447650E+03  0.72149161331E+03  0.12500000000E+03 0.  0.
         25    1    1    2    0    0  0.17447560400E+02  0.14972314829E+03 -0.84634887754E+03  0.86870758084E+03  0.12500000000E+03 0.  0.
</event>
<event>
 5    0  0.5705185E-005  0.4623284E+03  0.7546771E-02  0.1024108E+00
         21   -1    0    0  502  501  0.00000000000E+00  0.00000000000E+00  0.22704265694E+03  0.22704265694E+03  0.00000000000E+00 0. -1.
         21   -1    0    0  501  502 -0.00000000000E+00 -0.00000000000E+00 -0.94144207790E+03  0.94144207790E+03  0.00000000000E+00 0. -1.
         25    1    1    2    0    0 -0.11280729364E+03  0.26492688440E+03 -0.17039586681E+03  0.35717151483E+03  0.12500000000E+03 0.  0.
         25    1    1    2    0    0  0.93569945142E+02 -0.20168759067E+03 -0.61035332142E+01  0.25513814294E+03  0.12500000000E+03 0.  0.
         25    1    1    2    0    0  0.19237348500E+02 -0.63239293733E+02 -0.53790002093E+03  0.55617507708E+03  0.12500000000E+03 0.  0.
</event>
<event>
 5    0  0.5705185E-005  0.3844267E+03  0.7546771E-02  0.1049310E+00
         21   -1    0    0  502  501  0.00000000000E+00  0.00000000000E+00  0.11098072556E+04  0.11098072556E+04  0.00000000000E+00 0. -1.
         21   -1    0    0  501  502 -0.00000000000E+00 -0.00000000000E+00 -0.13316176467E+03  0.13316176467E+03  0.00000000000E+00 0. -1.
         25    1    1    2    0    0  0.22731350092E+03  0.98367080126E+02  0.11809187719E+03  0.30152645259E+03  0.12500000000E+03 0.  0.
         25    1    1    2    0    0 -0.15378298359E+03  0.17122413539E+02  0.39692382668E+03  0.44397737248E+03  0.12500000000E+03 0.  0.
         25    1    1    2    0    0 -0.73530517334E+02 -0.11548949367E+03  0.46162978707E+03  0.49746519520E+03  0.12500000000E+03 0.  0.
</event>
<event>
 5    0  0.5705185E-005  0.3998002E+03  0.7546771E-02  0.1043849E+00
         21   -1    0    0  502  501  0.00000000000E+00  0.00000000000E+00  0.74944568463E+02  0.74944568463E+02  0.00000000000E+00 0.  1.
         21   -1    0    0  501  502 -0.00000000000E+00 -0.00000000000E+00 -0.21327790805E+04  0.21327790805E+04  0.00000000000E+00 0.  1.
         25    1    1    2    0    0 -0.11980074532E+03  0.10301090508E+03 -0.25753988813E+03  0.32697898880E+03  0.12500000000E+03 0.  0.
         25    1    1    2    0    0 -0.70067412995E+02 -0.11540561520E+01 -0.13485080649E+03  0.19677528864E+03  0.12500000000E+03 0.  0.
         25    1    1    2    0    0  0.18986815831E+03 -0.10185684893E+03 -0.16654438175E+04  0.16839693716E+04  0.12500000000E+03 0.  0.
</event>
<event>
 5    0  0.5705185E-005  0.3098059E+03  0.7546771E-02  0.1080439E+00
         21   -1    0    0  502  501  0.00000000000E+00  0.00000000000E+00  0.13180658911E+04  0.13180658911E+04  0.00000000000E+00 0. -1.
         21   -1    0    0  501  502 -0.00000000000E+00 -0.00000000000E+00 -0.72818575562E+02  0.72818575562E+02  0.00000000000E+00 0. -1.
         25    1    1    2    0    0 -0.13240137926E+03 -0.92723055819E+02  0.15460674390E+03  0.25623414208E+03  0.12500000000E+03 0.  0.
         25    1    1    2    0    0  0.31706717637E+02  0.88134721670E+01  0.52714975949E+03  0.54276593681E+03  0.12500000000E+03 0.  0.
         25    1    1    2    0    0  0.10069466162E+03  0.83909583652E+02  0.56349081220E+03  0.59188438781E+03  0.12500000000E+03 0.  0.
</event>
<event>
 5    0  0.5705185E-005  0.4791772E+03  0.7546771E-02  0.1019362E+00
         21   -1    0    0  502  501  0.00000000000E+00  0.00000000000E+00  0.11689389391E+04  0.11689389391E+04  0.00000000000E+00 0. -1.
         21   -1    0    0  501  502 -0.00000000000E+00 -0.00000000000E+00 -0.19642671580E+03  0.19642671580E+03  0.00000000000E+00 0. -1.
         25    1    1    2    0    0  0.10321064153E+03  0.13059206047E+02  0.24538565945E+03  0.29438427480E+03  0.12500000000E+03 0.  0.
         25    1    1    2    0    0  0.20260841665E+03 -0.19088089219E+03  0.60296029524E+03  0.67577496487E+03  0.12500000000E+03 0.  0.
         25    1    1    2    0    0 -0.30581905818E+03  0.17782168614E+03  0.12416626865E+03  0.39520641528E+03  0.12500000000E+03 0.  0.
</event>
<event>
 5    0  0.5705185E-005  0.3162388E+03  0.7546771E-02  0.1077393E+00
         21   -1    0    0  502  501  0.00000000000E+00  0.00000000000E+00  0.10046067448E+03  0.10046067448E+03  0.00000000000E+00 0. -1.
         21   -1    0    0  501  502 -0.00000000000E+00 -0.00000000000E+00 -0.99548377979E+03  0.99548377979E+03  0.00000000000E+00 0. -1.
         25    1    1    2    0    0  0.91956297309E+02  0.17255748224E+03 -0.22439989003E+03  0.32281938594E+03  0.12500000000E+03 0.  0.
         25    1    1    2    0    0 -0.83970382011E+02 -0.15904385874E+03 -0.24211941741E+03  0.32648550710E+03  0.12500000000E+03 0.  0.
         25    1    1    2    0    0 -0.79859152982E+01 -0.13513623496E+02 -0.42850379787E+03  0.44663956123E+03  0.12500000000E+03 0.  0.
</event>
<event>
 5    0  0.5705185E-005  0.3315134E+03  0.7546771E-02  0.1070469E+00
         21   -1    0    0  502  501  0.00000000000E+00  0.00000000000E+00  0.87895678593E+02  0.87895678593E+02  0.00000000000E+00 0.  1.
         21   -1    0    0  501  502 -0.00000000000E+00 -0.00000000000E+00 -0.12503590018E+04  0.12503590018E+04  0.00000000000E+00 0.  1.
         25    1    1    2    0    0 -0.57168692251E+02 -0.79368738350E+02 -0.89063392271E+02  0.18200259296E+03  0.12500000000E+03 0.  0.
         25    1    1    2    0    0  0.46672340205E+01 -0.12645676127E+03 -0.36139716844E+03  0.40279772703E+03  0.12500000000E+03 0.  0.
         25    1    1    2    0    0  0.52501458230E+02  0.20582549962E+03 -0.71200276252E+03  0.75345436043E+03  0.12500000000E+03 0.  0.
</event>
<event>
 5    0  0.5994364E-005  0.3544357E+03  0.7546771E-02  0.1060809E+00
         21   -1    0    0  502  501  0.00000000000E+00  0.00000000000E+00  0.27828496221E+03  0.27828496221E+03  0.00000000000E+00 0.  1.
         21   -1    0    0  501  502 -0.00000000000E+00 -0.00000000000E+00 -0.45142445767E+03  0.45142445767E+03  0.00000000000E+00 0.  1.
         25    1    1    2    0    0 -0.12045300572E+03  0.17334644306E+03 -0.14917927485E+03  0.28711909019E+03  0.12500000000E+03 0.  0.
         25    1    1    2    0    0 -0.50886196776E+02 -0.77536949812E+02  0.93840508384E+02  0.18174824517E+03  0.12500000000E+03 0.  0.
         25    1    1    2    0    0  0.17133920250E+03 -0.95809493244E+02 -0.11780072900E+03  0.26084208453E+03  0.12500000000E+03 0.  0.
</event>
<event>
 5    0  0.5785697E-005  0.2975050E+03  0.7546771E-02  0.1086495E+00
         21   -1    0    0  502  501  0.00000000000E+00  0.00000000000E+00  0.22818088383E+03  0.22818088383E+03  0.00000000000E+00 0. -1.
         21   -1    0    0  501  502 -0.00000000000E+00 -0.00000000000E+00 -0.38789054742E+03  0.38789054742E+03  0.00000000000E+00 0. -1.
         25    1    1    2    0    0  0.17453795100E+02  0.13642904743E+02 -0.12435649704E+03  0.17770847523E+03  0.12500000000E+03 0.  0.
         25    1    1    2    0    0 -0.47730890598E+02  0.12903694603E+03  0.92483176152E+02  0.20762203454E+03  0.12500000000E+03 0.  0.
         25    1    1    2    0    0  0.30277095499E+02 -0.14267985077E+03 -0.12783634270E+03  0.23074092147E+03  0.12500000000E+03 0.  0.
</event>
<event>
 5    0  0.5705185E-005  0.3525632E+03  0.7546771E-02  0.1061568E+00
         21   -1    0    0  502  501  0.00000000000E+00  0.00000000000E+00  0.17779191366E+03  0.17779191366E+03  0.00000000000E+00 0.  1.
         21   -1    0    0  501  502 -0.00000000000E+00 -0.00000000000E+00 -0.69913653587E+03  0.69913653587E+03  0.00000000000E+00 0.  1.
         25    1    1    2    0    0 -0.17217208742E+03  0.21630947444E+03 -0.19481602581E+03  0.36057079794E+03  0.12500000000E+03 0.  0.
         25    1    1    2    0    0  0.14911899595E+03 -0.11040316100E+03 -0.12734519250E+03  0.25742402950E+03  0.12500000000E+03 0.  0.
         25    1    1    2    0    0  0.23053091468E+02 -0.10590631344E+03 -0.19918340391E+03  0.25893362209E+03  0.12500000000E+03 0.  0.
</event>
<event>
 5    0  0.5705185E-005  0.4804586E+03  0.7546771E-02  0.1019009E+00
         21   -1    0    0  502  501  0.00000000000E+00  0.00000000000E+00  0.13647841070E+04  0.13647841070E+04  0.00000000000E+00 0.  1.
         21   -1    0    0  501  502 -0.00000000000E+00 -0.00000000000E+00 -0.16914065467E+03  0.16914065467E+03  0.00000000000E+00 0.  1.
         25    1    1    2    0    0  0.12462597451E+02  0.28519410447E+03  0.10228207373E+04  0.10692419063E+04  0.12500000000E+03 0.  0.
         25    1    1    2    0    0  0.19163040493E+02 -0.19595819101E+03  0.25878365383E+01  0.23323492800E+03  0.12500000000E+03 0.  0.
         25    1    1    2    0    0 -0.31625637944E+02 -0.89235913467E+02  0.17023487854E+03  0.23144792741E+03  0.12500000000E+03 0.  0.
</event>
<event>
 5    0  0.5705185E-005  0.2257011E+03  0.7546771E-02  0.1129703E+00
         21   -1    0    0  502  501  0.00000000000E+00  0.00000000000E+00  0.37326128771E+02  0.37326128771E+02  0.00000000000E+00 0. -1.
         21   -1    0    0  501  502 -0.00000000000E+00 -0.00000000000E+00 -0.13647535934E+04  0.13647535934E+04  0.00000000000E+00 0. -1.
         25    1    1    2    0    0  0.92244216493E+02 -0.18603585711E+02 -0.45278988665E+03  0.47906029927E+03  0.12500000000E+03 0.  0.
         25    1    1    2    0    0 -0.20902322958E+02  0.44400563383E+02 -0.27812917888E+03  0.30885135143E+03  0.12500000000E+03 0.  0.
         25    1    1    2    0    0 -0.71341893536E+02 -0.25796977673E+02 -0.59650839904E+03  0.61416807143E+03  0.12500000000E+03 0.  0.
</event>
<event>
 5    0  0.5705185E-005  0.4641814E+03  0.7546771E-02  0.1023575E+00
         21   -1    0    0  502  501  0.00000000000E+00  0.00000000000E+00  0.24620710244E+04  0.24620710244E+04  0.00000000000E+00 0.  1.
         21   -1    0    0  501  502 -0.00000000000E+00 -0.00000000000E+00 -0.87513482253E+02  0.87513482253E+02  0.00000000000E+00 0.  1.
         25    1    1    2    0    0  0.80805214065E+02 -0.12473402570E+03  0.12939805105E+03  0.23336005529E+03  0.12500000000E+03 0.  0.
         25    1    1    2    0    0 -0.71514240338E+02  0.18599183072E+03  0.38732356381E+03  0.45315757828E+03  0.12500000000E+03 0.  0.
         25    1    1    2    0    0 -0.92909737267E+01 -0.61257805020E+02  0.18578359273E+04  0.18630668731E+04  0.12500000000E+03 0.  0.
</event>
<event>
 5    0  0.5705185E-005  0.2838179E+03  0.7546771E-02  0.1093622E+00
         21   -1    0    0  502  501  0.00000000000E+00  0.00000000000E+00  0.51144220733E+02  0.51144220733E+02  0.00000000000E+00 0.  1.
         21   -1    0    0  501  502 -0.00000000000E+00 -0.00000000000E+00 -0.15750084468E+04  0.15750084468E+04  0.00000000000E+00 0.  1.
         25    1    1    2    0    0  0.20216902439E+02 -0.16327210262E+03 -0.31441322212E+03  0.37622755997E+03  0.12500000000E+03 0.  0.
         25    1    1    2    0    0  0.33928484946E+02  0.60535090724E+02 -0.48366247885E+03  0.50435110067E+03  0.12500000000E+03 0.  0.
         25    1    1    2    0    0 -0.54145387385E+02  0.10273701190E+03 -0.72578852513E+03  0.74557400692E+03  0.12500000000E+03 0.  0.
</event>
<event>
 5    0  0.5705185E-005  0.2561537E+03  0.7546771E-02  0.1109476E+00
         21   -1    0    0  502  501  0.00000000000E+00  0.00000000000E+00  0.27661769581E+03  0.27661769581E+03  0.00000000000E+00 0. -1.
         21   -1    0    0  501  502 -0.00000000000E+00 -0.00000000000E+00 -0.23720359712E+03  0.23720359712E+03  0.00000000000E+00 0. -1.
         25    1    1    2    0    0  0.10796761722E+03  0.65828258025E+02 -0.38085702437E+02  0.18184027786E+03  0.12500000000E+03 0.  0.
         25    1    1    2    0    0 -0.60219978172E+02 -0.88005892048E+02  0.10306843011E+03  0.19395768634E+03  0.12500000000E+03 0.  0.
         25    1    1    2    0    0 -0.47747639051E+02  0.22177634023E+02 -0.25568628982E+02  0.13802332873E+03  0.12500000000E+03 0.  0.
</event>
<event>
 5    0  0.5705185E-005  0.3366949E+03  0.7546771E-02  0.1068212E+00
         21   -1    0    0  502  501  0.00000000000E+00  0.00000000000E+00  0.54738384278E+03  0.54738384278E+03  0.00000000000E+00 0. -1.
         21   -1    0    0  501  502 -0.00000000000E+00 -0.00000000000E+00 -0.20710046461E+03  0.20710046461E+03  0.00000000000E+00 0. -1.
         25    1    1    2    0    0  0.12326922729E+03  0.15083382309E+02  0.94906126325E+02  0.20013741188E+03  0.12500000000E+03 0.  0.
         25    1    1    2    0    0  0.34947668740E+02  0.50811627671E+02 -0.83875036864E+02  0.16267508373E+03  0.12500000000E+03 0.  0.
         25    1    1    2    0    0 -0.15821689603E+03 -0.65895009979E+02  0.32925228871E+03  0.39167181179E+03  0.12500000000E+03 0.  0.
</event>
<event>
 5    0  0.5705185E-005  0.3255254E+03  0.7546771E-02  0.1073134E+00
         21   -1    0    0  502  501  0.00000000000E+00  0.00000000000E+00  0.85238877588E+03  0.85238877588E+03  0.00000000000E+00 0. -1.
         21   -1    0    0  501  502 -0.00000000000E+00 -0.00000000000E+00 -0.12431747009E+03  0.12431747009E+03  0.00000000000E+00 0. -1.
         25    1    1    2    0    0 -0.10564986696E+03 -0.80206029059E+02  0.70919438310E+02  0.19557471262E+03  0.12500000000E+03 0.  0.
         25    1    1    2    0    0  0.17814945794E+03  0.21264127088E+02  0.19373834317E+03  0.29214540571E+03  0.12500000000E+03 0.  0.
         25    1    1    2    0    0 -0.72499590974E+02  0.58941901972E+02  0.46341352432E+03  0.48898612763E+03  0.12500000000E+03 0.  0.
</event>
<event>
 5    0  0.5705185E-005  0.3284725E+03  0.7546771E-02  0.1071815E+00
         21   -1    0    0  502  501  0.00000000000E+00  0.00000000000E+00  0.27134029171E+02  0.27134029171E+02  0.00000000000E+00 0.  1.
         21   -1    0    0  501  502 -0.00000000000E+00 -0.00000000000E+00 -0.39763411672E+04  0.39763411672E+04  0.00000000000E+00 0.  1.
         25    1    1    2    0    0  0.34184007896E+02 -0.48798993205E+02 -0.48985763182E+03  0.50905342312E+03  0.12500000000E+03 0.  0.
         25    1    1    2    0    0 -0.52327039667E+02 -0.18422558464E+03 -0.16363599222E+04  0.16522638955E+04  0.12500000000E+03 0.  0.
         25    1    1    2    0    0  0.18143031771E+02  0.23302457784E+03 -0.18229895839E+04  0.18421578778E+04  0.12500000000E+03 0.  0.
</event>
<event>
 5    0  0.6465641E-005  0.3822084E+03  0.7546771E-02  0.1050121E+00
         21   -1    0    0  502  501  0.00000000000E+00  0.00000000000E+00  0.89777542514E+02  0.89777542514E+02  0.00000000000E+00 0. -1.
         21   -1    0    0  501  502 -0.00000000000E+00 -0.00000000000E+00 -0.16271691215E+04  0.16271691215E+04  0.00000000000E+00 0. -1.
         25    1    1    2    0    0  0.16468069733E+03  0.14639739829E+03 -0.25984639950E+03  0.36290092537E+03  0.12500000000E+03 0.  0.
         25    1    1    2    0    0 -0.92177641029E+02 -0.14869586666E+03 -0.31920170058E+03  0.38486608570E+03  0.12500000000E+03 0.  0.
         25    1    1    2    0    0 -0.72503056301E+02  0.22984683615E+01 -0.95834347891E+03  0.96917965295E+03  0.12500000000E+03 0.  0.
</event>
<event>
 5    0  0.5705185E-005  0.2533051E+03  0.7546771E-02  0.1111234E+00
         21   -1    0    0  502  501  0.00000000000E+00  0.00000000000E+00  0.59838779843E+03  0.59838779843E+03  0.00000000000E+00 0.  1.
         21   -1    0    0  501  502 -0.00000000000E+00 -0.00000000000E+00 -0.10722721749E+03  0.10722721749E+03  0.00000000000E+00 0.  1.
         25    1    1    2    0    0  0.72375648796E+02 -0.69982108581E+02  0.36153863639E+02  0.16452304372E+03  0.12500000000E+03 0.  0.
         25    1    1    2    0    0 -0.11748546943E+02  0.86768020037E+02  0.24908958192E+03  0.29212555088E+03  0.12500000000E+03 0.  0.
         25    1    1    2    0    0 -0.60627101853E+02 -0.16785911455E+02  0.20591713538E+03  0.24896642132E+03  0.12500000000E+03 0.  0.
</event>
<event>
 5    0  0.5705185E-005  0.3789410E+03  0.7546771E-02  0.1051326E+00
         21   -1    0    0  502  501  0.00000000000E+00  0.00000000000E+00  0.86120836528E+02  0.86120836528E+02  0.00000000000E+00 0. -1.
         21   -1    0    0  501  502 -0.00000000000E+00 -0.00000000000E+00 -0.16673815795E+04  0.16673815795E+04  0.00000000000E+00 0. -1.
         25    1    1    2    0    0  0.16108936393E+03  0.41215258026E+02 -0.55956851380E+03  0.59698442383E+03  0.12500000000E+03 0.  0.
         25    1    1    2    0    0  0.74595818951E+01 -0.17470167162E+02 -0.14314646775E+02  0.12724292206E+03  0.12500000000E+03 0.  0.
         25    1    1    2    0    0 -0.16854894582E+03 -0.23745090864E+02 -0.10073775824E+04  0.10292750701E+04  0.12500000000E+03 0.  0.
</event>
<event>
 5    0  0.5705185E-005  0.4261568E+03  0.7546771E-02  0.1035081E+00
         21   -1    0    0  502  501  0.00000000000E+00  0.00000000000E+00  0.18143517956E+03  0.18143517956E+03  0.00000000000E+00 0.  1.
         21   -1    0    0  501  502 -0.00000000000E+00 -0.00000000000E+00 -0.10009615615E+04  0.10009615615E+04  0.00000000000E+00 0.  1.
         25    1    1    2    0    0 -0.65586504973E+02 -0.19174682096E+02 -0.52475016298E+02  0.15181530029E+03  0.12500000000E+03 0.  0.
         25    1    1    2    0    0  0.47436129488E+02 -0.16322882426E+03 -0.78029468468E+03  0.80831839666E+03  0.12500000000E+03 0.  0.
         25    1    1    2    0    0  0.18150375486E+02  0.18240350635E+03  0.13243319073E+02  0.22226304407E+03  0.12500000000E+03 0.  0.
</event>
<event>
 5    0  0.5861867E-005  0.2517248E+03  0.7546771E-02  0.1112220E+00
         21   -1    0    0  502  501  0.00000000000E+00  0.00000000000E+00  0.32042739588E+03  0.32042739588E+03  0.00000000000E+00 0.  1.
         21   -1    0    0  501  502 -0.00000000000E+00 -0.00000000000E+00 -0.19775267802E+03  0.19775267802E+03  0.00000000000E+00 0.  1.
         25    1    1    2    0    0 -0.99688299348E+01  0.14403528430E+02  0.10792343793E+03  0.16607018895E+03  0.12500000000E+03 0.  0.
         25    1    1    2    0    0  0.33920652938E+02 -0.11367534522E+03 -0.48062959126E+02  0.17890707880E+03  0.12500000000E+03 0.  0.
         25    1    1    2    0    0 -0.23951823003E+02  0.99271816786E+02  0.62814239055E+02  0.17320280616E+03  0.12500000000E+03 0.  0.
</event>
<event>
 5    0  0.5705185E-005  0.2856854E+03  0.7546771E-02  0.1092624E+00
         21   -1    0    0  502  501  0.00000000000E+00  0.00000000000E+00  0.97061509688E+02  0.97061509688E+02  0.00000000000E+00 0.  1.
         21   -1    0    0  501  502 -0.00000000000E+00 -0.00000000000E+00 -0.84087012606E+03  0.84087012606E+03  0.00000000000E+00 0.  1.
         25    1    1    2    0    0 -0.21261925697E+02 -0.74925663236E+02 -0.31227601122E+03  0.34526400287E+03  0.12500000000E+03 0.  0.
         25    1    1    2    0    0 -0.23194165144E+02 -0.78030773983E+02 -0.33835789654E+03  0.36978079606E+03  0.12500000000E+03 0.  0.
         25    1    1    2    0    0  0.44456090841E+02  0.15295643722E+03 -0.93174708612E+02  0.22288683681E+03  0.12500000000E+03 0.  0.
</event>
<event>
 5    0  0.5705185E-005  0.2441454E+03  0.7546771E-02  0.1117062E+00
         21   -1    0    0  502  501  0.00000000000E+00  0.00000000000E+00  0.14880623629E+03  0.14880623629E+03  0.00000000000E+00 0. -1.
         21   -1    0    0  501  502 -0.00000000000E+00 -0.00000000000E+00 -0.40056775128E+03  0.40056775128E+03  0.00000000000E+00 0. -1.
         25    1    1    2    0    0  0.10540886373E+03  0.73184261973E+02 -0.10843408621E+03  0.20940371488E+03  0.12500000000E+03 0.  0.
         25    1    1    2    0    0 -0.86591536429E+02 -0.82010421403E+02 -0.12192816176E+03  0.21145987806E+03  0.12500000000E+03 0.  0.
         25    1    1    2    0    0 -0.18817327303E+02  0.88261594303E+01 -0.21399267011E+02  0.12851039462E+03  0.12500000000E+03 0.  0.
</event>
<event>
 5    0  0.5705185E-005  0.2939431E+03  0.7546771E-02  0.1088308E+00
         21   -1    0    0  502  501  0.00000000000E+00  0.00000000000E+00  0.39294034249E+03  0.39294034249E+03  0.00000000000E+00 0.  1.
         21   -1    0    0  501  502 -0.00000000000E+00 -0.00000000000E+00 -0.21988712595E+03  0.21988712595E+03  0.00000000000E+00 0.  1.
         25    1    1    2    0    0 -0.10821899552E+02 -0.81360567426E+02  0.76583919791E+02  0.16800819091E+03  0.12500000000E+03 0.  0.
         25    1    1    2    0    0 -0.21850321257E+02  0.20916810108E+03  0.13446918581E+02  0.24501949038E+03  0.12500000000E+03 0.  0.
         25    1    1    2    0    0  0.32672220809E+02 -0.12780753365E+03  0.83022378164E+02  0.19979978715E+03  0.12500000000E+03 0.  0.
</event>
<event>
 5    0  0.5705185E-005  0.3890731E+03  0.7546771E-02  0.1047630E+00
         21   -1    0    0  502  501  0.00000000000E+00  0.00000000000E+00  0.43048838244E+03  0.43048838244E+03  0.00000000000E+00 0. -1.
         21   -1    0    0  501  502 -0.00000000000E+00 -0.00000000000E+00 -0.35164216392E+03  0.35164216392E+03  0.00000000000E+00 0. -1.
         25    1    1    2    0    0 -0.51635805760E+02  0.11239420628E+03 -0.17119810894E+03  0.24542311739E+03  0.12500000000E+03 0.  0.
         25    1    1    2    0    0  0.67015493405E+02  0.97006880863E+02 -0.19444563152E+02  0.17292918298E+03  0.12500000000E+03 0.  0.
         25    1    1    2    0    0 -0.15379687645E+02 -0.20940108715E+03  0.26948889061E+03  0.36377824599E+03  0.12500000000E+03 0.  0.
</event>
<event>
 5    0  0.5705185E-005  0.3959403E+03  0.7546771E-02  0.1045195E+00
         21   -1    0    0  502  501  0.00000000000E+00  0.00000000000E+00  0.29326549076E+03  0.29326549076E+03  0.00000000000E+00 0.  1.
         21   -1    0    0  501  502 -0.00000000000E+00 -0.00000000000E+00 -0.53456242568E+03  0.53456242568E+03  0.00000000000E+00 0.  1.
         25    1    1    2    0    0  0.15757464423E+03  0.52464182731E+02 -0.69080805558E+02  0.21904204316E+03  0.12500000000E+03 0.  0.
         25    1    1    2    0    0  0.15133340247E+03 -0.12039822945E+03 -0.13433921650E+03  0.26658874216E+03  0.12500000000E+03 0.  0.
         25    1    1    2    0    0 -0.30890804670E+03  0.67934046720E+02 -0.37876912863E+02  0.34219713112E+03  0.12500000000E+03 0.  0.
</event>
<event>
 5    0  0.5705185E-005  0.2441914E+03  0.7546771E-02  0.1117032E+00
         21   -1    0    0  502  501  0.00000000000E+00  0.00000000000E+00  0.85665232736E+02  0.85665232736E+02  0.00000000000E+00 0.  1.
         21   -1    0    0  501  502 -0.00000000000E+00 -0.00000000000E+00 -0.69607517325E+03  0.69607517325E+03  0.00000000000E+00 0.  1.
         25    1    1    2    0    0  0.35589308275E+02  0.34663268831E+02 -0.43147656171E+03  0.45195703820E+03  0.12500000000E+03 0.  0.
         25    1    1    2    0    0 -0.25930546631E+02 -0.51208601845E+02 -0.42979147877E+02  0.14410732564E+03  0.12500000000E+03 0.  0.
         25    1    1    2    0    0 -0.96587616436E+01  0.16545333013E+02 -0.13595423093E+03  0.18567604215E+03  0.12500000000E+03 0.  0.
</event>
<event>
 5    0  0.5705185E-005  0.5765980E+03  0.7546771E-02  0.9955184E-01
         21   -1    0    0  502  501  0.00000000000E+00  0.00000000000E+00  0.39462648561E+03  0.39462648561E+03  0.00000000000E+00 0. -1.
         21   -1    0    0  501  502 -0.00000000000E+00 -0.00000000000E+00 -0.84248071550E+03  0.84248071550E+03  0.00000000000E+00 0. -1.
         25    1    1    2    0    0  0.15533784406E+03 -0.21345992690E+03 -0.61066612287E+03  0.67692916898E+03  0.12500000000E+03 0.  0.
         25    1    1    2    0    0 -0.28112714697E+03  0.14916894051E+03  0.14261512793E+03  0.37046986421E+03  0.12500000000E+03 0.  0.
         25    1    1    2    0    0  0.12578930291E+03  0.64290986381E+02  0.20196765046E+02  0.18970816792E+03  0.12500000000E+03 0.  0.
</event>
<event>
 5    0  0.5705185E-005  0.2539851E+03  0.7546771E-02  0.1110812E+00
         21   -1    0    0  502  501  0.00000000000E+00  0.00000000000E+00  0.24969394456E+03  0.24969394456E+03  0.00000000000E+00 0. -1.
         21   -1    0    0  501  502 -0.00000000000E+00 -0.00000000000E+00 -0.25835002430E+03  0.25835002430E+03  0.00000000000E+00 0. -1.
         25    1    1    2    0    0  0.22646591166E+02  0.73789137181E+02  0.55137115548E+02  0.15691655862E+03  0.12500000000E+03 0.  0.
         25    1    1    2    0    0 -0.11238041128E+03 -0.82568893369E+02 -0.61063896735E+02  0.19697913208E+03  0.12500000000E+03 0.  0.
         25    1    1    2    0    0  0.89733820111E+02  0.87797561882E+01 -0.27292985565E+01  0.15414827816E+03  0.12500000000E+03 0.  0.
</event>
<event>
 5    0  0.5705185E-005  0.2949413E+03  0.7546771E-02  0.1087797E+00
         21   -1    0    0  502  501  0.00000000000E+00  0.00000000000E+00  0.47841733677E+03  0.47841733677E+03  0.00000000000E+00 0.  1.
         21   -1    0    0  501  502 -0.00000000000E+00 -0.00000000000E+00 -0.18182943468E+03  0.18182943468E+03  0.00000000000E+00 0.  1.
         25    1    1    2    0    0 -0.11326436887E+03 -0.11886568353E+02  0.98876707125E+01  0.16938970983E+03  0.12500000000E+03 0.  0.
         25    1    1    2    0    0  0.68214090227E+02 -0.13541371035E+03  0.11001269235E+03  0.22520618893E+03  0.12500000000E+03 0.  0.
         25    1    1    2    0    0  0.45050278643E+02  0.14730027870E+03  0.17668753904E+03  0.26565087269E+03  0.12500000000E+03 0.  0.
</event>
<event>
 5    0  0.5705185E-005  0.2618082E+03  0.7546771E-02  0.1106062E+00
         21   -1    0    0  502  501  0.00000000000E+00  0.00000000000E+00  0.22577299626E+04  0.22577299626E+04  0.00000000000E+00 0.  1.
         21   -1    0    0  501  502 -0.00000000000E+00 -0.00000000000E+00 -0.30359482720E+02  0.30359482720E+02  0.00000000000E+00 0.  1.
         25    1    1    2    0    0  0.25670437631E+02 -0.25431280803E+02  0.79340542224E+03  0.80400428199E+03  0.12500000000E+03 0.  0.
         25    1    1    2    0    0  0.10952775993E+03  0.83184874930E+02  0.60214136591E+03  0.63017083252E+03  0.12500000000E+03 0.  0.
         25    1    1    2    0    0 -0.13519819756E+03 -0.57753594126E+02  0.83182369176E+03  0.85391433085E+03  0.12500000000E+03 0.  0.
</event>
<event>
 5    0  0.5705185E-005  0.4255608E+03  0.7546771E-02  0.1035272E+00
         21   -1    0    0  502  501  0.00000000000E+00  0.00000000000E+00  0.31220299942E+03  0.31220299942E+03  0.00000000000E+00 0. -1.
         21   -1    0    0  501  502 -0.00000000000E+00 -0.00000000000E+00 -0.58007776857E+03  0.58007776857E+03  0.00000000000E+00 0. -1.
         25    1    1    2    0    0 -0.10480514036E+03  0.65966951910E+01 -0.22970608169E+03  0.28181113853E+03  0.12500000000E+03 0.  0.
         25    1    1    2    0    0  0.48721953938E+02 -0.23298527201E+03 -0.16664865650E+03  0.31631114505E+03  0.12500000000E+03 0.  0.
         25    1    1    2    0    0  0.56083186418E+02  0.22638857682E+03  0.12847996904E+03  0.29415848442E+03  0.12500000000E+03 0.  0.
</event>
<event>
 5    0  0.5705185E-005  0.2951487E+03  0.7546771E-02  0.1087691E+00
         21   -1    0    0  502  501  0.00000000000E+00  0.00000000000E+00  0.15918453868E+04  0.15918453868E+04  0.00000000000E+00 0. -1.
         21   -1    0    0  501  502 -0.00000000000E+00 -0.00000000000E+00 -0.54724366744E+02  0.54724366744E+02  0.00000000000E+00 0. -1.
         25    1    1    2    0    0 -0.15532511299E+03 -0.28905780586E+02  0.42132837636E+03  0.46701609780E+03  0.12500000000E+03 0.  0.
         25    1    1    2    0    0  0.62498256282E+02  0.12728201804E+03  0.69445952372E+03  0.71972618004E+03  0.12500000000E+03 0.  0.
         25    1    1    2    0    0  0.92826856711E+02 -0.98376237457E+02  0.42133312001E+03  0.45982747574E+03  0.12500000000E+03 0.  0.
</event>
<event>
 5    0  0.5705185E-005  0.5335299E+03  0.7546771E-02  0.1005380E+00
         21   -1    0    0  502  501  0.00000000000E+00  0.00000000000E+00  0.39220311058E+03  0.39220311058E+03  0.00000000000E+00 0.  1.
         21   -1    0    0  501  502 -0.00000000000E+00 -0.00000000000E+00 -0.72578257589E+03  0.72578257589E+03  0.00000000000E+00 0.  1.
         25    1    1    2    0    0  0.34028658469E+02 -0.76902422446E+02 -0.18012593396E+02  0.15172799905E+03  0.12500000000E+03 0.  0.
         25    1    1    2    0    0  0.16180801399E+03 -0.32748321791E+03  0.27865195869E+02  0.38707694396E+03  0.12500000000E+03 0.  0.
         25    1    1    2    0    0 -0.19583667246E+03  0.40438564036E+03 -0.34343206778E+03  0.57918074345E+03  0.12500000000E+03 0.  0.
</event>
<event>
 5    0  0.5705185E-005  0.3511781E+03  0.7546771E-02  0.1062133E+00
         21   -1    0    0  502  501  0.00000000000E+00  0.00000000000E+00  0.14500733468E+04  0.14500733468E+04  0.00000000000E+00 0.  1.
         21   -1    0    0  501  502 -0.00000000000E+00 -0.00000000000E+00 -0.85048131063E+02  0.85048131063E+02  0.00000000000E+00 0.  1.
         25    1    1    2    0    0  0.20307848974E+03 -0.73744265062E+02  0.31888994485E+03  0.40496282119E+03  0.12500000000E+03 0.  0.
         25    1    1    2    0    0 -0.16530999624E+03  0.16773440598E+03  0.66472368116E+03  0.71620164626E+03  0.12500000000E+03 0.  0.
         25    1    1    2    0    0 -0.37768493503E+02 -0.93990140918E+02  0.38141158977E+03  0.41395701046E+03  0.12500000000E+03 0.  0.
</event>
<event>
 5    0  0.5779689E-005  0.3061922E+03  0.7546771E-02  0.1082186E+00
         21   -1    0    0  502  501  0.00000000000E+00  0.00000000000E+00  0.39157642666E+03  0.39157642666E+03  0.00000000000E+00 0. -1.
         21   -1    0    0  501  502 -0.00000000000E+00 -0.00000000000E+00 -0.23942627084E+03  0.23942627084E+03  0.00000000000E+00 0. -1.
         25    1    1    2    0    0  0.10699241270E+03 -0.19038284062E+03  0.13344316422E+03  0.28482464861E+03  0.12500000000E+03 0.  0.
         25    1    1    2    0    0 -0.55147351205E+02  0.47132796484E+02 -0.18272022569E+02  0.14567634557E+03  0.12500000000E+03 0.  0.
         25    1    1    2    0    0 -0.51845061497E+02  0.14325004413E+03  0.36979014175E+02  0.20050170332E+03  0.12500000000E+03 0.  0.
</event>
<event>
 5    0  0.5705185E-005  0.2643101E+03  0.7546771E-02  0.1104581E+00
         21   -1    0    0  502  501  0.00000000000E+00  0.00000000000E+00  0.14949987374E+03  0.14949987374E+03  0.00000000000E+00 0. -1.
         21   -1    0    0  501  502 -0.00000000000E+00 -0.00000000000E+00 -0.46729026616E+03  0.46729026616E+03  0.00000000000E+00 0.  1.
         25    1    1    2    0    0  0.56393039814E+02 -0.16654341824E+03 -0.10628172610E+03  0.24049467853E+03  0.12500000000E+03 0.  0.
         25    1    1    2    0    0 -0.40511403253E+02  0.80795219719E+02 -0.13845954434E+03  0.20728021310E+03  0.12500000000E+03 0.  0.
         25    1    1    2    0    0 -0.15881636561E+02  0.85748198517E+02 -0.73049121974E+02  0.16901524828E+03  0.12500000000E+03 0.  0.
</event>
<event>
 5    0  0.5705185E-005  0.3299318E+03  0.7546771E-02  0.1071167E+00
         21   -1    0    0  502  501  0.00000000000E+00  0.00000000000E+00  0.52473334074E+03  0.52473334074E+03  0.00000000000E+00 0. -1.
         21   -1    0    0  501  502 -0.00000000000E+00 -0.00000000000E+00 -0.20744816812E+03  0.20744816812E+03  0.00000000000E+00 0. -1.
         25    1    1    2    0    0 -0.87604633408E+02 -0.14980798124E+03 -0.68009415885E+02  0.22442656636E+03  0.12500000000E+03 0.  0.
         25    1    1    2    0    0  0.65010938923E+01  0.11369455285E+03  0.14520233307E+03  0.22288434916E+03  0.12500000000E+03 0.  0.
         25    1    1    2    0    0  0.81103539516E+02  0.36113428391E+02  0.24009225543E+03  0.28487059334E+03  0.12500000000E+03 0.  0.
</event>
<event>
 5    0  0.5705185E-005  0.3549978E+03  0.7546771E-02  0.1060582E+00
         21   -1    0    0  502  501  0.00000000000E+00  0.00000000000E+00  0.63984427299E+03  0.63984427299E+03  0.00000000000E+00 0.  1.
         21   -1    0    0  501  502 -0.00000000000E+00 -0.00000000000E+00 -0.19695952517E+03  0.19695952517E+03  0.00000000000E+00 0.  1.
         25    1    1    2    0    0  0.66273544797E+02 -0.30635630629E+02  0.42675610554E+03  0.45064009833E+03  0.12500000000E+03 0.  0.
         25    1    1    2    0    0 -0.48872630558E+02 -0.10695652314E+03  0.79306515755E+02  0.18905754495E+03  0.12500000000E+03 0.  0.
         25    1    1    2    0    0 -0.17400914239E+02  0.13759215377E+03 -0.63177873480E+02  0.19710615489E+03  0.12500000000E+03 0.  0.
</event>
<event>
 5    0  0.5705185E-005  0.2868176E+03  0.7546771E-02  0.1092022E+00
         21   -1    0    0  502  501  0.00000000000E+00  0.00000000000E+00  0.87126503504E+03  0.87126503504E+03  0.00000000000E+00 0.  1.
         21   -1    0    0  501  502 -0.00000000000E+00 -0.00000000000E+00 -0.94419422788E+02  0.94419422788E+02  0.00000000000E+00 0.  1.
         25    1    1    2    0    0 -0.91533300283E+02  0.34952638802E+02  0.43400098822E+03  0.46214920729E+03  0.12500000000E+03 0.  0.
         25    1    1    2    0    0 -0.65639300113E+02 -0.33148163749E+02  0.23349524591E+03  0.27486787433E+03  0.12500000000E+03 0.  0.
         25    1    1    2    0    0  0.15717260040E+03 -0.18044750530E+01  0.10934937812E+03  0.22866737621E+03  0.12500000000E+03 0.  0.
</event>
<event>
 5    0  0.6155541E-005  0.4131932E+03  0.7546771E-02  0.1039305E+00
         21   -1    0    0  502  501  0.00000000000E+00  0.00000000000E+00  0.26039149350E+03  0.26039149350E+03  0.00000000000E+00 0. -1.
         21   -1    0    0  501  502 -0.00000000000E+00 -0.00000000000E+00 -0.65566131428E+03  0.65566131428E+03  0.00000000000E+00 0. -1.
         25    1    1    2    0    0  0.51346446212E+02  0.21474434260E+02 -0.25697138490E+03  0.29113038578E+03  0.12500000000E+03 0.  0.
         25    1    1    2    0    0  0.17611420118E+03 -0.17073571571E+03  0.37308913542E+02  0.27781981841E+03  0.12500000000E+03 0.  0.
         25    1    1    2    0    0 -0.22746064739E+03  0.14926128145E+03 -0.17560734941E+03  0.34710260359E+03  0.12500000000E+03 0.  0.
</event>
<event>
 5    0  0.5705185E-005  0.3050018E+03  0.7546771E-02  0.1082767E+00
         21   -1    0    0  502  501  0.00000000000E+00  0.00000000000E+00  0.86631600258E+03  0.86631600258E+03  0.00000000000E+00 0. -1.
         21   -1    0    0  501  502 -0.00000000000E+00 -0.00000000000E+00 -0.10738121865E+03  0.10738121865E+03  0.00000000000E+00 0. -1.
         25    1    1    2    0    0 -0.25104019439E+02 -0.17950136131E+02  0.18235238728E+03  0.22322592216E+03  0.12500000000E+03 0.  0.
         25    1    1    2    0    0 -0.12220373710E+03 -0.13606876401E+03  0.19088264314E+03  0.29242032308E+03  0.12500000000E+03 0.  0.
         25    1    1    2    0    0  0.14730775654E+03  0.15401890014E+03  0.38569975352E+03  0.45805097599E+03  0.12500000000E+03 0.  0.
</event>
<event>
 5    0  0.5705185E-005  0.3057391E+03  0.7546771E-02  0.1082406E+00
         21   -1    0    0  502  501  0.00000000000E+00  0.00000000000E+00  0.21375078599E+04  0.21375078599E+04  0.00000000000E+00 0.  1.
         21   -1    0    0  501  502 -0.00000000000E+00 -0.00000000000E+00 -0.43731478226E+02  0.43731478226E+02  0.00000000000E+00 0.  1.
         25    1    1    2    0    0 -0.47536402842E+02 -0.10695527596E+03  0.30863476855E+03  0.35295829925E+03  0.12500000000E+03 0.  0.
         25    1    1    2    0    0 -0.21565245410E+02  0.37495456612E+02  0.23214272273E+03  0.26718198441E+03  0.12500000000E+03 0.  0.
         25    1    1    2    0    0  0.69101648252E+02  0.69459819347E+02  0.15529988904E+04  0.15610990545E+04  0.12500000000E+03 0.  0.
</event>
<event>
 5    0  0.5705185E-005  0.3561750E+03  0.7546771E-02  0.1060109E+00
         21   -1    0    0  502  501  0.00000000000E+00  0.00000000000E+00  0.43464118055E+03  0.43464118055E+03  0.00000000000E+00 0. -1.
         21   -1    0    0  501  502 -0.00000000000E+00 -0.00000000000E+00 -0.29187446449E+03  0.29187446449E+03  0.00000000000E+00 0. -1.
         25    1    1    2    0    0  0.71626344923E+02 -0.14742383872E+03  0.17658105975E+03  0.27142216595E+03  0.12500000000E+03 0.  0.
         25    1    1    2    0    0  0.10202829809E+03  0.12222376776E+03  0.72288694789E+02  0.21493970878E+03  0.12500000000E+03 0.  0.
         25    1    1    2    0    0 -0.17365464302E+03  0.25200070958E+02 -0.10610303848E+03  0.24015377031E+03  0.12500000000E+03 0.  0.
</event>
<event>
 5    0  0.5705185E-005  0.4570950E+03  0.7546771E-02  0.1025627E+00
         21   -1    0    0  502  501  0.00000000000E+00  0.00000000000E+00  0.14456890744E+03  0.14456890744E+03  0.00000000000E+00 0. -1.
         21   -1    0    0  501  502 -0.00000000000E+00 -0.00000000000E+00 -0.14452333059E+04  0.14452333059E+04  0.00000000000E+00 0. -1.
         25    1    1    2    0    0  0.25305193535E+03 -0.19626643369E+03 -0.79877020941E+03  0.86960602713E+03  0.12500000000E+03 0.  0.
         25    1    1    2    0    0 -0.23272549345E+03  0.15598601540E+03 -0.14492991456E+03  0.33929702686E+03  0.12500000000E+03 0.  0.
         25    1    1    2    0    0 -0.20326441895E+02  0.40280418290E+02 -0.35696427444E+03  0.38089915931E+03  0.12500000000E+03 0.  0.
</event>
<event>
 5    0  0.5705185E-005  0.3196037E+03  0.7546771E-02  0.1075832E+00
         21   -1    0    0  502  501  0.00000000000E+00  0.00000000000E+00  0.33111657672E+03  0.33111657672E+03  0.00000000000E+00 0. -1.
         21   -1    0    0  501  502 -0.00000000000E+00 -0.00000000000E+00 -0.30849103324E+03  0.30849103324E+03  0.00000000000E+00 0. -1.
         25    1    1    2    0    0 -0.10539385372E+03  0.18804894564E+03  0.26957250232E+02  0.25064310024E+03  0.12500000000E+03 0.  0.
         25    1    1    2    0    0  0.19559792299E+02 -0.76781181018E+02 -0.99347124184E+02  0.17824922529E+03  0.12500000000E+03 0.  0.
         25    1    1    2    0    0  0.85834061422E+02 -0.11126776462E+03  0.95015417434E+02  0.21071528443E+03  0.12500000000E+03 0.  0.
</event>
<event>
 5    0  0.7476662E-005  0.6182711E+03  0.7546771E-02  0.9868208E-01
         21   -1    0    0  502  501  0.00000000000E+00  0.00000000000E+00  0.43574342171E+03  0.43574342171E+03  0.00000000000E+00 0. -1.
         21   -1    0    0  501  502 -0.00000000000E+00 -0.00000000000E+00 -0.87725744962E+03  0.87725744962E+03  0.00000000000E+00 0. -1.
         25    1    1    2    0    0  0.38489509713E+03  0.13531078851E+03 -0.21118017669E+03  0.47610430822E+03  0.12500000000E+03 0.  0.
         25    1    1    2    0    0 -0.50331290482E+02  0.24479036417E+03 -0.11824871928E+03  0.30341938106E+03  0.12500000000E+03 0.  0.
         25    1    1    2    0    0 -0.33456380665E+03 -0.38010115267E+03 -0.11208513194E+03  0.53347718206E+03  0.12500000000E+03 0.  0.
</event>
<event>
 5    0  0.5705185E-005  0.2964716E+03  0.7546771E-02  0.1087018E+00
         21   -1    0    0  502  501  0.00000000000E+00  0.00000000000E+00  0.62551773884E+03  0.62551773884E+03  0.00000000000E+00 0.  1.
         21   -1    0    0  501  502 -0.00000000000E+00 -0.00000000000E+00 -0.14051628036E+03  0.14051628036E+03  0.00000000000E+00 0.  1.
         25    1    1    2    0    0 -0.64354396952E+02  0.90262021526E+02  0.19340195139E+03  0.25557393399E+03  0.12500000000E+03 0.  0.
         25    1    1    2    0    0 -0.81038322114E+02  0.94468663030E+01  0.24880672851E+03  0.29014865343E+03  0.12500000000E+03 0.  0.
         25    1    1    2    0    0  0.14539271907E+03 -0.99708887829E+02  0.42792778582E+02  0.22031143177E+03  0.12500000000E+03 0.  0.
</event>
<event>
 5    0  0.5705185E-005  0.3142287E+03  0.7546771E-02  0.1078337E+00
         21   -1    0    0  502  501  0.00000000000E+00  0.00000000000E+00  0.23334361582E+03  0.23334361582E+03  0.00000000000E+00 0. -1.
         21   -1    0    0  501  502 -0.00000000000E+00 -0.00000000000E+00 -0.42315130357E+03  0.42315130357E+03  0.00000000000E+00 0. -1.
         25    1    1    2    0    0  0.18458437741E+03  0.67747858175E+02 -0.10744990841E+03  0.25657678673E+03  0.12500000000E+03 0.  0.
         25    1    1    2    0    0 -0.42121269494E+02 -0.67600633199E+02 -0.13786973833E+03  0.20242804079E+03  0.12500000000E+03 0.  0.
         25    1    1    2    0    0 -0.14246310792E+03 -0.14722497590E+00  0.55511958988E+02  0.19749009186E+03  0.12500000000E+03 0.  0.
</event>
<event>
 5    0  0.5705185E-005  0.3015617E+03  0.7546771E-02  0.1084463E+00
         21   -1    0    0  502  501  0.00000000000E+00  0.00000000000E+00  0.23349696132E+04  0.23349696132E+04  0.00000000000E+00 0.  1.
         21   -1    0    0  501  502 -0.00000000000E+00 -0.00000000000E+00 -0.38946733435E+02  0.38946733435E+02  0.00000000000E+00 0.  1.
         25    1    1    2    0    0  0.83176579760E+02  0.11114840272E+03  0.75145803000E+03  0.77432969832E+03  0.12500000000E+03 0.  0.
         25    1    1    2    0    0 -0.10527312953E+02 -0.89259193927E+02  0.13361535832E+04  0.13449942104E+04  0.12500000000E+03 0.  0.
         25    1    1    2    0    0 -0.72649266807E+02 -0.21889208797E+02  0.20841126656E+03  0.25459243794E+03  0.12500000000E+03 0.  0.
</event>
<event>
 5    0  0.5705185E-005  0.2436758E+03  0.7546771E-02  0.1117368E+00
         21   -1    0    0  502  501  0.00000000000E+00  0.00000000000E+00  0.13725771207E+03  0.13725771207E+03  0.00000000000E+00 0. -1.
         21   -1    0    0  501  502 -0.00000000000E+00 -0.00000000000E+00 -0.43260168516E+03  0.43260168516E+03  0.00000000000E+00 0. -1.
         25    1    1    2    0    0 -0.12499059183E+02 -0.59336123192E+01 -0.72732043274E+02  0.14528036466E+03  0.12500000000E+03 0.  0.
         25    1    1    2    0    0  0.70554362823E+02 -0.15782291281E+02 -0.24389845946E+03  0.28344039472E+03  0.12500000000E+03 0.  0.
         25    1    1    2    0    0 -0.58055303640E+02  0.21715903600E+02  0.21286529644E+02  0.14113863785E+03  0.12500000000E+03 0.  0.
</event>
<event>
 5    0  0.5705185E-005  0.3454150E+03  0.7546771E-02  0.1064513E+00
         21   -1    0    0  502  501  0.00000000000E+00  0.00000000000E+00  0.10477630084E+03  0.10477630084E+03  0.00000000000E+00 0.  1.
         21   -1    0    0  501  502 -0.00000000000E+00 -0.00000000000E+00 -0.11387259484E+04  0.11387259484E+04  0.00000000000E+00 0.  1.
         25    1    1    2    0    0  0.18030921386E+02  0.12441492512E+03 -0.33317119838E+03  0.37740195435E+03  0.12500000000E+03 0.  0.
         25    1    1    2    0    0 -0.37725996545E+02  0.15470541261E+03 -0.28492412003E+03  0.34951934093E+03  0.12500000000E+03 0.  0.
         25    1    1    2    0    0  0.19695075159E+02 -0.27912033773E+03 -0.41585432916E+03  0.51658095396E+03  0.12500000000E+03 0.  0.
</event>
<event>
 5    0  0.5705185E-005  0.3034201E+03  0.7546771E-02  0.1083543E+00
         21   -1    0    0  502  501  0.00000000000E+00  0.00000000000E+00  0.47515323860E+02  0.47515323860E+02  0.00000000000E+00 0.  1.
         21   -1    0    0  501  502 -0.00000000000E+00 -0.00000000000E+00 -0.19375587841E+04  0.19375587841E+04  0.00000000000E+00 0.  1.
         25    1    1    2    0    0 -0.48903310468E+01  0.75070287319E+02 -0.64569528230E+03  0.66197194878E+03  0.12500000000E+03 0.  0.
         25    1    1    2    0    0 -0.15081441676E+03  0.38717688410E+02 -0.38685215946E+03  0.43534313016E+03  0.12500000000E+03 0.  0.
         25    1    1    2    0    0  0.15570474781E+03 -0.11378797573E+03 -0.85749601845E+03  0.88775902899E+03  0.12500000000E+03 0.  0.
</event>
<event>
 5    0  0.5705185E-005  0.3871419E+03  0.7546771E-02  0.1048325E+00
         21   -1    0    0  502  501  0.00000000000E+00  0.00000000000E+00  0.15038333375E+03  0.15038333375E+03  0.00000000000E+00 0.  1.
         21   -1    0    0  501  502 -0.00000000000E+00 -0.00000000000E+00 -0.99664515368E+03  0.99664515368E+03  0.00000000000E+00 0.  1.
         25    1    1    2    0    0  0.13767802846E+03 -0.48075625435E+02  0.31035307854E+02  0.19456283205E+03  0.12500000000E+03 0.  0.
         25    1    1    2    0    0 -0.80236468640E+01  0.11047220979E+03 -0.53765402299E+03  0.56299674643E+03  0.12500000000E+03 0.  0.
         25    1    1    2    0    0 -0.12965438160E+03 -0.62396584359E+02 -0.33964310479E+03  0.38946890895E+03  0.12500000000E+03 0.  0.
</event>
<event>
 5    0  0.5705185E-005  0.4477457E+03  0.7546771E-02  0.1028396E+00
         21   -1    0    0  502  501  0.00000000000E+00  0.00000000000E+00  0.63320183427E+03  0.63320183427E+03  0.00000000000E+00 0. -1.
         21   -1    0    0  501  502 -0.00000000000E+00 -0.00000000000E+00 -0.31660708218E+03  0.31660708218E+03  0.00000000000E+00 0. -1.
         25    1    1    2    0    0  0.33347947143E+03 -0.17193870354E+03  0.19143264039E+03  0.43936651152E+03  0.12500000000E+03 0.  0.
         25    1    1    2    0    0 -0.10814522196E+03  0.92580850984E+02 -0.40852401735E+02  0.19380537075E+03  0.12500000000E+03 0.  0.
         25    1    1    2    0    0 -0.22533424947E+03  0.79357852553E+02  0.16601451344E+03  0.31663703418E+03  0.12500000000E+03 0.  0.
</event>
<event>
 5    0  0.7169940E-005  0.3630247E+03  0.7546771E-02  0.1057393E+00
         21   -1    0    0  502  501  0.00000000000E+00  0.00000000000E+00  0.17060456322E+03  0.17060456322E+03  0.00000000000E+00 0.  1.
         21   -1    0    0  501  502 -0.00000000000E+00 -0.00000000000E+00 -0.77247010292E+03  0.77247010292E+03  0.00000000000E+00 0.  1.
         25    1    1    2    0    0  0.48680215263E+02 -0.12144092944E+03  0.41925986499E+02  0.18574297038E+03  0.12500000000E+03 0.  0.
         25    1    1    2    0    0 -0.67602924571E+02 -0.41683950557E+02 -0.45181202957E+03  0.47546484329E+03  0.12500000000E+03 0.  0.
         25    1    1    2    0    0  0.18922709307E+02  0.16312487999E+03 -0.19197949663E+03  0.28186685248E+03  0.12500000000E+03 0.  0.
</event>
<event>
 5    0  0.5705185E-005  0.2908429E+03  0.7546771E-02  0.1089910E+00
         21   -1    0    0  502  501  0.00000000000E+00  0.00000000000E+00  0.38656848628E+03  0.38656848628E+03  0.00000000000E+00 0.  1.
         21   -1    0    0  501  502 -0.00000000000E+00 -0.00000000000E+00 -0.21882181826E+03  0.21882181826E+03  0.00000000000E+00 0.  1.
         25    1    1    2    0    0 -0.20574321418E+03  0.67885254751E+02  0.79989961687E+02  0.26260630603E+03  0.12500000000E+03 0.  0.
         25    1    1    2    0    0  0.11484453382E+03 -0.34167731836E+02  0.47587069671E+02  0.17957235324E+03  0.12500000000E+03 0.  0.
         25    1    1    2    0    0  0.90898680366E+02 -0.33717522915E+02  0.40169636660E+02  0.16321164527E+03  0.12500000000E+03 0.  0.
</event>
<event>
 5    0  0.5705185E-005  0.4100914E+03  0.7546771E-02  0.1040340E+00
         21   -1    0    0  502  501  0.00000000000E+00  0.00000000000E+00  0.10775300669E+04  0.10775300669E+04  0.00000000000E+00 0.  1.
         21   -1    0    0  501  502 -0.00000000000E+00 -0.00000000000E+00 -0.15607448395E+03  0.15607448395E+03  0.00000000000E+00 0.  1.
         25    1    1    2    0    0 -0.46802972708E+02 -0.13443498043E+03  0.17028293231E+03  0.25472447714E+03  0.12500000000E+03 0.  0.
         25    1    1    2    0    0  0.17180592940E+03  0.58010804095E+02  0.75477778781E+03  0.78625507295E+03  0.12500000000E+03 0.  0.
         25    1    1    2    0    0 -0.12500295669E+03  0.76424176335E+02 -0.36051371471E+01  0.19262500078E+03  0.12500000000E+03 0.  0.
</event>
<event>
 5    0  0.5705185E-005  0.5153633E+03  0.7546771E-02  0.1009845E+00
         21   -1    0    0  502  501  0.00000000000E+00  0.00000000000E+00  0.29800303944E+03  0.29800303944E+03  0.00000000000E+00 0. -1.
         21   -1    0    0  501  502 -0.00000000000E+00 -0.00000000000E+00 -0.89126393918E+03  0.89126393918E+03  0.00000000000E+00 0.  1.
         25    1    1    2    0    0  0.25279659586E+03  0.24445930355E+03 -0.14888677671E+03  0.40181929054E+03  0.12500000000E+03 0.  0.
         25    1    1    2    0    0 -0.87373116444E+02 -0.28848452528E+03 -0.37230434390E+02  0.32843338449E+03  0.12500000000E+03 0.  0.
         25    1    1    2    0    0 -0.16542347942E+03  0.44025221729E+02 -0.40714368864E+03  0.45901430358E+03  0.12500000000E+03 0.  0.
</event>
<event>
 5    0  0.5705185E-005  0.3852596E+03  0.7546771E-02  0.1049007E+00
         21   -1    0    0  502  501  0.00000000000E+00  0.00000000000E+00  0.80116573074E+03  0.80116573074E+03  0.00000000000E+00 0. -1.
         21   -1    0    0  501  502 -0.00000000000E+00 -0.00000000000E+00 -0.18526121546E+03  0.18526121546E+03  0.00000000000E+00 0.  1.
         25    1    1    2    0    0  0.22374499287E+03  0.17165465961E+03  0.26509231943E+03  0.40672605255E+03  0.12500000000E+03 0.  0.
         25    1    1    2    0    0 -0.50084181512E+02 -0.52952517624E+02  0.29522180990E+03  0.32877547263E+03  0.12500000000E+03 0.  0.
         25    1    1    2    0    0 -0.17366081135E+03 -0.11870214198E+03  0.55590385945E+02  0.25092542103E+03  0.12500000000E+03 0.  0.
</event>
<event>
 5    0  0.5705185E-005  0.3393328E+03  0.7546771E-02  0.1067080E+00
         21   -1    0    0  502  501  0.00000000000E+00  0.00000000000E+00  0.56260077771E+03  0.56260077771E+03  0.00000000000E+00 0.  1.
         21   -1    0    0  501  502 -0.00000000000E+00 -0.00000000000E+00 -0.20466866003E+03  0.20466866003E+03  0.00000000000E+00 0.  1.
         25    1    1    2    0    0 -0.12118849002E+03  0.10541353606E+02  0.10667928835E+03  0.20445840851E+03  0.12500000000E+03 0.  0.
         25    1    1    2    0    0 -0.64723082174E+02  0.10663969086E+03  0.25473816869E+03  0.30996392632E+03  0.12500000000E+03 0.  0.
         25    1    1    2    0    0  0.18591157219E+03 -0.11718104446E+03 -0.34853393558E+01  0.25284710290E+03  0.12500000000E+03 0.  0.
</event>
<event>
 5    0  0.5705185E-005  0.2841353E+03  0.7546771E-02  0.1093452E+00
         21   -1    0    0  502  501  0.00000000000E+00  0.00000000000E+00  0.54098647267E+03  0.54098647267E+03  0.00000000000E+00 0. -1.
         21   -1    0    0  501  502 -0.00000000000E+00 -0.00000000000E+00 -0.14923266348E+03  0.14923266348E+03  0.00000000000E+00 0. -1.
         25    1    1    2    0    0  0.75385375679E+02  0.11812531246E+03  0.13302062003E+03  0.23012177138E+03  0.12500000000E+03 0.  0.
         25    1    1    2    0    0  0.40851491210E+02  0.44270317180E+01  0.64127172566E+01  0.13173672945E+03  0.12500000000E+03 0.  0.
         25    1    1    2    0    0 -0.11623686689E+03 -0.12255234418E+03  0.25232047190E+03  0.32836063532E+03  0.12500000000E+03 0.  0.
</event>
<event>
 5    0  0.5705185E-005  0.3545025E+03  0.7546771E-02  0.1060782E+00
         21   -1    0    0  502  501  0.00000000000E+00  0.00000000000E+00  0.80496014331E+03  0.80496014331E+03  0.00000000000E+00 0. -1.
         21   -1    0    0  501  502 -0.00000000000E+00 -0.00000000000E+00 -0.15612204067E+03  0.15612204067E+03  0.00000000000E+00 0. -1.
         25    1    1    2    0    0 -0.55959448158E+02 -0.82374387882E+02  0.19057429734E+03  0.24871783697E+03  0.12500000000E+03 0.  0.
         25    1    1    2    0    0 -0.78063197606E+02 -0.86407809192E+02 -0.21085178526E+02  0.17213296333E+03  0.12500000000E+03 0.  0.
         25    1    1    2    0    0  0.13402264576E+03  0.16878219707E+03  0.47934898383E+03  0.54023138369E+03  0.12500000000E+03 0.  0.
</event>
<event>
 5    0  0.5705185E-005  0.4962791E+03  0.7546771E-02  0.1014755E+00
         21   -1    0    0  502  501  0.00000000000E+00  0.00000000000E+00  0.44232698535E+03  0.44232698535E+03  0.00000000000E+00 0.  1.
         21   -1    0    0  501  502 -0.00000000000E+00 -0.00000000000E+00 -0.55681192448E+03  0.55681192448E+03  0.00000000000E+00 0.  1.
         25    1    1    2    0    0 -0.27307104717E+03  0.10863939974E+03 -0.34053509866E+03  0.46686129567E+03  0.12500000000E+03 0.  0.
         25    1    1    2    0    0  0.77310367267E+01 -0.69510276246E+02  0.18433577138E+03  0.23344404906E+03  0.12500000000E+03 0.  0.
         25    1    1    2    0    0  0.26534001044E+03 -0.39129123494E+02  0.41714388153E+02  0.29883356509E+03  0.12500000000E+03 0.  0.
</event>
<event>
 5    0  0.5705185E-005  0.4347302E+03  0.7546771E-02  0.1032376E+00
         21   -1    0    0  502  501  0.00000000000E+00  0.00000000000E+00  0.69296227133E+02  0.69296227133E+02  0.00000000000E+00 0.  1.
         21   -1    0    0  501  502 -0.00000000000E+00 -0.00000000000E+00 -0.27272824772E+04  0.27272824772E+04  0.00000000000E+00 0.  1.
         25    1    1    2    0    0  0.23700408648E+03  0.88798455642E+02 -0.20374604363E+04  0.20569215182E+04  0.12500000000E+03 0.  0.
         25    1    1    2    0    0 -0.18142321134E+03 -0.35069410796E+02 -0.50710802203E+03  0.55401064177E+03  0.12500000000E+03 0.  0.
         25    1    1    2    0    0 -0.55580875138E+02 -0.53729044846E+02 -0.11341779179E+03  0.18564654437E+03  0.12500000000E+03 0.  0.
</event>
<event>
 5    0  0.5705185E-005  0.2155089E+03  0.7546771E-02  0.1137276E+00
         21   -1    0    0  502  501  0.00000000000E+00  0.00000000000E+00  0.11370808996E+04  0.11370808996E+04  0.00000000000E+00 0. -1.
         21   -1    0    0  501  502 -0.00000000000E+00 -0.00000000000E+00 -0.40844996756E+02  0.40844996756E+02  0.00000000000E+00 0. -1.
         25    1    1    2    0    0 -0.18317168911E+02  0.15028487326E+02  0.29442260216E+03  0.32073515987E+03  0.12500000000E+03 0.  0.
         25    1    1    2    0    0 -0.23441538333E+02  0.55123575130E+02  0.25357167929E+03  0.28898392826E+03  0.12500000000E+03 0.  0.
         25    1    1    2    0    0  0.41758707245E+02 -0.70152062455E+02  0.54824162141E+03  0.56820680825E+03  0.12500000000E+03 0.  0.
</event>
<event>
 5    0  0.5705185E-005  0.2579491E+03  0.7546771E-02  0.1108382E+00
         21   -1    0    0  502  501  0.00000000000E+00  0.00000000000E+00  0.19042200091E+03  0.19042200091E+03  0.00000000000E+00 0.  1.
         21   -1    0    0  501  502 -0.00000000000E+00 -0.00000000000E+00 -0.34942265394E+03  0.34942265394E+03  0.00000000000E+00 0.  1.
         25    1    1    2    0    0  0.10105554767E+03  0.95033422692E+02 -0.16265853372E+02  0.18743839823E+03  0.12500000000E+03 0.  0.
         25    1    1    2    0    0 -0.43334254418E+02  0.23753579731E+01 -0.12634890446E+03  0.18295503707E+03  0.12500000000E+03 0.  0.
         25    1    1    2    0    0 -0.57721293256E+02 -0.97408780665E+02 -0.16385895202E+02  0.16945121955E+03  0.12500000000E+03 0.  0.
</event>
<event>
 5    0  0.5705185E-005  0.4279032E+03  0.7546771E-02  0.1034524E+00
         21   -1    0    0  502  501  0.00000000000E+00  0.00000000000E+00  0.87758301302E+02  0.87758301302E+02  0.00000000000E+00 0. -1.
         21   -1    0    0  501  502 -0.00000000000E+00 -0.00000000000E+00 -0.20864253363E+04  0.20864253363E+04  0.00000000000E+00 0. -1.
         25    1    1    2    0    0  0.28828113461E+00  0.28106920230E+01 -0.12796647419E+04  0.12857584667E+04  0.12500000000E+03 0.  0.
         25    1    1    2    0    0  0.17022995189E+03  0.16539468234E+02 -0.10044976819E+03  0.23445030701E+03  0.12500000000E+03 0.  0.
         25    1    1    2    0    0 -0.17051823302E+03 -0.19350160257E+02 -0.61855252488E+03  0.65397486384E+03  0.12500000000E+03 0.  0.
</event>
<event>
 5    0  0.6836318E-005  0.3353900E+03  0.7546771E-02  0.1068777E+00
         21   -1    0    0  502  501  0.00000000000E+00  0.00000000000E+00  0.49491251822E+03  0.49491251822E+03  0.00000000000E+00 0.  1.
         21   -1    0    0  501  502 -0.00000000000E+00 -0.00000000000E+00 -0.22728547760E+03  0.22728547760E+03  0.00000000000E+00 0.  1.
         25    1    1    2    0    0 -0.11254688229E+03  0.12836863642E+03  0.36356709336E+02  0.21469074932E+03  0.12500000000E+03 0.  0.
         25    1    1    2    0    0  0.83576002099E+02 -0.59989678325E+02 -0.67373244893E+02  0.17535068794E+03  0.12500000000E+03 0.  0.
         25    1    1    2    0    0  0.28970880191E+02 -0.68378958098E+02  0.29864357617E+03  0.33215655856E+03  0.12500000000E+03 0.  0.
</event>
<event>
 5    0  0.5705185E-005  0.3976435E+03  0.7546771E-02  0.1044599E+00
         21   -1    0    0  502  501  0.00000000000E+00  0.00000000000E+00  0.22092479077E+03  0.22092479077E+03  0.00000000000E+00 0. -1.
         21   -1    0    0  501  502 -0.00000000000E+00 -0.00000000000E+00 -0.71572033811E+03  0.71572033811E+03  0.00000000000E+00 0. -1.
         25    1    1    2    0    0 -0.17087634526E+03 -0.27622824401E+01  0.63373370354E+02  0.22101479508E+03  0.12500000000E+03 0.  0.
         25    1    1    2    0    0  0.62154908180E+02  0.61979883576E+02 -0.51120809339E+03  0.53353861466E+03  0.12500000000E+03 0.  0.
         25    1    1    2    0    0  0.10872143708E+03 -0.59217601135E+02 -0.46960824295E+02  0.18209171915E+03  0.12500000000E+03 0.  0.
</event>
<event>
 5    0  0.5705185E-005  0.4460412E+03  0.7546771E-02  0.1028909E+00
         21   -1    0    0  502  501  0.00000000000E+00  0.00000000000E+00  0.39808487947E+03  0.39808487947E+03  0.00000000000E+00 0. -1.
         21   -1    0    0  501  502 -0.00000000000E+00 -0.00000000000E+00 -0.49977470707E+03  0.49977470707E+03  0.00000000000E+00 0. -1.
         25    1    1    2    0    0  0.99433450588E+02  0.20300532319E+03 -0.28378475848E+03  0.38374074775E+03  0.12500000000E+03 0.  0.
         25    1    1    2    0    0  0.69322785156E+01 -0.26150444672E+03  0.17723284069E+03  0.33980746307E+03  0.12500000000E+03 0.  0.
         25    1    1    2    0    0 -0.10636572910E+03  0.58499123534E+02  0.48620901907E+01  0.17431137571E+03  0.12500000000E+03 0.  0.
</event>
<event>
 5    0  0.5705185E-005  0.2450995E+03  0.7546771E-02  0.1116442E+00
         21   -1    0    0  502  501  0.00000000000E+00  0.00000000000E+00  0.32150112898E+03  0.32150112898E+03  0.00000000000E+00 0. -1.
         21   -1    0    0  501  502 -0.00000000000E+00 -0.00000000000E+00 -0.18685404472E+03  0.18685404472E+03  0.00000000000E+00 0. -1.
         25    1    1    2    0    0 -0.62553149368E+02  0.63302205380E+02  0.35006714980E+02  0.15738658074E+03  0.12500000000E+03 0.  0.
         25    1    1    2    0    0 -0.54474073211E+02 -0.69477056809E+02  0.54895161517E+00  0.15303524896E+03  0.12500000000E+03 0.  0.
         25    1    1    2    0    0  0.11702722258E+03  0.61748514291E+01  0.99091417668E+02  0.19793334401E+03  0.12500000000E+03 0.  0.
</event>
<event>
 5    0  0.5705185E-005  0.3159708E+03  0.7546771E-02  0.1077519E+00
         21   -1    0    0  502  501  0.00000000000E+00  0.00000000000E+00  0.12425931497E+04  0.12425931497E+04  0.00000000000E+00 0.  1.
         21   -1    0    0  501  502 -0.00000000000E+00 -0.00000000000E+00 -0.80346127155E+02  0.80346127155E+02  0.00000000000E+00 0.  1.
         25    1    1    2    0    0 -0.57481842736E+02 -0.17328240108E+03  0.61227952109E+03  0.65103161575E+03  0.12500000000E+03 0.  0.
         25    1    1    2    0    0  0.37880831367E+02  0.66980693756E+02  0.46187521343E+03  0.48463912709E+03  0.12500000000E+03 0.  0.
         25    1    1    2    0    0  0.19601011369E+02  0.10630170732E+03  0.88092288043E+02  0.18726853403E+03  0.12500000000E+03 0.  0.
</event>
<event>
 5    0  0.5705185E-005  0.2505525E+03  0.7546771E-02  0.1112956E+00
         21   -1    0    0  502  501  0.00000000000E+00  0.00000000000E+00  0.46234243342E+03  0.46234243342E+03  0.00000000000E+00 0. -1.
         21   -1    0    0  501  502 -0.00000000000E+00 -0.00000000000E+00 -0.13577931870E+03  0.13577931870E+03  0.00000000000E+00 0. -1.
         25    1    1    2    0    0  0.70710007589E+02  0.83306648797E+02  0.50569659608E+02  0.17355746420E+03  0.12500000000E+03 0.  0.
         25    1    1    2    0    0 -0.30912367495E+02 -0.94445322926E+02  0.23965927602E+03  0.28798795473E+03  0.12500000000E+03 0.  0.
         25    1    1    2    0    0 -0.39797640094E+02  0.11138674129E+02  0.36334179086E+02  0.13657633319E+03  0.12500000000E+03 0.  0.
</event>
<event>
 5    0  0.5705185E-005  0.5421246E+03  0.7546771E-02  0.1003333E+00
         21   -1    0    0  502  501  0.00000000000E+00  0.00000000000E+00  0.17201456446E+04  0.17201456446E+04  0.00000000000E+00 0.  1.
         21   -1    0    0  501  502 -0.00000000000E+00 -0.00000000000E+00 -0.17085706261E+03  0.17085706261E+03  0.00000000000E+00 0.  1.
         25    1    1    2    0    0 -0.17599832003E+02  0.49912332839E+03  0.66561247430E+03  0.84148607651E+03  0.12500000000E+03 0.  0.
         25    1    1    2    0    0  0.38060139247E+02 -0.28064529917E+03  0.54876978204E+03  0.63006637097E+03  0.12500000000E+03 0.  0.
         25    1    1    2    0    0 -0.20460307245E+02 -0.21847802921E+03  0.33490632564E+03  0.41945025971E+03  0.12500000000E+03 0.  0.
</event>
<event>
 5    0  0.6588251E-005  0.4398303E+03  0.7546771E-02  0.1030799E+00
         21   -1    0    0  502  501  0.00000000000E+00  0.00000000000E+00  0.47837186614E+03  0.47837186614E+03  0.00000000000E+00 0.  1.
         21   -1    0    0  501  502 -0.00000000000E+00 -0.00000000000E+00 -0.40439395732E+03  0.40439395732E+03  0.00000000000E+00 0.  1.
         25    1    1    2    0    0 -0.18221014245E+03 -0.24912343904E+03 -0.26290700746E+02  0.33403476591E+03  0.12500000000E+03 0.  0.
         25    1    1    2    0    0  0.16858722581E+03  0.11162856548E+03  0.22274120173E+03  0.32576253972E+03  0.12500000000E+03 0.  0.
         25    1    1    2    0    0  0.13622916640E+02  0.13749487356E+03 -0.12247259216E+03  0.22296851783E+03  0.12500000000E+03 0.  0.
</event>
<event>
 5    0  0.5742566E-005  0.3200328E+03  0.7546771E-02  0.1075634E+00
         21   -1    0    0  502  501  0.00000000000E+00  0.00000000000E+00  0.24616498808E+03  0.24616498808E+03  0.00000000000E+00 0.  1.
         21   -1    0    0  501  502 -0.00000000000E+00 -0.00000000000E+00 -0.41606643647E+03  0.41606643647E+03  0.00000000000E+00 0.  1.
         25    1    1    2    0    0  0.18871614355E+03  0.12127316978E+03 -0.17901053726E+03  0.31303472171E+03  0.12500000000E+03 0.  0.
         25    1    1    2    0    0 -0.12107335364E+03 -0.82180620108E+02  0.44656658456E+02  0.19756423873E+03  0.12500000000E+03 0.  0.
         25    1    1    2    0    0 -0.67642789915E+02 -0.39092549673E+02 -0.35547569591E+02  0.15163246411E+03  0.12500000000E+03 0.  0.
</event>
<event>
 5    0  0.5705185E-005  0.3908214E+03  0.7546771E-02  0.1047005E+00
         21   -1    0    0  502  501  0.00000000000E+00  0.00000000000E+00  0.41976961515E+03  0.41976961515E+03  0.00000000000E+00 0.  1.
         21   -1    0    0  501  502 -0.00000000000E+00 -0.00000000000E+00 -0.36386951543E+03  0.36386951543E+03  0.00000000000E+00 0.  1.
         25    1    1    2    0    0 -0.57001615650E+02  0.13317313343E+03  0.88164339342E+02  0.21067087693E+03  0.12500000000E+03 0.  0.
         25    1    1    2    0    0  0.71167364199E+02  0.33424188373E+02  0.20773893345E+03  0.25487729316E+03  0.12500000000E+03 0.  0.
         25    1    1    2    0    0 -0.14165748549E+02 -0.16659732181E+03 -0.24000317306E+03  0.31809096049E+03  0.12500000000E+03 0.  0.
</event>
<event>
 5    0  0.5705185E-005  0.4374913E+03  0.7546771E-02  0.1031519E+00
         21   -1    0    0  502  501  0.00000000000E+00  0.00000000000E+00  0.46532843031E+03  0.46532843031E+03  0.00000000000E+00 0. -1.
         21   -1    0    0  501  502 -0.00000000000E+00 -0.00000000000E+00 -0.41131942154E+03  0.41131942154E+03  0.00000000000E+00 0. -1.
         25    1    1    2    0    0 -0.27207945215E+03  0.12180654418E+03 -0.14845740446E+03  0.35570867775E+03  0.12500000000E+03 0.  0.
         25    1    1    2    0    0  0.21681351974E+03 -0.19772460751E+03  0.10100447068E+03  0.33455945040E+03  0.12500000000E+03 0.  0.
         25    1    1    2    0    0  0.55265932411E+02  0.75918063323E+02  0.10146194255E+03  0.18637972371E+03  0.12500000000E+03 0.  0.
</event>
<event>
 5    0  0.5705185E-005  0.3912271E+03  0.7546771E-02  0.1046860E+00
         21   -1    0    0  502  501  0.00000000000E+00  0.00000000000E+00  0.10690746283E+04  0.10690746283E+04  0.00000000000E+00 0.  1.
         21   -1    0    0  501  502 -0.00000000000E+00 -0.00000000000E+00 -0.14316930142E+03  0.14316930142E+03  0.00000000000E+00 0.  1.
         25    1    1    2    0    0 -0.71773288878E+02  0.24847011105E+03  0.31372571920E+03  0.42536763860E+03  0.12500000000E+03 0.  0.
         25    1    1    2    0    0 -0.99235800421E+02 -0.23239683361E+03  0.35285194441E+03  0.45164756950E+03  0.12500000000E+03 0.  0.
         25    1    1    2    0    0  0.17100908930E+03 -0.16073277439E+02  0.25932766325E+03  0.33522872162E+03  0.12500000000E+03 0.  0.
</event>
<event>
 5    0  0.5705185E-005  0.5067193E+03  0.7546771E-02  0.1012040E+00
         21   -1    0    0  502  501  0.00000000000E+00  0.00000000000E+00  0.24006184095E+03  0.24006184095E+03  0.00000000000E+00 0. -1.
         21   -1    0    0  501  502 -0.00000000000E+00 -0.00000000000E+00 -0.10695760765E+04  0.10695760765E+04  0.00000000000E+00 0. -1.
         25    1    1    2    0    0  0.68635424261E+02 -0.16647602067E+03 -0.23073368579E+03  0.31825794677E+03  0.12500000000E+03 0.  0.
         25    1    1    2    0    0 -0.21010470185E+03 -0.85797337953E+02 -0.62363297205E+03  0.67531344779E+03  0.12500000000E+03 0.  0.
         25    1    1    2    0    0  0.14146927758E+03  0.25227335862E+03  0.24852422332E+02  0.31606652285E+03  0.12500000000E+03 0.  0.
</event>
<event>
 5    0  0.6012455E-005  0.2991995E+03  0.7546771E-02  0.1085641E+00
         21   -1    0    0  502  501  0.00000000000E+00  0.00000000000E+00  0.11172487641E+04  0.11172487641E+04  0.00000000000E+00 0.  1.
         21   -1    0    0  501  502 -0.00000000000E+00 -0.00000000000E+00 -0.80125726714E+02  0.80125726714E+02  0.00000000000E+00 0.  1.
         25    1    1    2    0    0  0.92049104630E+02 -0.90737056403E+02  0.21756789622E+03  0.28225350402E+03  0.12500000000E+03 0.  0.
         25    1    1    2    0    0 -0.59261491254E+02 -0.10055888431E+03  0.27770938097E+03  0.32614646071E+03  0.12500000000E+03 0.  0.
         25    1    1    2    0    0 -0.32787613376E+02  0.19129594071E+03  0.54184576019E+03  0.58897452607E+03  0.12500000000E+03 0.  0.
</event>
<event>
 5    0  0.6387936E-005  0.7459937E+03  0.7546771E-02  0.9641657E-01
         21   -1    0    0  502  501  0.00000000000E+00  0.00000000000E+00  0.57553419853E+03  0.57553419853E+03  0.00000000000E+00 0. -1.
         21   -1    0    0  501  502 -0.00000000000E+00 -0.00000000000E+00 -0.96693931916E+03  0.96693931916E+03  0.00000000000E+00 0. -1.
         25    1    1    2    0    0  0.37005457248E+03  0.40053274982E+03 -0.22504445398E+03  0.60302311445E+03  0.12500000000E+03 0.  0.
         25    1    1    2    0    0  0.70267650080E+02 -0.28116170445E+02  0.19788954116E+03  0.24599457756E+03  0.12500000000E+03 0.  0.
         25    1    1    2    0    0 -0.44032222256E+03 -0.37241657937E+03 -0.36425020781E+03  0.69345582568E+03  0.12500000000E+03 0.  0.
</event>
<event>
 5    0  0.5705185E-005  0.3267816E+03  0.7546771E-02  0.1072570E+00
         21   -1    0    0  502  501  0.00000000000E+00  0.00000000000E+00  0.95806340477E+02  0.95806340477E+02  0.00000000000E+00 0.  1.
         21   -1    0    0  501  502 -0.00000000000E+00 -0.00000000000E+00 -0.11146051982E+04  0.11146051982E+04  0.00000000000E+00 0.  1.
         25    1    1    2    0    0  0.73174379566E+02  0.22878231164E+03 -0.30984393088E+03  0.41149009398E+03  0.12500000000E+03 0.  0.
         25    1    1    2    0    0 -0.96425113644E+02 -0.14195428308E+03 -0.36876921345E+03  0.42551680791E+03  0.12500000000E+03 0.  0.
         25    1    1    2    0    0  0.23250734078E+02 -0.86828028559E+02 -0.34018571342E+03  0.37340463682E+03  0.12500000000E+03 0.  0.
</event>
<event>
 5    0  0.5705185E-005  0.2626542E+03  0.7546771E-02  0.1105559E+00
         21   -1    0    0  502  501  0.00000000000E+00  0.00000000000E+00  0.44915813853E+03  0.44915813853E+03  0.00000000000E+00 0.  1.
         21   -1    0    0  501  502 -0.00000000000E+00 -0.00000000000E+00 -0.15359229093E+03  0.15359229093E+03  0.00000000000E+00 0.  1.
         25    1    1    2    0    0 -0.51886805194E+02  0.15171180021E+03  0.50161698229E+02  0.20940369349E+03  0.12500000000E+03 0.  0.
         25    1    1    2    0    0  0.21890923439E+01 -0.75262041985E+02  0.78274626045E+02  0.16559312839E+03  0.12500000000E+03 0.  0.
         25    1    1    2    0    0  0.49697712850E+02 -0.76449758230E+02  0.16712952333E+03  0.22775360758E+03  0.12500000000E+03 0.  0.
</event>
<event>
 5    0  0.5705185E-005  0.2274752E+03  0.7546771E-02  0.1128430E+00
         21   -1    0    0  502  501  0.00000000000E+00  0.00000000000E+00  0.11167771492E+03  0.11167771492E+03  0.00000000000E+00 0. -1.
         21   -1    0    0  501  502 -0.00000000000E+00 -0.00000000000E+00 -0.46334195669E+03  0.46334195669E+03  0.00000000000E+00 0. -1.
         25    1    1    2    0    0 -0.40637954879E+02  0.69412235455E+02 -0.69215326059E+02  0.16396726249E+03  0.12500000000E+03 0.  0.
         25    1    1    2    0    0 -0.12379224363E+02 -0.98629338961E+02 -0.15478038693E+03  0.22240269755E+03  0.12500000000E+03 0.  0.
         25    1    1    2    0    0  0.53017179242E+02  0.29217103506E+02 -0.12766852878E+03  0.18864971156E+03  0.12500000000E+03 0.  0.
</event>
<event>
 5    0  0.5705185E-005  0.4260129E+03  0.7546771E-02  0.1035127E+00
         21   -1    0    0  502  501  0.00000000000E+00  0.00000000000E+00  0.56603779157E+03  0.56603779157E+03  0.00000000000E+00 0.  1.
         21   -1    0    0  501  502 -0.00000000000E+00 -0.00000000000E+00 -0.32062692257E+03  0.32062692257E+03  0.00000000000E+00 0.  1.
         25    1    1    2    0    0  0.11896659937E+02 -0.22788204076E+03  0.28069314655E+03  0.38273410815E+03  0.12500000000E+03 0.  0.
         25    1    1    2    0    0 -0.15172510824E+03  0.21881619306E+03  0.48829486872E+02  0.29817839224E+03  0.12500000000E+03 0.  0.
         25    1    1    2    0    0  0.13982844830E+03  0.90658477016E+01 -0.84111764422E+02  0.20575221375E+03  0.12500000000E+03 0.  0.
</event>
<event>
 5    0  0.5705185E-005  0.2353774E+03  0.7546771E-02  0.1122911E+00
         21   -1    0    0  502  501  0.00000000000E+00  0.00000000000E+00  0.24071275382E+03  0.24071275382E+03  0.00000000000E+00 0. -1.
         21   -1    0    0  501  502 -0.00000000000E+00 -0.00000000000E+00 -0.23016024894E+03  0.23016024894E+03  0.00000000000E+00 0. -1.
         25    1    1    2    0    0  0.26441258737E+02  0.82174025380E+02  0.55417080944E+02  0.16170270088E+03  0.12500000000E+03 0.  0.
         25    1    1    2    0    0 -0.83248809933E+02 -0.53578550309E+02 -0.54700149349E+02  0.16857678294E+03  0.12500000000E+03 0.  0.
         25    1    1    2    0    0  0.56807551196E+02 -0.28595475071E+02  0.98355732832E+01  0.14059351894E+03  0.12500000000E+03 0.  0.
</event>
<event>
 5    0  0.5705185E-005  0.2853382E+03  0.7546771E-02  0.1092809E+00
         21   -1    0    0  502  501  0.00000000000E+00  0.00000000000E+00  0.71197787005E+02  0.71197787005E+02  0.00000000000E+00 0.  1.
         21   -1    0    0  501  502 -0.00000000000E+00 -0.00000000000E+00 -0.11435455788E+04  0.11435455788E+04  0.00000000000E+00 0.  1.
         25    1    1    2    0    0 -0.45882375449E+01  0.87204100509E+01 -0.30180103871E+03  0.32681181809E+03  0.12500000000E+03 0.  0.
         25    1    1    2    0    0 -0.12292479446E+03 -0.11796893710E+03 -0.25290297721E+03  0.32956348569E+03  0.12500000000E+03 0.  0.
         25    1    1    2    0    0  0.12751303201E+03  0.10924852705E+03 -0.51764377584E+03  0.55836806200E+03  0.12500000000E+03 0.  0.
</event>
<event>
 5    0  0.5705185E-005  0.2849444E+03  0.7546771E-02  0.1093019E+00
         21   -1    0    0  502  501  0.00000000000E+00  0.00000000000E+00  0.17228281972E+03  0.17228281972E+03  0.00000000000E+00 0. -1.
         21   -1    0    0  501  502 -0.00000000000E+00 -0.00000000000E+00 -0.47127934909E+03  0.47127934909E+03  0.00000000000E+00 0. -1.
         25    1    1    2    0    0  0.11321213351E+03  0.13680158992E+03 -0.78826719456E+02  0.23102015903E+03  0.12500000000E+03 0.  0.
         25    1    1    2    0    0 -0.13392804842E+03 -0.53945687286E+02 -0.82932911872E+02  0.20820597302E+03  0.12500000000E+03 0.  0.
         25    1    1    2    0    0  0.20715914907E+02 -0.82855902633E+02 -0.13723689805E+03  0.20433603676E+03  0.12500000000E+03 0.  0.
</event>
<event>
 5    0  0.5705185E-005  0.2807607E+03  0.7546771E-02  0.1095274E+00
         21   -1    0    0  502  501  0.00000000000E+00  0.00000000000E+00  0.14737693018E+03  0.14737693018E+03  0.00000000000E+00 0.  1.
         21   -1    0    0  501  502 -0.00000000000E+00 -0.00000000000E+00 -0.53486357105E+03  0.53486357105E+03  0.00000000000E+00 0.  1.
         25    1    1    2    0    0 -0.29117864916E+02  0.13775932384E+03 -0.13083896574E+03  0.22927999546E+03  0.12500000000E+03 0.  0.
         25    1    1    2    0    0  0.12594027715E+02 -0.83009993211E+02  0.12134078523E+02  0.15106788000E+03  0.12500000000E+03 0.  0.
         25    1    1    2    0    0  0.16523837201E+02 -0.54749330627E+02 -0.26878175365E+03  0.30189262577E+03  0.12500000000E+03 0.  0.
</event>
<event>
 5    0  0.5705185E-005  0.4355733E+03  0.7546771E-02  0.1032114E+00
         21   -1    0    0  502  501  0.00000000000E+00  0.00000000000E+00  0.31457343590E+03  0.31457343590E+03  0.00000000000E+00 0. -1.
         21   -1    0    0  501  502 -0.00000000000E+00 -0.00000000000E+00 -0.60311549825E+03  0.60311549825E+03  0.00000000000E+00 0. -1.
         25    1    1    2    0    0  0.12736086988E+03  0.12792805860E+03 -0.82012617956E+01  0.21972400881E+03  0.12500000000E+03 0.  0.
         25    1    1    2    0    0  0.67515640815E+02  0.66472801218E+02  0.11915395585E+03  0.19697629362E+03  0.12500000000E+03 0.  0.
         25    1    1    2    0    0 -0.19487651069E+03 -0.19440085982E+03 -0.39949475640E+03  0.50098863171E+03  0.12500000000E+03 0.  0.
</event>
<event>
 5    0  0.5705185E-005  0.2274852E+03  0.7546771E-02  0.1128422E+00
         21   -1    0    0  502  501  0.00000000000E+00  0.00000000000E+00  0.13391008311E+03  0.13391008311E+03  0.00000000000E+00 0. -1.
         21   -1    0    0  501  502 -0.00000000000E+00 -0.00000000000E+00 -0.38644964214E+03  0.38644964214E+03  0.00000000000E+00 0. -1.
         25    1    1    2    0    0 -0.17819847163E+02  0.25521279976E+02 -0.19019557749E+03  0.22971338747E+03  0.12500000000E+03 0.  0.
         25    1    1    2    0    0 -0.29673928698E+02 -0.50988433925E+02 -0.68745191356E+02  0.15437377942E+03  0.12500000000E+03 0.  0.
         25    1    1    2    0    0  0.47493775861E+02  0.25467153949E+02  0.64012098156E+01  0.13627255836E+03  0.12500000000E+03 0.  0.
</event>
<event>
 5    0  0.5705185E-005  0.3048267E+03  0.7546771E-02  0.1082852E+00
         21   -1    0    0  502  501  0.00000000000E+00  0.00000000000E+00  0.97213882974E+02  0.97213882974E+02  0.00000000000E+00 0. -1.
         21   -1    0    0  501  502 -0.00000000000E+00 -0.00000000000E+00 -0.95582327973E+03  0.95582327973E+03  0.00000000000E+00 0. -1.
         25    1    1    2    0    0 -0.11966742479E+03  0.12396966309E+02 -0.92851284817E+02  0.19677484195E+03  0.12500000000E+03 0.  0.
         25    1    1    2    0    0  0.19714880997E+03  0.99652822092E+01 -0.44163318107E+03  0.49963169109E+03  0.12500000000E+03 0.  0.
         25    1    1    2    0    0 -0.77481385172E+02 -0.22362248518E+02 -0.32412493087E+03  0.35663062967E+03  0.12500000000E+03 0.  0.
</event>
<event>
 5    0  0.5705185E-005  0.3163648E+03  0.7546771E-02  0.1077335E+00
         21   -1    0    0  502  501  0.00000000000E+00  0.00000000000E+00  0.57067829584E+03  0.57067829584E+03  0.00000000000E+00 0. -1.
         21   -1    0    0  501  502 -0.00000000000E+00 -0.00000000000E+00 -0.17538202662E+03  0.17538202662E+03  0.00000000000E+00 0. -1.
         25    1    1    2    0    0 -0.99905691594E+02  0.16690022861E+01  0.11847068122E+03  0.19910860124E+03  0.12500000000E+03 0.  0.
         25    1    1    2    0    0  0.18719359615E+03 -0.11977193624E+03  0.70526660989E+02  0.26454823579E+03  0.12500000000E+03 0.  0.
         25    1    1    2    0    0 -0.87287904556E+02  0.11810293395E+03  0.20629892701E+03  0.28240348542E+03  0.12500000000E+03 0.  0.
</event>
<event>
 5    0  0.5705185E-005  0.4809473E+03  0.7546771E-02  0.1018875E+00
         21   -1    0    0  502  501  0.00000000000E+00  0.00000000000E+00  0.34191221229E+03  0.34191221229E+03  0.00000000000E+00 0. -1.
         21   -1    0    0  501  502 -0.00000000000E+00 -0.00000000000E+00 -0.67651946756E+03  0.67651946756E+03  0.00000000000E+00 0. -1.
         25    1    1    2    0    0  0.37706539126E+02  0.14567563542E+02 -0.25052708228E+03  0.28288304290E+03  0.12500000000E+03 0.  0.
         25    1    1    2    0    0  0.60334279144E+02 -0.12309073390E+03  0.27292287551E+03  0.33000522721E+03  0.12500000000E+03 0.  0.
         25    1    1    2    0    0 -0.98040818270E+02  0.10852317036E+03 -0.35700304850E+03  0.40554340975E+03  0.12500000000E+03 0.  0.
</event>
<event>
 5    0  0.5705185E-005  0.5124798E+03  0.7546771E-02  0.1010572E+00
         21   -1    0    0  502  501  0.00000000000E+00  0.00000000000E+00  0.78051012953E+03  0.78051012953E+03  0.00000000000E+00 0. -1.
         21   -1    0    0  501  502 -0.00000000000E+00 -0.00000000000E+00 -0.33649218299E+03  0.33649218299E+03  0.00000000000E+00 0. -1.
         25    1    1    2    0    0 -0.81229749958E+02 -0.22417156654E+03 -0.28772173109E+02  0.27074711719E+03  0.12500000000E+03 0.  0.
         25    1    1    2    0    0  0.24255744578E+03  0.33275257638E+03  0.16400514029E+03  0.46052261359E+03  0.12500000000E+03 0.  0.
         25    1    1    2    0    0 -0.16132769582E+03 -0.10858100984E+03  0.30878497937E+03  0.38573258174E+03  0.12500000000E+03 0.  0.
</event>
<event>
 5    0  0.5705185E-005  0.3003459E+03  0.7546771E-02  0.1085068E+00
         21   -1    0    0  502  501  0.00000000000E+00  0.00000000000E+00  0.91022387427E+03  0.91022387427E+03  0.00000000000E+00 0. -1.
         21   -1    0    0  501  502 -0.00000000000E+00 -0.00000000000E+00 -0.99104930764E+02  0.99104930764E+02  0.00000000000E+00 0. -1.
         25    1    1    2    0    0  0.41545149481E+02  0.60069134265E+02  0.17127173081E+03  0.22426169113E+03  0.12500000000E+03 0.  0.
         25    1    1    2    0    0 -0.16795825569E+03  0.84471792950E+02  0.31864053369E+03  0.39051536355E+03  0.12500000000E+03 0.  0.
         25    1    1    2    0    0  0.12641310621E+03 -0.14454092722E+03  0.32120667901E+03  0.39455175035E+03  0.12500000000E+03 0.  0.
</event>
<event>
 5    0  0.5705185E-005  0.3385479E+03  0.7546771E-02  0.1067416E+00
         21   -1    0    0  502  501  0.00000000000E+00  0.00000000000E+00  0.23397715157E+04  0.23397715157E+04  0.00000000000E+00 0. -1.
         21   -1    0    0  501  502 -0.00000000000E+00 -0.00000000000E+00 -0.48985408001E+02  0.48985408001E+02  0.00000000000E+00 0. -1.
         25    1    1    2    0    0 -0.16680953272E+03  0.13324686200E+02  0.56606162737E+03  0.60336865468E+03  0.12500000000E+03 0.  0.
         25    1    1    2    0    0  0.23911357116E+02  0.88227690503E+02  0.13001584452E+04  0.13093482581E+04  0.12500000000E+03 0.  0.
         25    1    1    2    0    0  0.14289817561E+03 -0.10155237670E+03  0.42456603509E+03  0.47604001088E+03  0.12500000000E+03 0.  0.
</event>
<event>
 5    0  0.5705185E-005  0.2281616E+03  0.7546771E-02  0.1127940E+00
         21   -1    0    0  502  501  0.00000000000E+00  0.00000000000E+00  0.85488866950E+03  0.85488866950E+03  0.00000000000E+00 0.  1.
         21   -1    0    0  501  502 -0.00000000000E+00 -0.00000000000E+00 -0.60894129523E+02  0.60894129523E+02  0.00000000000E+00 0.  1.
         25    1    1    2    0    0 -0.57055366623E+00 -0.45995507814E+02  0.43119562111E+03  0.45129876572E+03  0.12500000000E+03 0.  0.
         25    1    1    2    0    0 -0.26991535699E+02 -0.42041631048E+02  0.16337679796E+03  0.21169085916E+03  0.12500000000E+03 0.  0.
         25    1    1    2    0    0  0.27562089365E+02  0.88037138862E+02  0.19942212090E+03  0.25279317415E+03  0.12500000000E+03 0.  0.
</event>
<event>
 5    0  0.6637612E-005  0.3437348E+03  0.7546771E-02  0.1065216E+00
         21   -1    0    0  502  501  0.00000000000E+00  0.00000000000E+00  0.29454144216E+03  0.29454144216E+03  0.00000000000E+00 0.  1.
         21   -1    0    0  501  502 -0.00000000000E+00 -0.00000000000E+00 -0.40114420613E+03  0.40114420613E+03  0.00000000000E+00 0.  1.
         25    1    1    2    0    0 -0.68661385057E+02 -0.17210773138E+03 -0.18569363175E+03  0.29059005811E+03  0.12500000000E+03 0.  0.
         25    1    1    2    0    0 -0.86052549032E+02  0.11479284307E+03  0.40082710479E+02  0.19445838037E+03  0.12500000000E+03 0.  0.
         25    1    1    2    0    0  0.15471393409E+03  0.57314888308E+02  0.39008157302E+02  0.21063720982E+03  0.12500000000E+03 0.  0.
</event>
<event>
 5    0  0.6418630E-005  0.3464417E+03  0.7546771E-02  0.1064085E+00
         21   -1    0    0  502  501  0.00000000000E+00  0.00000000000E+00  0.29460866219E+03  0.29460866219E+03  0.00000000000E+00 0.  1.
         21   -1    0    0  501  502 -0.00000000000E+00 -0.00000000000E+00 -0.40739412097E+03  0.40739412097E+03  0.00000000000E+00 0.  1.
         25    1    1    2    0    0 -0.24046179807E+02 -0.76740751505E+02 -0.17963686043E+03  0.23315609220E+03  0.12500000000E+03 0.  0.
         25    1    1    2    0    0  0.36145470966E+02 -0.10626181302E+03 -0.96064131101E+02  0.19352360389E+03  0.12500000000E+03 0.  0.
         25    1    1    2    0    0 -0.12099291160E+02  0.18300256452E+03  0.16291553274E+03  0.27532308708E+03  0.12500000000E+03 0.  0.
</event>
<event>
 5    0  0.5705185E-005  0.2687151E+03  0.7546771E-02  0.1102017E+00
         21   -1    0    0  502  501  0.00000000000E+00  0.00000000000E+00  0.33543321916E+03  0.33543321916E+03  0.00000000000E+00 0.  1.
         21   -1    0    0  501  502 -0.00000000000E+00 -0.00000000000E+00 -0.21526727171E+03  0.21526727171E+03  0.00000000000E+00 0.  1.
         25    1    1    2    0    0  0.78741828546E+02 -0.83092461944E+02  0.22147786769E+02  0.17093904543E+03  0.12500000000E+03 0.  0.
         25    1    1    2    0    0 -0.27196127089E+02  0.16440017766E+03  0.43242075307E+02  0.21274850133E+03  0.12500000000E+03 0.  0.
         25    1    1    2    0    0 -0.51545701456E+02 -0.81307715711E+02  0.54776085373E+02  0.16701294411E+03  0.12500000000E+03 0.  0.
</event>
<event>
 5    0  0.5705185E-005  0.2217483E+03  0.7546771E-02  0.1132586E+00
         21   -1    0    0  502  501  0.00000000000E+00  0.00000000000E+00  0.83971795646E+02  0.83971795646E+02  0.00000000000E+00 0.  1.
         21   -1    0    0  501  502 -0.00000000000E+00 -0.00000000000E+00 -0.58558105840E+03  0.58558105840E+03  0.00000000000E+00 0.  1.
         25    1    1    2    0    0 -0.20590369814E+02 -0.32731638645E+02 -0.88106853111E+02  0.15774390975E+03  0.12500000000E+03 0.  0.
         25    1    1    2    0    0 -0.30662450811E+02  0.10586457331E+02 -0.32256603593E+03  0.34745662536E+03  0.12500000000E+03 0.  0.
         25    1    1    2    0    0  0.51252820625E+02  0.22145181313E+02 -0.90936373711E+02  0.16435231894E+03  0.12500000000E+03 0.  0.
</event>
<event>
 5    0  0.5705185E-005  0.2754150E+03  0.7546771E-02  0.1098220E+00
         21   -1    0    0  502  501  0.00000000000E+00  0.00000000000E+00  0.16274951064E+03  0.16274951064E+03  0.00000000000E+00 0. -1.
         21   -1    0    0  501  502 -0.00000000000E+00 -0.00000000000E+00 -0.46607453564E+03  0.46607453564E+03  0.00000000000E+00 0. -1.
         25    1    1    2    0    0 -0.12907856396E+03  0.60691093160E+00 -0.24097614287E+03  0.30059298968E+03  0.12500000000E+03 0.  0.
         25    1    1    2    0    0  0.64917544062E+02 -0.30779566595E+02 -0.10496450948E+03  0.17833736989E+03  0.12500000000E+03 0.  0.
         25    1    1    2    0    0  0.64161019897E+02  0.30172655663E+02  0.42615627349E+02  0.14989368672E+03  0.12500000000E+03 0.  0.
</event>
<event>
 5    0  0.5705185E-005  0.2734647E+03  0.7546771E-02  0.1099313E+00
         21   -1    0    0  502  501  0.00000000000E+00  0.00000000000E+00  0.41740554823E+03  0.41740554823E+03  0.00000000000E+00 0.  1.
         21   -1    0    0  501  502 -0.00000000000E+00 -0.00000000000E+00 -0.17916131010E+03  0.17916131010E+03  0.00000000000E+00 0.  1.
         25    1    1    2    0    0 -0.39861614596E+02  0.14930397061E+03  0.20679823105E+03  0.28682944815E+03  0.12500000000E+03 0.  0.
         25    1    1    2    0    0  0.20756880778E+02 -0.57823560143E+02  0.58979556182E+02  0.15125475283E+03  0.12500000000E+03 0.  0.
         25    1    1    2    0    0  0.19104733818E+02 -0.91480410466E+02 -0.27533549102E+02  0.15848265735E+03  0.12500000000E+03 0.  0.
</event>
<event>
 5    0  0.5705185E-005  0.3620026E+03  0.7546771E-02  0.1057794E+00
         21   -1    0    0  502  501  0.00000000000E+00  0.00000000000E+00  0.27693799639E+04  0.27693799639E+04  0.00000000000E+00 0.  1.
         21   -1    0    0  501  502 -0.00000000000E+00 -0.00000000000E+00 -0.47319583427E+02  0.47319583427E+02  0.00000000000E+00 0.  1.
         25    1    1    2    0    0 -0.10472645596E+03 -0.37870624411E+02  0.11960843229E+04  0.12077435665E+04  0.12500000000E+03 0.  0.
         25    1    1    2    0    0  0.38101537144E+01 -0.18695338807E+03  0.53949173075E+03  0.58450185126E+03  0.12500000000E+03 0.  0.
         25    1    1    2    0    0  0.10091630225E+03  0.22482401248E+03  0.98648432682E+03  0.10244541296E+04  0.12500000000E+03 0.  0.
</event>
<event>
 5    0  0.5705185E-005  0.2742903E+03  0.7546771E-02  0.1098849E+00
         21   -1    0    0  502  501  0.00000000000E+00  0.00000000000E+00  0.23663443687E+03  0.23663443687E+03  0.00000000000E+00 0.  1.
         21   -1    0    0  501  502 -0.00000000000E+00 -0.00000000000E+00 -0.31793845693E+03  0.31793845693E+03  0.00000000000E+00 0.  1.
         25    1    1    2    0    0  0.12388608279E+03  0.71789668033E+02  0.28645123629E+02  0.19221618312E+03  0.12500000000E+03 0.  0.
         25    1    1    2    0    0 -0.42357363962E+02  0.52661494762E+01 -0.13917450614E+03  0.19187605836E+03  0.12500000000E+03 0.  0.
         25    1    1    2    0    0 -0.81528718832E+02 -0.77055817509E+02  0.29225362456E+02  0.17048065232E+03  0.12500000000E+03 0.  0.
</event>
<event>
 5    0  0.5705185E-005  0.3096234E+03  0.7546771E-02  0.1080527E+00
         21   -1    0    0  502  501  0.00000000000E+00  0.00000000000E+00  0.11266506781E+03  0.11266506781E+03  0.00000000000E+00 0.  1.
         21   -1    0    0  501  502 -0.00000000000E+00 -0.00000000000E+00 -0.85089977208E+03  0.85089977208E+03  0.00000000000E+00 0.  1.
         25    1    1    2    0    0  0.35955940521E+02  0.16688767050E+03 -0.18353775852E+03  0.28009897006E+03  0.12500000000E+03 0.  0.
         25    1    1    2    0    0 -0.91576018279E+02 -0.82170514392E+02 -0.46990695284E+03  0.50157322984E+03  0.12500000000E+03 0.  0.
         25    1    1    2    0    0  0.55620077758E+02 -0.84717156110E+02 -0.84789992898E+02  0.18189264000E+03  0.12500000000E+03 0.  0.
</event>
<event>
 5    0  0.6108325E-005  0.2583418E+03  0.7546771E-02  0.1108144E+00
         21   -1    0    0  502  501  0.00000000000E+00  0.00000000000E+00  0.14564426062E+03  0.14564426062E+03  0.00000000000E+00 0.  1.
         21   -1    0    0  501  502 -0.00000000000E+00 -0.00000000000E+00 -0.45824327093E+03  0.45824327093E+03  0.00000000000E+00 0.  1.
         25    1    1    2    0    0  0.40285174399E-01 -0.84132706687E+02 -0.18925862857E+03  0.24191350199E+03  0.12500000000E+03 0.  0.
         25    1    1    2    0    0 -0.40570599080E+02  0.14131728862E+03 -0.43121015665E+02  0.19773965603E+03  0.12500000000E+03 0.  0.
         25    1    1    2    0    0  0.40530313906E+02 -0.57184581936E+02 -0.80219366066E+02  0.16423437353E+03  0.12500000000E+03 0.  0.
</event>
<event>
 5    0  0.5705185E-005  0.3155150E+03  0.7546771E-02  0.1077732E+00
         21   -1    0    0  502  501  0.00000000000E+00  0.00000000000E+00  0.22240482167E+04  0.22240482167E+04  0.00000000000E+00 0.  1.
         21   -1    0    0  501  502 -0.00000000000E+00 -0.00000000000E+00 -0.44760584516E+02  0.44760584516E+02  0.00000000000E+00 0.  1.
         25    1    1    2    0    0 -0.88289738573E+02 -0.20253767708E+03  0.70448463357E+03  0.74882587262E+03  0.12500000000E+03 0.  0.
         25    1    1    2    0    0  0.20720963903E+02  0.18415389411E+03  0.95321017961E+03  0.97906928334E+03  0.12500000000E+03 0.  0.
         25    1    1    2    0    0  0.67568774669E+02  0.18383782972E+02  0.52159281896E+03  0.54091364521E+03  0.12500000000E+03 0.  0.
</event>
<event>
 5    0  0.5705185E-005  0.3006034E+03  0.7546771E-02  0.1084939E+00
         21   -1    0    0  502  501  0.00000000000E+00  0.00000000000E+00  0.41878827899E+03  0.41878827899E+03  0.00000000000E+00 0. -1.
         21   -1    0    0  501  502 -0.00000000000E+00 -0.00000000000E+00 -0.21577109859E+03  0.21577109859E+03  0.00000000000E+00 0. -1.
         25    1    1    2    0    0  0.16959813191E+03  0.65825437524E+02  0.10813086691E+03  0.24579218651E+03  0.12500000000E+03 0.  0.
         25    1    1    2    0    0 -0.18963351972E+03 -0.73929511154E+02  0.16011019549E+02  0.23939047009E+03  0.12500000000E+03 0.  0.
         25    1    1    2    0    0  0.20035387814E+02  0.81040736301E+01  0.78875293940E+02  0.14937672097E+03  0.12500000000E+03 0.  0.
</event>
<event>
 5    0  0.5770213E-005  0.4260296E+03  0.7546771E-02  0.1035122E+00
         21   -1    0    0  502  501  0.00000000000E+00  0.00000000000E+00  0.61856141544E+03  0.61856141544E+03  0.00000000000E+00 0. -1.
         21   -1    0    0  501  502 -0.00000000000E+00 -0.00000000000E+00 -0.29342473199E+03  0.29342473199E+03  0.00000000000E+00 0. -1.
         25    1    1    2    0    0 -0.65783975126E+02 -0.16908434371E+03  0.17163945992E+03  0.27928865153E+03  0.12500000000E+03 0.  0.
         25    1    1    2    0    0  0.13721090339E+03 -0.16072703243E+03  0.11389558916E+03  0.27066070308E+03  0.12500000000E+03 0.  0.
         25    1    1    2    0    0 -0.71426928260E+02  0.32981137614E+03  0.39601634366E+02  0.36203679282E+03  0.12500000000E+03 0.  0.
</event>
<event>
 5    0  0.5705185E-005  0.4276176E+03  0.7546771E-02  0.1034615E+00
         21   -1    0    0  502  501  0.00000000000E+00  0.00000000000E+00  0.36235127413E+03  0.36235127413E+03  0.00000000000E+00 0. -1.
         21   -1    0    0  501  502 -0.00000000000E+00 -0.00000000000E+00 -0.50463956736E+03  0.50463956736E+03  0.00000000000E+00 0. -1.
         25    1    1    2    0    0  0.11718401065E+02 -0.12706092322E+03 -0.23102212793E+03  0.29202401053E+03  0.12500000000E+03 0.  0.
         25    1    1    2    0    0  0.10155547196E+03  0.75211335882E+02  0.26917698367E+03  0.32257015898E+03  0.12500000000E+03 0.  0.
         25    1    1    2    0    0 -0.11327387302E+03  0.51849587342E+02 -0.18044314896E+03  0.25239667198E+03  0.12500000000E+03 0.  0.
</event>
<event>
 5    0  0.5705185E-005  0.2947905E+03  0.7546771E-02  0.1087874E+00
         21   -1    0    0  502  501  0.00000000000E+00  0.00000000000E+00  0.87187268443E+02  0.87187268443E+02  0.00000000000E+00 0.  1.
         21   -1    0    0  501  502 -0.00000000000E+00 -0.00000000000E+00 -0.99672164894E+03  0.99672164894E+03  0.00000000000E+00 0.  1.
         25    1    1    2    0    0 -0.81270865153E+02 -0.11365016239E+03 -0.95059209751E+02  0.21019649448E+03  0.12500000000E+03 0.  0.
         25    1    1    2    0    0 -0.16015240449E+02  0.26946016025E+02 -0.25326413994E+03  0.28416597313E+03  0.12500000000E+03 0.  0.
         25    1    1    2    0    0  0.97286105603E+02  0.86704146361E+02 -0.56121103080E+03  0.58954644977E+03  0.12500000000E+03 0.  0.
</event>
<event>
 5    0  0.5705185E-005  0.3549349E+03  0.7546771E-02  0.1060608E+00
         21   -1    0    0  502  501  0.00000000000E+00  0.00000000000E+00  0.24899895942E+03  0.24899895942E+03  0.00000000000E+00 0.  1.
         21   -1    0    0  501  502 -0.00000000000E+00 -0.00000000000E+00 -0.50594100420E+03  0.50594100420E+03  0.00000000000E+00 0.  1.
         25    1    1    2    0    0 -0.15962469164E+02 -0.26012807706E+02  0.12812161097E+02  0.12930822889E+03  0.12500000000E+03 0.  0.
         25    1    1    2    0    0 -0.60563707564E+02 -0.22790035117E+03 -0.89623765620E+02  0.28153854461E+03  0.12500000000E+03 0.  0.
         25    1    1    2    0    0  0.76526176728E+02  0.25391315888E+03 -0.18013044026E+03  0.34409319011E+03  0.12500000000E+03 0.  0.
</event>
<event>
 5    0  0.5705185E-005  0.2497602E+03  0.7546771E-02  0.1113456E+00
         21   -1    0    0  502  501  0.00000000000E+00  0.00000000000E+00  0.16195707322E+03  0.16195707322E+03  0.00000000000E+00 0. -1.
         21   -1    0    0  501  502 -0.00000000000E+00 -0.00000000000E+00 -0.38516474969E+03  0.38516474969E+03  0.00000000000E+00 0. -1.
         25    1    1    2    0    0  0.99287967950E+02 -0.22589442643E+02 -0.27667186690E+02  0.16358134587E+03  0.12500000000E+03 0.  0.
         25    1    1    2    0    0 -0.97174475462E+02 -0.68773280266E+02 -0.12646285807E+03  0.21398714268E+03  0.12500000000E+03 0.  0.
         25    1    1    2    0    0 -0.21134924872E+01  0.91362722909E+02 -0.69077631716E+02  0.16955333436E+03  0.12500000000E+03 0.  0.
</event>
<event>
 5    0  0.5705185E-005  0.5352691E+03  0.7546771E-02  0.1004962E+00
         21   -1    0    0  502  501  0.00000000000E+00  0.00000000000E+00  0.89272250401E+03  0.89272250401E+03  0.00000000000E+00 0. -1.
         21   -1    0    0  501  502 -0.00000000000E+00 -0.00000000000E+00 -0.32094295735E+03  0.32094295735E+03  0.00000000000E+00 0. -1.
         25    1    1    2    0    0 -0.48912122390E+02 -0.30025299235E+03  0.26022620053E+03  0.41938875829E+03  0.12500000000E+03 0.  0.
         25    1    1    2    0    0 -0.64244877869E+02  0.95679156445E+02 -0.17261159138E+03  0.24228426856E+03  0.12500000000E+03 0.  0.
         25    1    1    2    0    0  0.11315700026E+03  0.20457383591E+03  0.48416493751E+03  0.55199243452E+03  0.12500000000E+03 0.  0.
</event>
<event>
 5    0  0.5705185E-005  0.3088879E+03  0.7546771E-02  0.1080880E+00
         21   -1    0    0  502  501  0.00000000000E+00  0.00000000000E+00  0.92708311189E+03  0.92708311189E+03  0.00000000000E+00 0.  1.
         21   -1    0    0  501  502 -0.00000000000E+00 -0.00000000000E+00 -0.10291607007E+03  0.10291607007E+03  0.00000000000E+00 0.  1.
         25    1    1    2    0    0 -0.79673936979E+02  0.51972541734E+02  0.52352992008E+03  0.54658728356E+03  0.12500000000E+03 0.  0.
         25    1    1    2    0    0  0.56608844077E+02 -0.12091519830E+03  0.28408103039E+03  0.33786399369E+03  0.12500000000E+03 0.  0.
         25    1    1    2    0    0  0.23065092902E+02  0.68942656569E+02  0.16556091350E+02  0.14554790471E+03  0.12500000000E+03 0.  0.
</event>
<event>
 5    0  0.5705185E-005  0.3074861E+03  0.7546771E-02  0.1081557E+00
         21   -1    0    0  502  501  0.00000000000E+00  0.00000000000E+00  0.58637398579E+03  0.58637398579E+03  0.00000000000E+00 0. -1.
         21   -1    0    0  501  502 -0.00000000000E+00 -0.00000000000E+00 -0.16124126846E+03  0.16124126846E+03  0.00000000000E+00 0. -1.
         25    1    1    2    0    0 -0.73474240592E+02  0.22738169328E+02  0.49810032711E+02  0.15498879874E+03  0.12500000000E+03 0.  0.
         25    1    1    2    0    0 -0.14652431713E+03 -0.62472450551E+02  0.16835234969E+03  0.26332431759E+03  0.12500000000E+03 0.  0.
         25    1    1    2    0    0  0.21999855772E+03  0.39734281223E+02  0.20697033492E+03  0.32930213793E+03  0.12500000000E+03 0.  0.
</event>
<event>
 5    0  0.5705185E-005  0.3391768E+03  0.7546771E-02  0.1067147E+00
         21   -1    0    0  502  501  0.00000000000E+00  0.00000000000E+00  0.81873251868E+03  0.81873251868E+03  0.00000000000E+00 0. -1.
         21   -1    0    0  501  502 -0.00000000000E+00 -0.00000000000E+00 -0.14051094231E+03  0.14051094231E+03  0.00000000000E+00 0. -1.
         25    1    1    2    0    0 -0.55036946434E+02 -0.82589374831E+02  0.27654085783E+03  0.31929596984E+03  0.12500000000E+03 0.  0.
         25    1    1    2    0    0 -0.10289072542E+03  0.20079860637E+03  0.26281296966E+03  0.36824209254E+03  0.12500000000E+03 0.  0.
         25    1    1    2    0    0  0.15792767185E+03 -0.11820923153E+03  0.13886774888E+03  0.27170539861E+03  0.12500000000E+03 0.  0.
</event>
<event>
 5    0  0.6054845E-005  0.2647132E+03  0.7546771E-02  0.1104344E+00
         21   -1    0    0  502  501  0.00000000000E+00  0.00000000000E+00  0.18502375405E+03  0.18502375405E+03  0.00000000000E+00 0.  1.
         21   -1    0    0  501  502 -0.00000000000E+00 -0.00000000000E+00 -0.37872482567E+03  0.37872482567E+03  0.00000000000E+00 0.  1.
         25    1    1    2    0    0  0.11367115369E+03 -0.12040235543E+03 -0.10856903833E+03  0.23415826797E+03  0.12500000000E+03 0.  0.
         25    1    1    2    0    0 -0.24509668053E+02  0.47267261787E+02 -0.83575193616E+02  0.15951404594E+03  0.12500000000E+03 0.  0.
         25    1    1    2    0    0 -0.89161485637E+02  0.73135093639E+02 -0.15568396815E+01  0.17007626581E+03  0.12500000000E+03 0.  0.
</event>
<event>
 5    0  0.5705185E-005  0.4144864E+03  0.7546771E-02  0.1038876E+00
         21   -1    0    0  502  501  0.00000000000E+00  0.00000000000E+00  0.12219117562E+03  0.12219117562E+03  0.00000000000E+00 0. -1.
         21   -1    0    0  501  502 -0.00000000000E+00 -0.00000000000E+00 -0.14059851373E+04  0.14059851373E+04  0.00000000000E+00 0. -1.
         25    1    1    2    0    0 -0.11815641373E+02 -0.76157521785E+02 -0.60826862924E+03  0.62574379966E+03  0.12500000000E+03 0.  0.
         25    1    1    2    0    0  0.78023850117E+02 -0.10320391831E+03 -0.64781528060E+03  0.67233057920E+03  0.12500000000E+03 0.  0.
         25    1    1    2    0    0 -0.66208208743E+02  0.17936144010E+03 -0.27710051884E+02  0.23010193410E+03  0.12500000000E+03 0.  0.
</event>
<event>
 5    0  0.5705185E-005  0.3136918E+03  0.7546771E-02  0.1078590E+00
         21   -1    0    0  502  501  0.00000000000E+00  0.00000000000E+00  0.48083599817E+03  0.48083599817E+03  0.00000000000E+00 0.  1.
         21   -1    0    0  501  502 -0.00000000000E+00 -0.00000000000E+00 -0.20464887597E+03  0.20464887597E+03  0.00000000000E+00 0.  1.
         25    1    1    2    0    0 -0.13377334957E+03 -0.42485060952E+02  0.64625015238E+02  0.19875030077E+03  0.12500000000E+03 0.  0.
         25    1    1    2    0    0  0.19869688240E+03  0.13402214820E+03  0.13426144811E+03  0.30181703685E+03  0.12500000000E+03 0.  0.
         25    1    1    2    0    0 -0.64923532824E+02 -0.91537087253E+02  0.77300658851E+02  0.18491753653E+03  0.12500000000E+03 0.  0.
</event>
<event>
 5    0  0.5705185E-005  0.3306862E+03  0.7546771E-02  0.1070834E+00
         21   -1    0    0  502  501  0.00000000000E+00  0.00000000000E+00  0.15153192984E+03  0.15153192984E+03  0.00000000000E+00 0.  1.
         21   -1    0    0  501  502 -0.00000000000E+00 -0.00000000000E+00 -0.72165227195E+03  0.72165227195E+03  0.00000000000E+00 0.  1.
         25    1    1    2    0    0 -0.61884984914E+02  0.33318291207E+02 -0.44508454632E+03  0.46761641680E+03  0.12500000000E+03 0.  0.
         25    1    1    2    0    0  0.11844437290E+03  0.49508353323E+02 -0.16148678720E+03  0.24121179275E+03  0.12500000000E+03 0.  0.
         25    1    1    2    0    0 -0.56559387986E+02 -0.82826644530E+02  0.36450991402E+02  0.16435599225E+03  0.12500000000E+03 0.  0.
</event>
<event>
 5    0  0.5705185E-005  0.3423229E+03  0.7546771E-02  0.1065811E+00
         21   -1    0    0  502  501  0.00000000000E+00  0.00000000000E+00  0.21375252676E+03  0.21375252676E+03  0.00000000000E+00 0.  1.
         21   -1    0    0  501  502 -0.00000000000E+00 -0.00000000000E+00 -0.54822735350E+03  0.54822735350E+03  0.00000000000E+00 0.  1.
         25    1    1    2    0    0 -0.14098392328E+03  0.19844102963E+02 -0.69382030572E+02  0.20176501483E+03  0.12500000000E+03 0.  0.
         25    1    1    2    0    0  0.10686986177E+03  0.41262837274E+02  0.79323821533E+02  0.18719256865E+03  0.12500000000E+03 0.  0.
         25    1    1    2    0    0  0.34114061509E+02 -0.61106940237E+02 -0.34441661770E+03  0.37302229677E+03  0.12500000000E+03 0.  0.
</event>
<event>
 5    0  0.5705185E-005  0.2617651E+03  0.7546771E-02  0.1106087E+00
         21   -1    0    0  502  501  0.00000000000E+00  0.00000000000E+00  0.18445659343E+03  0.18445659343E+03  0.00000000000E+00 0.  1.
         21   -1    0    0  501  502 -0.00000000000E+00 -0.00000000000E+00 -0.37147467970E+03  0.37147467970E+03  0.00000000000E+00 0.  1.
         25    1    1    2    0    0 -0.60842194093E+02 -0.96277035317E+02 -0.13799135764E+03  0.21826052070E+03  0.12500000000E+03 0.  0.
         25    1    1    2    0    0  0.10697015284E+03  0.65581682921E+02  0.30166828795E+02  0.17966248438E+03  0.12500000000E+03 0.  0.
         25    1    1    2    0    0 -0.46127958743E+02  0.30695352396E+02 -0.79193557422E+02  0.15800826805E+03  0.12500000000E+03 0.  0.
</event>
<event>
 5    0  0.5705185E-005  0.4061456E+03  0.7546771E-02  0.1041672E+00
         21   -1    0    0  502  501  0.00000000000E+00  0.00000000000E+00  0.22012458777E+03  0.22012458777E+03  0.00000000000E+00 0. -1.
         21   -1    0    0  501  502 -0.00000000000E+00 -0.00000000000E+00 -0.74936767784E+03  0.74936767784E+03  0.00000000000E+00 0. -1.
         25    1    1    2    0    0 -0.51950436561E+02  0.26077265695E+03 -0.33142621145E+03  0.44291032965E+03  0.12500000000E+03 0.  0.
         25    1    1    2    0    0 -0.92496063294E+02 -0.19003080618E+03 -0.42529498821E+01  0.24558158849E+03  0.12500000000E+03 0.  0.
         25    1    1    2    0    0  0.14444649986E+03 -0.70741850767E+02 -0.19356392874E+03  0.28100034747E+03  0.12500000000E+03 0.  0.
</event>
<event>
 5    0  0.7928736E-005  0.2726554E+03  0.7546771E-02  0.1099769E+00
         21   -1    0    0  502  501  0.00000000000E+00  0.00000000000E+00  0.81474140530E+03  0.81474140530E+03  0.00000000000E+00 0. -1.
         21   -1    0    0  501  502 -0.00000000000E+00 -0.00000000000E+00 -0.91244855819E+02  0.91244855819E+02  0.00000000000E+00 0. -1.
         25    1    1    2    0    0 -0.46512881241E+02 -0.43144516975E+02  0.41304709422E+03  0.43618551043E+03  0.12500000000E+03 0.  0.
         25    1    1    2    0    0  0.79282176882E+02 -0.37760762962E+02  0.27295676166E+03  0.31279695095E+03  0.12500000000E+03 0.  0.
         25    1    1    2    0    0 -0.32769295641E+02  0.80905279937E+02  0.37492693607E+02  0.15700379974E+03  0.12500000000E+03 0.  0.
</event>
<event>
 5    0  0.5705185E-005  0.3572789E+03  0.7546771E-02  0.1059667E+00
         21   -1    0    0  502  501  0.00000000000E+00  0.00000000000E+00  0.13201481504E+03  0.13201481504E+03  0.00000000000E+00 0. -1.
         21   -1    0    0  501  502 -0.00000000000E+00 -0.00000000000E+00 -0.96692324723E+03  0.96692324723E+03  0.00000000000E+00 0. -1.
         25    1    1    2    0    0  0.21503502928E+02 -0.19022108994E+03 -0.45202840962E+03  0.50655813763E+03  0.12500000000E+03 0.  0.
         25    1    1    2    0    0 -0.15676859659E+03  0.11655290054E+03 -0.29545072702E+03  0.37560232108E+03  0.12500000000E+03 0.  0.
         25    1    1    2    0    0  0.13526509366E+03  0.73668189399E+02 -0.87429295549E+02  0.21677760357E+03  0.12500000000E+03 0.  0.
</event>
<event>
 5    0  0.5705185E-005  0.3861438E+03  0.7546771E-02  0.1048686E+00
         21   -1    0    0  502  501  0.00000000000E+00  0.00000000000E+00  0.22524393537E+04  0.22524393537E+04  0.00000000000E+00 0.  1.
         21   -1    0    0  501  502 -0.00000000000E+00 -0.00000000000E+00 -0.66198030161E+02  0.66198030161E+02  0.00000000000E+00 0.  1.
         25    1    1    2    0    0  0.12140035315E+03  0.15204795624E+03  0.22412824131E+03  0.32204828100E+03  0.12500000000E+03 0.  0.
         25    1    1    2    0    0 -0.77640113959E+01 -0.17792719673E+02  0.39688118945E+03  0.41655316502E+03  0.12500000000E+03 0.  0.
         25    1    1    2    0    0 -0.11363634176E+03 -0.13425523656E+03  0.15652318928E+04  0.15800359378E+04  0.12500000000E+03 0.  0.
</event>
<event>
 5    0  0.5711181E-005  0.3132851E+03  0.7546771E-02  0.1078782E+00
         21   -1    0    0  502  501  0.00000000000E+00  0.00000000000E+00  0.69718036694E+03  0.69718036694E+03  0.00000000000E+00 0.  1.
         21   -1    0    0  501  502 -0.00000000000E+00 -0.00000000000E+00 -0.14077789515E+03  0.14077789515E+03  0.00000000000E+00 0.  1.
         25    1    1    2    0    0 -0.36213973820E+02 -0.21697126612E+03  0.14806633674E+03  0.29314948797E+03  0.12500000000E+03 0.  0.
         25    1    1    2    0    0 -0.28655225446E+02  0.95283306721E+02  0.11289084086E+03  0.19562559248E+03  0.12500000000E+03 0.  0.
         25    1    1    2    0    0  0.64869199266E+02  0.12168795940E+03  0.29544529419E+03  0.34918318163E+03  0.12500000000E+03 0.  0.
</event>
<event>
 5    0  0.5705185E-005  0.4440662E+03  0.7546771E-02  0.1029506E+00
         21   -1    0    0  502  501  0.00000000000E+00  0.00000000000E+00  0.62354226208E+03  0.62354226208E+03  0.00000000000E+00 0.  1.
         21   -1    0    0  501  502 -0.00000000000E+00 -0.00000000000E+00 -0.31624929499E+03  0.31624929499E+03  0.00000000000E+00 0.  1.
         25    1    1    2    0    0 -0.27092086944E+03  0.20119605672E+03  0.12022432919E+03  0.37941647311E+03  0.12500000000E+03 0.  0.
         25    1    1    2    0    0  0.22659498459E+03  0.13362159537E+02  0.16492948907E+03  0.30716538008E+03  0.12500000000E+03 0.  0.
         25    1    1    2    0    0  0.44325884840E+02 -0.21455821626E+03  0.22139148822E+02  0.25320970389E+03  0.12500000000E+03 0.  0.
</event>
<event>
 5    0  0.5705185E-005  0.3258908E+03  0.7546771E-02  0.1072970E+00
         21   -1    0    0  502  501  0.00000000000E+00  0.00000000000E+00  0.13910050544E+04  0.13910050544E+04  0.00000000000E+00 0.  1.
         21   -1    0    0  501  502 -0.00000000000E+00 -0.00000000000E+00 -0.76351123016E+02  0.76351123016E+02  0.00000000000E+00 0.  1.
         25    1    1    2    0    0 -0.11526749424E+03 -0.36808940468E+02  0.30112858993E+03  0.34777136311E+03  0.12500000000E+03 0.  0.
         25    1    1    2    0    0  0.95710786485E+02 -0.25232133262E+02  0.85498073273E+02  0.18092024688E+03  0.12500000000E+03 0.  0.
         25    1    1    2    0    0  0.19556707757E+02  0.62041073730E+02  0.92802726820E+03  0.93866456744E+03  0.12500000000E+03 0.  0.
</event>
<event>
 5    0  0.7087164E-005  0.2799925E+03  0.7546771E-02  0.1095693E+00
         21   -1    0    0  502  501  0.00000000000E+00  0.00000000000E+00  0.10699313125E+03  0.10699313125E+03  0.00000000000E+00 0. -1.
         21   -1    0    0  501  502 -0.00000000000E+00 -0.00000000000E+00 -0.73271791891E+03  0.73271791891E+03  0.00000000000E+00 0. -1.
         25    1    1    2    0    0  0.30349089719E+02  0.64225007583E+02 -0.63814303431E+02  0.15729966360E+03  0.12500000000E+03 0.  0.
         25    1    1    2    0    0 -0.13153370181E+03 -0.87202595156E+02 -0.42378764118E+03  0.46917626979E+03  0.12500000000E+03 0.  0.
         25    1    1    2    0    0  0.10118461209E+03  0.22977587573E+02 -0.13812284305E+03  0.21323511678E+03  0.12500000000E+03 0.  0.
</event>
<event>
 5    0  0.5705185E-005  0.2875547E+03  0.7546771E-02  0.1091633E+00
         21   -1    0    0  502  501  0.00000000000E+00  0.00000000000E+00  0.12211441261E+03  0.12211441261E+03  0.00000000000E+00 0.  1.
         21   -1    0    0  501  502 -0.00000000000E+00 -0.00000000000E+00 -0.67713321963E+03  0.67713321963E+03  0.00000000000E+00 0.  1.
         25    1    1    2    0    0  0.16773692095E+03 -0.43455687228E+01 -0.16586821748E+03  0.26700528869E+03  0.12500000000E+03 0.  0.
         25    1    1    2    0    0 -0.15892673758E+03  0.74126622623E+02 -0.27277270334E+03  0.34753764082E+03  0.12500000000E+03 0.  0.
         25    1    1    2    0    0 -0.88101833667E+01 -0.69781053900E+02 -0.11637788620E+03  0.18470470273E+03  0.12500000000E+03 0.  0.
</event>
<event>
 5    0  0.5705185E-005  0.3801132E+03  0.7546771E-02  0.1050892E+00
         21   -1    0    0  502  501  0.00000000000E+00  0.00000000000E+00  0.88572158624E+03  0.88572158624E+03  0.00000000000E+00 0. -1.
         21   -1    0    0  501  502 -0.00000000000E+00 -0.00000000000E+00 -0.16312807617E+03  0.16312807617E+03  0.00000000000E+00 0. -1.
         25    1    1    2    0    0  0.12399659244E+03 -0.16182250980E+03  0.23463527088E+03  0.33502296929E+03  0.12500000000E+03 0.  0.
         25    1    1    2    0    0  0.82841346067E+02  0.21682384198E+03  0.31911794421E+03  0.41392816935E+03  0.12500000000E+03 0.  0.
         25    1    1    2    0    0 -0.20683793851E+03 -0.55001332187E+02  0.16884029498E+03  0.29989852377E+03  0.12500000000E+03 0.  0.
</event>
<event>
 5    0  0.5705185E-005  0.3330701E+03  0.7546771E-02  0.1069786E+00
         21   -1    0    0  502  501  0.00000000000E+00  0.00000000000E+00  0.78014112562E+03  0.78014112562E+03  0.00000000000E+00 0. -1.
         21   -1    0    0  501  502 -0.00000000000E+00 -0.00000000000E+00 -0.14219950420E+03  0.14219950420E+03  0.00000000000E+00 0. -1.
         25    1    1    2    0    0 -0.18532433874E+03  0.14639978468E+03  0.27151978417E+03  0.38095406636E+03  0.12500000000E+03 0.  0.
         25    1    1    2    0    0  0.74644233314E+02  0.34881552609E+02  0.11035973577E+03  0.18599127818E+03  0.12500000000E+03 0.  0.
         25    1    1    2    0    0  0.11068010542E+03 -0.18128133729E+03  0.25606210147E+03  0.35539528528E+03  0.12500000000E+03 0.  0.
</event>
<event>
 5    0  0.5705185E-005  0.2595861E+03  0.7546771E-02  0.1107392E+00
         21   -1    0    0  502  501  0.00000000000E+00  0.00000000000E+00  0.42029280565E+03  0.42029280565E+03  0.00000000000E+00 0. -1.
         21   -1    0    0  501  502 -0.00000000000E+00 -0.00000000000E+00 -0.16032862297E+03  0.16032862297E+03  0.00000000000E+00 0. -1.
         25    1    1    2    0    0 -0.16468235354E+02 -0.11256874829E+03  0.71239044283E+02  0.18342008423E+03  0.12500000000E+03 0.  0.
         25    1    1    2    0    0  0.66083942670E+02 -0.28186561646E+02  0.32999445169E+02  0.14790379683E+03  0.12500000000E+03 0.  0.
         25    1    1    2    0    0 -0.49615707315E+02  0.14075530993E+03  0.15572569323E+03  0.24929754756E+03  0.12500000000E+03 0.  0.
</event>
<event>
 5    0  0.5755380E-005  0.2677484E+03  0.7546771E-02  0.1102575E+00
         21   -1    0    0  502  501  0.00000000000E+00  0.00000000000E+00  0.26408663491E+03  0.26408663491E+03  0.00000000000E+00 0. -1.
         21   -1    0    0  501  502 -0.00000000000E+00 -0.00000000000E+00 -0.27146096852E+03  0.27146096852E+03  0.00000000000E+00 0. -1.
         25    1    1    2    0    0  0.11101122373E+03  0.13795876561E+03 -0.32380988964E+02  0.21915665915E+03  0.12500000000E+03 0.  0.
         25    1    1    2    0    0 -0.18986315122E+02 -0.49193101369E+02  0.22789502973E+02  0.13756744829E+03  0.12500000000E+03 0.  0.
         25    1    1    2    0    0 -0.92024908608E+02 -0.88765664244E+02  0.22171523833E+01  0.17882349599E+03  0.12500000000E+03 0.  0.
</event>
<event>
 5    0  0.5705185E-005  0.3351055E+03  0.7546771E-02  0.1068900E+00
         21   -1    0    0  502  501  0.00000000000E+00  0.00000000000E+00  0.23036131441E+04  0.23036131441E+04  0.00000000000E+00 0.  1.
         21   -1    0    0  501  502 -0.00000000000E+00 -0.00000000000E+00 -0.48747628807E+02  0.48747628807E+02  0.00000000000E+00 0.  1.
         25    1    1    2    0    0  0.11105610426E+03  0.13112160457E+03  0.99937033676E+03  0.10217105282E+04  0.12500000000E+03 0.  0.
         25    1    1    2    0    0 -0.87444670237E+02  0.40040610720E+01  0.10173526472E+04  0.10287341792E+04  0.12500000000E+03 0.  0.
         25    1    1    2    0    0 -0.23611434020E+02 -0.13512566564E+03  0.23814253142E+03  0.30191606549E+03  0.12500000000E+03 0.  0.
</event>
<event>
 5    0  0.5705185E-005  0.2237020E+03  0.7546771E-02  0.1131153E+00
         21   -1    0    0  502  501  0.00000000000E+00  0.00000000000E+00  0.64862653369E+02  0.64862653369E+02  0.00000000000E+00 0.  1.
         21   -1    0    0  501  502 -0.00000000000E+00 -0.00000000000E+00 -0.77151625409E+03  0.77151625409E+03  0.00000000000E+00 0.  1.
         25    1    1    2    0    0 -0.17812641136E+02  0.15433750629E+02 -0.38429242798E+03  0.40479767915E+03  0.12500000000E+03 0.  0.
         25    1    1    2    0    0  0.71734064224E+02 -0.35884292764E+02 -0.15140900892E+03  0.21209230637E+03  0.12500000000E+03 0.  0.
         25    1    1    2    0    0 -0.53921423088E+02  0.20450542134E+02 -0.17095216382E+03  0.21948892194E+03  0.12500000000E+03 0.  0.
</event>
<event>
 5    0  0.5705185E-005  0.3026520E+03  0.7546771E-02  0.1083922E+00
         21   -1    0    0  502  501  0.00000000000E+00  0.00000000000E+00  0.28115892901E+03  0.28115892901E+03  0.00000000000E+00 0. -1.
         21   -1    0    0  501  502 -0.00000000000E+00 -0.00000000000E+00 -0.32578804788E+03  0.32578804788E+03  0.00000000000E+00 0. -1.
         25    1    1    2    0    0  0.12336785707E+03 -0.71943647464E+02 -0.64768477565E+02  0.20053795714E+03  0.12500000000E+03 0.  0.
         25    1    1    2    0    0  0.45365816062E+02  0.11571698612E+03 -0.45559153108E+02  0.18206898301E+03  0.12500000000E+03 0.  0.
         25    1    1    2    0    0 -0.16873367314E+03 -0.43773338653E+02  0.65698511800E+02  0.22434003673E+03  0.12500000000E+03 0.  0.
</event>
<event>
 5    0  0.5705185E-005  0.3660629E+03  0.7546771E-02  0.1056209E+00
         21   -1    0    0  502  501  0.00000000000E+00  0.00000000000E+00  0.65241092170E+03  0.65241092170E+03  0.00000000000E+00 0. -1.
         21   -1    0    0  501  502 -0.00000000000E+00 -0.00000000000E+00 -0.20539515694E+03  0.20539515694E+03  0.00000000000E+00 0. -1.
         25    1    1    2    0    0 -0.62655315594E+02 -0.75096241819E+02  0.16972088027E+02  0.15961887695E+03  0.12500000000E+03 0.  0.
         25    1    1    2    0    0 -0.73972195876E+02  0.24860065833E+03  0.16772957895E+03  0.33321522285E+03  0.12500000000E+03 0.  0.
         25    1    1    2    0    0  0.13662751147E+03 -0.17350441651E+03  0.26231409778E+03  0.36497197884E+03  0.12500000000E+03 0.  0.
</event>
<event>
 5    0  0.5731207E-005  0.2795892E+03  0.7546771E-02  0.1095914E+00
         21   -1    0    0  502  501  0.00000000000E+00  0.00000000000E+00  0.22842645786E+03  0.22842645786E+03  0.00000000000E+00 0.  1.
         21   -1    0    0  501  502 -0.00000000000E+00 -0.00000000000E+00 -0.34221128251E+03  0.34221128251E+03  0.00000000000E+00 0.  1.
         25    1    1    2    0    0  0.17659620009E+02 -0.13547247090E+03  0.29098163697E+02  0.18744694098E+03  0.12500000000E+03 0.  0.
         25    1    1    2    0    0  0.83072041333E+02  0.57293094484E+02 -0.10658151473E+02  0.16100328854E+03  0.12500000000E+03 0.  0.
         25    1    1    2    0    0 -0.10073166134E+03  0.78179376417E+02 -0.13222483688E+03  0.22218751086E+03  0.12500000000E+03 0.  0.
</event>
<event>
 5    0  0.5705185E-005  0.2393594E+03  0.7546771E-02  0.1120220E+00
         21   -1    0    0  502  501  0.00000000000E+00  0.00000000000E+00  0.69057481143E+03  0.69057481143E+03  0.00000000000E+00 0. -1.
         21   -1    0    0  501  502 -0.00000000000E+00 -0.00000000000E+00 -0.82964132318E+02  0.82964132318E+02  0.00000000000E+00 0. -1.
         25    1    1    2    0    0  0.87111609622E+01 -0.55065987580E+02  0.30563270892E+03  0.33487982930E+03  0.12500000000E+03 0.  0.
         25    1    1    2    0    0  0.14857976231E+02 -0.58101758386E+01  0.26412843139E+03  0.29264884395E+03  0.12500000000E+03 0.  0.
         25    1    1    2    0    0 -0.23569137193E+02  0.60876163419E+02  0.37849538806E+02  0.14601027049E+03  0.12500000000E+03 0.  0.
</event>
<event>
 5    0  0.5705185E-005  0.4291533E+03  0.7546771E-02  0.1034128E+00
         21   -1    0    0  502  501  0.00000000000E+00  0.00000000000E+00  0.36074078389E+03  0.36074078389E+03  0.00000000000E+00 0.  1.
         21   -1    0    0  501  502 -0.00000000000E+00 -0.00000000000E+00 -0.51053985035E+03  0.51053985035E+03  0.00000000000E+00 0.  1.
         25    1    1    2    0    0 -0.15744870953E+03 -0.87112443719E+02  0.16846044999E+03  0.27637401685E+03  0.12500000000E+03 0.  0.
         25    1    1    2    0    0 -0.91735186532E+02  0.11556952376E+03 -0.35128738071E+02  0.19654690918E+03  0.12500000000E+03 0.  0.
         25    1    1    2    0    0  0.24918389606E+03 -0.28457080042E+02 -0.28313077837E+03  0.39835970820E+03  0.12500000000E+03 0.  0.
</event>
<event>
 5    0  0.5705185E-005  0.3778729E+03  0.7546771E-02  0.1051723E+00
         21   -1    0    0  502  501  0.00000000000E+00  0.00000000000E+00  0.10465557999E+03  0.10465557999E+03  0.00000000000E+00 0. -1.
         21   -1    0    0  501  502 -0.00000000000E+00 -0.00000000000E+00 -0.13643602912E+04  0.13643602912E+04  0.00000000000E+00 0. -1.
         25    1    1    2    0    0  0.15242500295E+03  0.18627663104E+03 -0.22368033393E+03  0.35155405926E+03  0.12500000000E+03 0.  0.
         25    1    1    2    0    0 -0.84339257579E+01 -0.15137763397E+03 -0.31870582250E+03  0.37441250041E+03  0.12500000000E+03 0.  0.
         25    1    1    2    0    0 -0.14399107719E+03 -0.34898997070E+02 -0.71731855480E+03  0.74304931153E+03  0.12500000000E+03 0.  0.
</event>
<event>
 5    0  0.5914155E-005  0.2895792E+03  0.7546771E-02  0.1090569E+00
         21   -1    0    0  502  501  0.00000000000E+00  0.00000000000E+00  0.42634131869E+03  0.42634131869E+03  0.00000000000E+00 0. -1.
         21   -1    0    0  501  502 -0.00000000000E+00 -0.00000000000E+00 -0.19668774863E+03  0.19668774863E+03  0.00000000000E+00 0. -1.
         25    1    1    2    0    0 -0.62125781221E+02 -0.31626523624E+02 -0.51993399583E+01  0.14321970125E+03  0.12500000000E+03 0.  0.
         25    1    1    2    0    0  0.19128899251E+02  0.11146746677E+03  0.27289755988E+03  0.32076313554E+03  0.12500000000E+03 0.  0.
         25    1    1    2    0    0  0.42996881970E+02 -0.79840943147E+02 -0.38044649861E+02  0.15904623053E+03  0.12500000000E+03 0.  0.
</event>
<event>
 5    0  0.5705185E-005  0.4071074E+03  0.7546771E-02  0.1041346E+00
         21   -1    0    0  502  501  0.00000000000E+00  0.00000000000E+00  0.80490710483E+03  0.80490710483E+03  0.00000000000E+00 0.  1.
         21   -1    0    0  501  502 -0.00000000000E+00 -0.00000000000E+00 -0.20590756584E+03  0.20590756584E+03  0.00000000000E+00 0.  1.
         25    1    1    2    0    0  0.18241184932E+03  0.26541116087E+03  0.19495047510E+03  0.39667096544E+03  0.12500000000E+03 0.  0.
         25    1    1    2    0    0 -0.74424738174E+02 -0.24193476654E+03  0.18004717897E+03  0.33483348036E+03  0.12500000000E+03 0.  0.
         25    1    1    2    0    0 -0.10798711115E+03 -0.23476394330E+02  0.22400188493E+03  0.27931022487E+03  0.12500000000E+03 0.  0.
</event>
<event>
 5    0  0.5705185E-005  0.3409796E+03  0.7546771E-02  0.1066379E+00
         21   -1    0    0  502  501  0.00000000000E+00  0.00000000000E+00  0.37383045589E+03  0.37383045589E+03  0.00000000000E+00 0.  1.
         21   -1    0    0  501  502 -0.00000000000E+00 -0.00000000000E+00 -0.31101555777E+03  0.31101555777E+03  0.00000000000E+00 0.  1.
         25    1    1    2    0    0  0.10876686006E+03 -0.15879185677E+03  0.49046365557E+01  0.22955204004E+03  0.12500000000E+03 0.  0.
         25    1    1    2    0    0 -0.21905271455E+03  0.86164672726E+02  0.75939285376E+01  0.26662916256E+03  0.12500000000E+03 0.  0.
         25    1    1    2    0    0  0.11028585449E+03  0.72627184047E+02  0.50316333018E+02  0.18866481106E+03  0.12500000000E+03 0.  0.
</event>
<event>
 5    0  0.5705185E-005  0.3198622E+03  0.7546771E-02  0.1075713E+00
         21   -1    0    0  502  501  0.00000000000E+00  0.00000000000E+00  0.15722085631E+04  0.15722085631E+04  0.00000000000E+00 0.  1.
         21   -1    0    0  501  502 -0.00000000000E+00 -0.00000000000E+00 -0.65075233748E+02  0.65075233748E+02  0.00000000000E+00 0.  1.
         25    1    1    2    0    0 -0.13362426574E+03  0.13464654963E+03  0.66418929765E+03  0.70196692289E+03  0.12500000000E+03 0.  0.
         25    1    1    2    0    0 -0.37921348308E+02 -0.13968967340E+03  0.35657641469E+03  0.40462695539E+03  0.12500000000E+03 0.  0.
         25    1    1    2    0    0  0.17154561405E+03  0.50431237727E+01  0.48636761701E+03  0.53068991857E+03  0.12500000000E+03 0.  0.
</event>
<event>
 5    0  0.5705185E-005  0.2849516E+03  0.7546771E-02  0.1093015E+00
         21   -1    0    0  502  501  0.00000000000E+00  0.00000000000E+00  0.54756086307E+03  0.54756086307E+03  0.00000000000E+00 0. -1.
         21   -1    0    0  501  502 -0.00000000000E+00 -0.00000000000E+00 -0.14828925867E+03  0.14828925867E+03  0.00000000000E+00 0. -1.
         25    1    1    2    0    0 -0.66529997856E+02 -0.62460636241E+02  0.16974621674E+03  0.22970927233E+03  0.12500000000E+03 0.  0.
         25    1    1    2    0    0  0.99304513354E+02 -0.49669581668E+02 -0.14822513934E+02  0.16784862417E+03  0.12500000000E+03 0.  0.
         25    1    1    2    0    0 -0.32774515498E+02  0.11213021791E+03  0.24434790159E+03  0.29829222525E+03  0.12500000000E+03 0.  0.
</event>
<event>
 5    0  0.5705185E-005  0.4710536E+03  0.7546771E-02  0.1021623E+00
         21   -1    0    0  502  501  0.00000000000E+00  0.00000000000E+00  0.10661186778E+04  0.10661186778E+04  0.00000000000E+00 0. -1.
         21   -1    0    0  501  502 -0.00000000000E+00 -0.00000000000E+00 -0.20813019295E+03  0.20813019295E+03  0.00000000000E+00 0.  1.
         25    1    1    2    0    0  0.16193170485E+03 -0.14414932639E+03  0.77206427146E+02  0.26189069806E+03  0.12500000000E+03 0.  0.
         25    1    1    2    0    0 -0.68853456338E+02 -0.18070136039E+03  0.11981125570E+03  0.25956409052E+03  0.12500000000E+03 0.  0.
         25    1    1    2    0    0 -0.93078248517E+02  0.32485068677E+03  0.66097080202E+03  0.75279408218E+03  0.12500000000E+03 0.  0.
</event>
<event>
 5    0  0.6279446E-005  0.3837707E+03  0.7546771E-02  0.1049549E+00
         21   -1    0    0  502  501  0.00000000000E+00  0.00000000000E+00  0.10190888684E+04  0.10190888684E+04  0.00000000000E+00 0.  1.
         21   -1    0    0  501  502 -0.00000000000E+00 -0.00000000000E+00 -0.14452119206E+03  0.14452119206E+03  0.00000000000E+00 0.  1.
         25    1    1    2    0    0 -0.67907193539E+02  0.14943421370E+03  0.13274673283E+03  0.24533378535E+03  0.12500000000E+03 0.  0.
         25    1    1    2    0    0 -0.10732439691E+03 -0.16893400565E+03  0.13001661095E+03  0.26941889978E+03  0.12500000000E+03 0.  0.
         25    1    1    2    0    0  0.17523159045E+03  0.19499791947E+02  0.61180433260E+03  0.64885737537E+03  0.12500000000E+03 0.  0.
</event>
<event>
 5    0  0.5705185E-005  0.2427048E+03  0.7546771E-02  0.1118004E+00
         21   -1    0    0  502  501  0.00000000000E+00  0.00000000000E+00  0.12054686484E+04  0.12054686484E+04  0.00000000000E+00 0.  1.
         21   -1    0    0  501  502 -0.00000000000E+00 -0.00000000000E+00 -0.48865332216E+02  0.48865332216E+02  0.00000000000E+00 0.  1.
         25    1    1    2    0    0  0.10089449743E+03 -0.47913487923E+02  0.31619410392E+03  0.35788142350E+03  0.12500000000E+03 0.  0.
         25    1    1    2    0    0 -0.12498110157E+03  0.39094564628E+02  0.55596475817E+03  0.58469690701E+03  0.12500000000E+03 0.  0.
         25    1    1    2    0    0  0.24086604140E+02  0.88189232947E+01  0.28444445404E+03  0.31175565006E+03  0.12500000000E+03 0.  0.
</event>
<event>
 5    0  0.5705185E-005  0.2671783E+03  0.7546771E-02  0.1102905E+00
         21   -1    0    0  502  501  0.00000000000E+00  0.00000000000E+00  0.44711218950E+03  0.44711218950E+03  0.00000000000E+00 0. -1.
         21   -1    0    0  501  502 -0.00000000000E+00 -0.00000000000E+00 -0.15965619405E+03  0.15965619405E+03  0.00000000000E+00 0. -1.
         25    1    1    2    0    0 -0.77151808390E+02  0.12363614320E+03  0.12856083052E+02  0.19242810687E+03  0.12500000000E+03 0.  0.
         25    1    1    2    0    0  0.43796779732E+02 -0.27175951963E+02  0.65583828920E+02  0.15027617541E+03  0.12500000000E+03 0.  0.
         25    1    1    2    0    0  0.33355028659E+02 -0.96460191233E+02  0.20901608347E+03  0.26406410127E+03  0.12500000000E+03 0.  0.
</event>
<event>
 5    0  0.5705185E-005  0.2108102E+03  0.7546771E-02  0.1140926E+00
         21   -1    0    0  502  501  0.00000000000E+00  0.00000000000E+00  0.36024016017E+03  0.36024016017E+03  0.00000000000E+00 0.  1.
         21   -1    0    0  501  502 -0.00000000000E+00 -0.00000000000E+00 -0.12336480929E+03  0.12336480929E+03  0.00000000000E+00 0.  1.
         25    1    1    2    0    0 -0.24041691797E+02  0.22608710215E+02  0.87053611845E+02  0.15586047625E+03  0.12500000000E+03 0.  0.
         25    1    1    2    0    0 -0.51169753579E+01 -0.49557079593E+02  0.14308259119E+03  0.19641719751E+03  0.12500000000E+03 0.  0.
         25    1    1    2    0    0  0.29158667155E+02  0.26948369379E+02  0.67391478474E+01  0.13132729570E+03  0.12500000000E+03 0.  0.
</event>
<event>
 5    0  0.5705185E-005  0.3689786E+03  0.7546771E-02  0.1055084E+00
         21   -1    0    0  502  501  0.00000000000E+00  0.00000000000E+00  0.98731447129E+03  0.98731447129E+03  0.00000000000E+00 0.  1.
         21   -1    0    0  501  502 -0.00000000000E+00 -0.00000000000E+00 -0.13789448306E+03  0.13789448306E+03  0.00000000000E+00 0.  1.
         25    1    1    2    0    0 -0.12920632215E+03  0.14238780944E+03  0.35751948255E+03  0.42475138889E+03  0.12500000000E+03 0.  0.
         25    1    1    2    0    0  0.98550276378E+02 -0.21613142826E+03  0.48211489309E+03  0.55180134233E+03  0.12500000000E+03 0.  0.
         25    1    1    2    0    0  0.30656045772E+02  0.73743618821E+02  0.97856125883E+01  0.14865622312E+03  0.12500000000E+03 0.  0.
</event>
<event>
 5    0  0.5705185E-005  0.3650617E+03  0.7546771E-02  0.1056597E+00
         21   -1    0    0  502  501  0.00000000000E+00  0.00000000000E+00  0.16036831036E+03  0.16036831036E+03  0.00000000000E+00 0.  1.
         21   -1    0    0  501  502 -0.00000000000E+00 -0.00000000000E+00 -0.83102473291E+03  0.83102473291E+03  0.00000000000E+00 0.  1.
         25    1    1    2    0    0  0.10546064755E+03  0.95616676613E+02 -0.68153819185E+02  0.20133166690E+03  0.12500000000E+03 0.  0.
         25    1    1    2    0    0 -0.23988173026E+03 -0.13698494810E+03 -0.47227623033E+03  0.56122897132E+03  0.12500000000E+03 0.  0.
         25    1    1    2    0    0  0.13442108272E+03  0.41368271486E+02 -0.13022637304E+03  0.22883240504E+03  0.12500000000E+03 0.  0.
</event>
<event>
 5    0  0.5948877E-005  0.2943145E+03  0.7546771E-02  0.1088118E+00
         21   -1    0    0  502  501  0.00000000000E+00  0.00000000000E+00  0.11237715176E+03  0.11237715176E+03  0.00000000000E+00 0.  1.
         21   -1    0    0  501  502 -0.00000000000E+00 -0.00000000000E+00 -0.77080648360E+03  0.77080648360E+03  0.00000000000E+00 0.  1.
         25    1    1    2    0    0 -0.49260600346E+02  0.10672883073E+03 -0.14461420841E+03  0.22440124627E+03  0.12500000000E+03 0.  0.
         25    1    1    2    0    0  0.30995057595E+02  0.61745783156E+02 -0.38807383330E+03  0.41352090083E+03  0.12500000000E+03 0.  0.
         25    1    1    2    0    0  0.18265542751E+02 -0.16847461389E+03 -0.12574129013E+03  0.24526148825E+03  0.12500000000E+03 0.  0.
</event>
<event>
 5    0  0.5705185E-005  0.3380186E+03  0.7546771E-02  0.1067643E+00
         21   -1    0    0  502  501  0.00000000000E+00  0.00000000000E+00  0.61221937538E+03  0.61221937538E+03  0.00000000000E+00 0. -1.
         21   -1    0    0  501  502 -0.00000000000E+00 -0.00000000000E+00 -0.18662685009E+03  0.18662685009E+03  0.00000000000E+00 0.  1.
         25    1    1    2    0    0 -0.43012965526E+02 -0.24341202475E+02  0.47391470867E+02  0.14252564980E+03  0.12500000000E+03 0.  0.
         25    1    1    2    0    0 -0.64780916871E+02 -0.20302943765E+03  0.23493967586E+03  0.34093866169E+03  0.12500000000E+03 0.  0.
         25    1    1    2    0    0  0.10779388240E+03  0.22737064013E+03  0.14326137856E+03  0.31538191397E+03  0.12500000000E+03 0.  0.
</event>
<event>
 5    0  0.5705185E-005  0.2330672E+03  0.7546771E-02  0.1124499E+00
         21   -1    0    0  502  501  0.00000000000E+00  0.00000000000E+00  0.56932725709E+02  0.56932725709E+02  0.00000000000E+00 0.  1.
         21   -1    0    0  501  502 -0.00000000000E+00 -0.00000000000E+00 -0.95411431705E+03  0.95411431705E+03  0.00000000000E+00 0.  1.
         25    1    1    2    0    0  0.12019965222E+02  0.12563623662E+02 -0.13520711340E+03  0.18495482615E+03  0.12500000000E+03 0.  0.
         25    1    1    2    0    0  0.91090128675E+01 -0.90134596221E+02 -0.25799597046E+03  0.30065618292E+03  0.12500000000E+03 0.  0.
         25    1    1    2    0    0 -0.21128978089E+02  0.77570972559E+02 -0.50397850748E+03  0.52543603369E+03  0.12500000000E+03 0.  0.
</event>
<event>
 5    0  0.5705185E-005  0.4411537E+03  0.7546771E-02  0.1030393E+00
         21   -1    0    0  502  501  0.00000000000E+00  0.00000000000E+00  0.19395981575E+03  0.19395981575E+03  0.00000000000E+00 0. -1.
         21   -1    0    0  501  502 -0.00000000000E+00 -0.00000000000E+00 -0.10033862714E+04  0.10033862714E+04  0.00000000000E+00 0. -1.
         25    1    1    2    0    0 -0.20406669312E+03 -0.21300177973E+03 -0.35456725393E+03  0.47786599687E+03  0.12500000000E+03 0.  0.
         25    1    1    2    0    0  0.49551718707E+02 -0.75445656456E+02 -0.29831372840E+03  0.33580277018E+03  0.12500000000E+03 0.  0.
         25    1    1    2    0    0  0.15451497441E+03  0.28844743618E+03 -0.15654547334E+03  0.38367732013E+03  0.12500000000E+03 0.  0.
</event>
<event>
 5    0  0.5705185E-005  0.4272409E+03  0.7546771E-02  0.1034735E+00
         21   -1    0    0  502  501  0.00000000000E+00  0.00000000000E+00  0.47085724615E+03  0.47085724615E+03  0.00000000000E+00 0.  1.
         21   -1    0    0  501  502 -0.00000000000E+00 -0.00000000000E+00 -0.38766487651E+03  0.38766487651E+03  0.00000000000E+00 0.  1.
         25    1    1    2    0    0 -0.11314482531E+03 -0.68614133610E+01  0.16773306691E+02  0.16957350708E+03  0.12500000000E+03 0.  0.
         25    1    1    2    0    0 -0.15793923113E+03  0.72824674890E+01  0.26312698888E+03  0.33144931338E+03  0.12500000000E+03 0.  0.
         25    1    1    2    0    0  0.27108405644E+03 -0.42105412806E+00 -0.19670792593E+03  0.35749930219E+03  0.12500000000E+03 0.  0.
</event>
<event>
 5    0  0.5705185E-005  0.4288507E+03  0.7546771E-02  0.1034224E+00
         21   -1    0    0  502  501  0.00000000000E+00  0.00000000000E+00  0.15630375891E+04  0.15630375891E+04  0.00000000000E+00 0. -1.
         21   -1    0    0  501  502 -0.00000000000E+00 -0.00000000000E+00 -0.11766378597E+03  0.11766378597E+03  0.00000000000E+00 0. -1.
         25    1    1    2    0    0  0.26942670871E+03 -0.10326590934E+03  0.83745636576E+03  0.89454612176E+03  0.12500000000E+03 0.  0.
         25    1    1    2    0    0 -0.11713062598E+02 -0.61816490316E+01  0.25948766629E+02  0.12835009587E+03  0.12500000000E+03 0.  0.
         25    1    1    2    0    0 -0.25771364612E+03  0.10944755837E+03  0.58196867072E+03  0.65780515742E+03  0.12500000000E+03 0.  0.
</event>
<event>
 5    0  0.5705185E-005  0.3947663E+03  0.7546771E-02  0.1045607E+00
         21   -1    0    0  502  501  0.00000000000E+00  0.00000000000E+00  0.55232636806E+03  0.55232636806E+03  0.00000000000E+00 0. -1.
         21   -1    0    0  501  502 -0.00000000000E+00 -0.00000000000E+00 -0.28215283772E+03  0.28215283772E+03  0.00000000000E+00 0. -1.
         25    1    1    2    0    0  0.25965924695E+03 -0.41216368842E+02  0.16102032633E+03  0.33267740993E+03  0.12500000000E+03 0.  0.
         25    1    1    2    0    0 -0.31719250465E+03  0.72636638242E+02  0.74315880534E+02  0.35641971932E+03  0.12500000000E+03 0.  0.
         25    1    1    2    0    0  0.57533257695E+02 -0.31420269399E+02  0.34837323473E+02  0.14538207653E+03  0.12500000000E+03 0.  0.
</event>
<event>
 5    0  0.5705185E-005  0.2735082E+03  0.7546771E-02  0.1099288E+00
         21   -1    0    0  502  501  0.00000000000E+00  0.00000000000E+00  0.20090498617E+04  0.20090498617E+04  0.00000000000E+00 0. -1.
         21   -1    0    0  501  502 -0.00000000000E+00 -0.00000000000E+00 -0.37234893023E+02  0.37234893023E+02  0.00000000000E+00 0. -1.
         25    1    1    2    0    0 -0.28240440045E+02  0.56159480860E+02  0.72411148124E+03  0.73750515050E+03  0.12500000000E+03 0.  0.
         25    1    1    2    0    0  0.11708225357E+03 -0.12830096008E+03  0.84893928131E+03  0.87549545619E+03  0.12500000000E+03 0.  0.
         25    1    1    2    0    0 -0.88841813528E+02  0.72141479218E+02  0.39876420617E+03  0.43328414808E+03  0.12500000000E+03 0.  0.
</event>
<event>
 5    0  0.5705185E-005  0.3579806E+03  0.7546771E-02  0.1059386E+00
         21   -1    0    0  502  501  0.00000000000E+00  0.00000000000E+00  0.16724803306E+04  0.16724803306E+04  0.00000000000E+00 0.  1.
         21   -1    0    0  501  502 -0.00000000000E+00 -0.00000000000E+00 -0.76622807380E+02  0.76622807380E+02  0.00000000000E+00 0.  1.
         25    1    1    2    0    0  0.15736617120E+02 -0.20135906324E+03  0.53040164142E+03  0.58115747839E+03  0.12500000000E+03 0.  0.
         25    1    1    2    0    0 -0.10765352523E+03  0.23604689924E+02  0.15560999602E+03  0.22800424063E+03  0.12500000000E+03 0.  0.
         25    1    1    2    0    0  0.91916908109E+02  0.17775437331E+03  0.90984588582E+03  0.93994141901E+03  0.12500000000E+03 0.  0.
</event>
<event>
 5    0  0.5705185E-005  0.3114945E+03  0.7546771E-02  0.1079632E+00
         21   -1    0    0  502  501  0.00000000000E+00  0.00000000000E+00  0.90266355704E+02  0.90266355704E+02  0.00000000000E+00 0.  1.
         21   -1    0    0  501  502 -0.00000000000E+00 -0.00000000000E+00 -0.10749170331E+04  0.10749170331E+04  0.00000000000E+00 0.  1.
         25    1    1    2    0    0 -0.11697646675E+03  0.26670026809E+02 -0.66421068557E+03  0.68643690091E+03  0.12500000000E+03 0.  0.
         25    1    1    2    0    0 -0.38675890861E+02 -0.10819154494E+02 -0.21629681685E+03  0.25302606905E+03  0.12500000000E+03 0.  0.
         25    1    1    2    0    0  0.15565235761E+03 -0.15850872316E+02 -0.10414317494E+03  0.22572041881E+03  0.12500000000E+03 0.  0.
</event>
<event>
 5    0  0.5705185E-005  0.2741077E+03  0.7546771E-02  0.1098951E+00
         21   -1    0    0  502  501  0.00000000000E+00  0.00000000000E+00  0.76050384743E+02  0.76050384743E+02  0.00000000000E+00 0.  1.
         21   -1    0    0  501  502 -0.00000000000E+00 -0.00000000000E+00 -0.98796420478E+03  0.98796420478E+03  0.00000000000E+00 0.  1.
         25    1    1    2    0    0  0.17825246087E+02  0.64926531074E+02 -0.35734629078E+03  0.38451861512E+03  0.12500000000E+03 0.  0.
         25    1    1    2    0    0 -0.81497836632E+02 -0.15148812187E+03 -0.21692046763E+03  0.30375983559E+03  0.12500000000E+03 0.  0.
         25    1    1    2    0    0  0.63672590545E+02  0.86561590793E+02 -0.33764706162E+03  0.37573613881E+03  0.12500000000E+03 0.  0.
</event>
<event>
 5    0  0.5705185E-005  0.2551045E+03  0.7546771E-02  0.1110121E+00
         21   -1    0    0  502  501  0.00000000000E+00  0.00000000000E+00  0.11023990926E+04  0.11023990926E+04  0.00000000000E+00 0.  1.
         21   -1    0    0  501  502 -0.00000000000E+00 -0.00000000000E+00 -0.59033354863E+02  0.59033354863E+02  0.00000000000E+00 0.  1.
         25    1    1    2    0    0  0.19197710868E+01  0.96670477227E+01  0.22865483716E+03  0.26077801267E+03  0.12500000000E+03 0.  0.
         25    1    1    2    0    0  0.81104240973E+02  0.79786742713E+02  0.20129739418E+03  0.26284874570E+03  0.12500000000E+03 0.  0.
         25    1    1    2    0    0 -0.83024012060E+02 -0.89453790436E+02  0.61341350637E+03  0.63780568906E+03  0.12500000000E+03 0.  0.
</event>
<event>
 5    0  0.5705185E-005  0.3376671E+03  0.7546771E-02  0.1067794E+00
         21   -1    0    0  502  501  0.00000000000E+00  0.00000000000E+00  0.80262940409E+02  0.80262940409E+02  0.00000000000E+00 0. -1.
         21   -1    0    0  501  502 -0.00000000000E+00 -0.00000000000E+00 -0.14205691054E+04  0.14205691054E+04  0.00000000000E+00 0. -1.
         25    1    1    2    0    0 -0.17659808168E+02  0.19113466225E+03 -0.64892821814E+03  0.68816942699E+03  0.12500000000E+03 0.  0.
         25    1    1    2    0    0  0.63299467418E+02 -0.12265021469E+03 -0.11887456705E+03  0.22092093706E+03  0.12500000000E+03 0.  0.
         25    1    1    2    0    0 -0.45639659250E+02 -0.68484447560E+02 -0.57250337979E+03  0.59174168176E+03  0.12500000000E+03 0.  0.
</event>
<event>
 5    0  0.5705185E-005  0.2446631E+03  0.7546771E-02  0.1116725E+00
         21   -1    0    0  502  501  0.00000000000E+00  0.00000000000E+00  0.15054426143E+03  0.15054426143E+03  0.00000000000E+00 0. -1.
         21   -1    0    0  501  502 -0.00000000000E+00 -0.00000000000E+00 -0.39762419317E+03  0.39762419317E+03  0.00000000000E+00 0. -1.
         25    1    1    2    0    0 -0.42938638107E+02  0.32411615400E+02 -0.12776025567E+03  0.18665991103E+03  0.12500000000E+03 0.  0.
         25    1    1    2    0    0  0.92903454060E+02  0.67179455426E+02 -0.31816584528E+02  0.17257295865E+03  0.12500000000E+03 0.  0.
         25    1    1    2    0    0 -0.49964815953E+02 -0.99591070825E+02 -0.87503091529E+02  0.18893558492E+03  0.12500000000E+03 0.  0.
</event>
<event>
 5    0  0.5705185E-005  0.2245070E+03  0.7546771E-02  0.1130567E+00
         21   -1    0    0  502  501  0.00000000000E+00  0.00000000000E+00  0.20085260647E+03  0.20085260647E+03  0.00000000000E+00 0. -1.
         21   -1    0    0  501  502 -0.00000000000E+00 -0.00000000000E+00 -0.25094722906E+03  0.25094722906E+03  0.00000000000E+00 0. -1.
         25    1    1    2    0    0  0.73235501560E+02  0.57636711993E+02 -0.74681841377E+02  0.17288090320E+03  0.12500000000E+03 0.  0.
         25    1    1    2    0    0 -0.36799417025E+02 -0.27141738440E+02  0.51131390760E+02  0.14258432656E+03  0.12500000000E+03 0.  0.
         25    1    1    2    0    0 -0.36436084535E+02 -0.30494973553E+02 -0.26544171974E+02  0.13633460578E+03  0.12500000000E+03 0.  0.
</event>
<event>
 5    0  0.5705185E-005  0.2173880E+03  0.7546771E-02  0.1135846E+00
         21   -1    0    0  502  501  0.00000000000E+00  0.00000000000E+00  0.48999665293E+02  0.48999665293E+02  0.00000000000E+00 0.  1.
         21   -1    0    0  501  502 -0.00000000000E+00 -0.00000000000E+00 -0.96444623802E+03  0.96444623802E+03  0.00000000000E+00 0.  1.
         25    1    1    2    0    0 -0.95514475028E+01  0.69275324070E+02 -0.29046585891E+03  0.32386064266E+03  0.12500000000E+03 0.  0.
         25    1    1    2    0    0 -0.53129932639E+02 -0.76970823554E+01 -0.24891063211E+03  0.28366095536E+03  0.12500000000E+03 0.  0.
         25    1    1    2    0    0  0.62681380141E+02 -0.61578241714E+02 -0.37607008170E+03  0.40592430528E+03  0.12500000000E+03 0.  0.
</event>
<event>
 5    0  0.5705185E-005  0.3019236E+03  0.7546771E-02  0.1084283E+00
         21   -1    0    0  502  501  0.00000000000E+00  0.00000000000E+00  0.12453323046E+03  0.12453323046E+03  0.00000000000E+00 0.  1.
         21   -1    0    0  501  502 -0.00000000000E+00 -0.00000000000E+00 -0.73199608663E+03  0.73199608663E+03  0.00000000000E+00 0.  1.
         25    1    1    2    0    0 -0.12518296820E+03  0.10231353593E+03 -0.82553714984E+02  0.22040633162E+03  0.12500000000E+03 0.  0.
         25    1    1    2    0    0  0.89336649893E+02  0.43002389675E+02 -0.28838427237E+03  0.32957659365E+03  0.12500000000E+03 0.  0.
         25    1    1    2    0    0  0.35846318304E+02 -0.14531592560E+03 -0.23652486882E+03  0.30654639182E+03  0.12500000000E+03 0.  0.
</event>
<event>
 5    0  0.5705185E-005  0.2742188E+03  0.7546771E-02  0.1098889E+00
         21   -1    0    0  502  501  0.00000000000E+00  0.00000000000E+00  0.11041319747E+03  0.11041319747E+03  0.00000000000E+00 0. -1.
         21   -1    0    0  501  502 -0.00000000000E+00 -0.00000000000E+00 -0.68104122334E+03  0.68104122334E+03  0.00000000000E+00 0. -1.
         25    1    1    2    0    0 -0.33404353807E+02 -0.31178760761E+01 -0.45722861096E+02  0.13726307599E+03  0.12500000000E+03 0.  0.
         25    1    1    2    0    0  0.52999460519E+02  0.79725613411E+02 -0.63696263858E+02  0.16984501841E+03  0.12500000000E+03 0.  0.
         25    1    1    2    0    0 -0.19595106712E+02 -0.76607737335E+02 -0.46120890091E+03  0.48434632641E+03  0.12500000000E+03 0.  0.
</event>
<event>
 5    0  0.5705185E-005  0.3086442E+03  0.7546771E-02  0.1080998E+00
         21   -1    0    0  502  501  0.00000000000E+00  0.00000000000E+00  0.12301023243E+04  0.12301023243E+04  0.00000000000E+00 0. -1.
         21   -1    0    0  501  502 -0.00000000000E+00 -0.00000000000E+00 -0.77441703409E+02  0.77441703409E+02  0.00000000000E+00 0. -1.
         25    1    1    2    0    0  0.98597000169E+02  0.10971971167E+03  0.73402050714E+03  0.75905921276E+03  0.12500000000E+03 0.  0.
         25    1    1    2    0    0 -0.87614300206E+02  0.22576914238E+02  0.27895415638E+03  0.31878896470E+03  0.12500000000E+03 0.  0.
         25    1    1    2    0    0 -0.10982699963E+02 -0.13229662591E+03  0.13968595733E+03  0.22969585021E+03  0.12500000000E+03 0.  0.
</event>
<event>
 5    0  0.6254338E-005  0.3109363E+03  0.7546771E-02  0.1079898E+00
         21   -1    0    0  502  501  0.00000000000E+00  0.00000000000E+00  0.46933511261E+03  0.46933511261E+03  0.00000000000E+00 0. -1.
         21   -1    0    0  501  502 -0.00000000000E+00 -0.00000000000E+00 -0.20599646064E+03  0.20599646064E+03  0.00000000000E+00 0. -1.
         25    1    1    2    0    0 -0.71412144825E+02  0.45353036634E+02 -0.15527869653E+01  0.15094370973E+03  0.12500000000E+03 0.  0.
         25    1    1    2    0    0  0.10091724676E+03 -0.19021864161E+03  0.93946713128E+02  0.26611728094E+03  0.12500000000E+03 0.  0.
         25    1    1    2    0    0 -0.29505101935E+02  0.14486560497E+03  0.17094472581E+03  0.25827058258E+03  0.12500000000E+03 0.  0.
</event>
<event>
 5    0  0.5705185E-005  0.2302671E+03  0.7546771E-02  0.1126452E+00
         21   -1    0    0  502  501  0.00000000000E+00  0.00000000000E+00  0.11096365686E+03  0.11096365686E+03  0.00000000000E+00 0. -1.
         21   -1    0    0  501  502 -0.00000000000E+00 -0.00000000000E+00 -0.47784063769E+03  0.47784063769E+03  0.00000000000E+00 0. -1.
         25    1    1    2    0    0  0.39605585180E+02  0.87631942514E+02 -0.12789810942E+03  0.20305389954E+03  0.12500000000E+03 0.  0.
         25    1    1    2    0    0  0.10734386017E+01 -0.11253885494E+03 -0.14709350151E+03  0.22344494697E+03  0.12500000000E+03 0.  0.
         25    1    1    2    0    0 -0.40679023782E+02  0.24906912422E+02 -0.91885369898E+02  0.16230544804E+03  0.12500000000E+03 0.  0.
</event>
<event>
 5    0  0.5705185E-005  0.2274693E+03  0.7546771E-02  0.1128434E+00
         21   -1    0    0  502  501  0.00000000000E+00  0.00000000000E+00  0.15157353880E+03  0.15157353880E+03  0.00000000000E+00 0. -1.
         21   -1    0    0  501  502 -0.00000000000E+00 -0.00000000000E+00 -0.34136750657E+03  0.34136750657E+03  0.00000000000E+00 0. -1.
         25    1    1    2    0    0 -0.70246903313E+02 -0.77802339885E+01 -0.16651539803E+03  0.21988073414E+03  0.12500000000E+03 0.  0.
         25    1    1    2    0    0  0.54744669173E+02  0.39690829808E+02 -0.10881037967E+02  0.14253328650E+03  0.12500000000E+03 0.  0.
         25    1    1    2    0    0  0.15502234140E+02 -0.31910595819E+02 -0.12397531773E+02  0.13052702472E+03  0.12500000000E+03 0.  0.
</event>
<event>
 5    0  0.5705185E-005  0.2140883E+03  0.7546771E-02  0.1138369E+00
         21   -1    0    0  502  501  0.00000000000E+00  0.00000000000E+00  0.19198266926E+03  0.19198266926E+03  0.00000000000E+00 0.  1.
         21   -1    0    0  501  502 -0.00000000000E+00 -0.00000000000E+00 -0.23873927912E+03  0.23873927912E+03  0.00000000000E+00 0.  1.
         25    1    1    2    0    0  0.22356244394E+02 -0.53310901874E+02  0.17532599759E+02  0.13883171819E+03  0.12500000000E+03 0.  0.
         25    1    1    2    0    0 -0.12275152524E+02 -0.31163762660E+02 -0.54351895715E+02  0.14036020818E+03  0.12500000000E+03 0.  0.
         25    1    1    2    0    0 -0.10081091870E+02  0.84474664534E+02 -0.99373138963E+01  0.15153002201E+03  0.12500000000E+03 0.  0.
</event>
<event>
 5    0  0.5705185E-005  0.2966934E+03  0.7546771E-02  0.1086905E+00
         21   -1    0    0  502  501  0.00000000000E+00  0.00000000000E+00  0.91543431611E+03  0.91543431611E+03  0.00000000000E+00 0. -1.
         21   -1    0    0  501  502 -0.00000000000E+00 -0.00000000000E+00 -0.96158701335E+02  0.96158701335E+02  0.00000000000E+00 0. -1.
         25    1    1    2    0    0  0.46849087376E+02 -0.17161829827E+02  0.24033166233E+03  0.27545176222E+03  0.12500000000E+03 0.  0.
         25    1    1    2    0    0 -0.66948158467E+02  0.18125914785E+03  0.40385774919E+03  0.46482579122E+03  0.12500000000E+03 0.  0.
         25    1    1    2    0    0  0.20099071090E+02 -0.16409731802E+03  0.17508620325E+03  0.27131546401E+03  0.12500000000E+03 0.  0.
</event>
<event>
 5    0  0.5705185E-005  0.2668807E+03  0.7546771E-02  0.1103078E+00
         21   -1    0    0  502  501  0.00000000000E+00  0.00000000000E+00  0.17558107712E+03  0.17558107712E+03  0.00000000000E+00 0. -1.
         21   -1    0    0  501  502 -0.00000000000E+00 -0.00000000000E+00 -0.40565466501E+03  0.40565466501E+03  0.00000000000E+00 0. -1.
         25    1    1    2    0    0 -0.16686326137E+02 -0.11122613022E+02  0.67508496153E+02  0.14347314401E+03  0.12500000000E+03 0.  0.
         25    1    1    2    0    0 -0.68495415866E+02 -0.32865516834E+02 -0.73108560555E+02  0.16352866971E+03  0.12500000000E+03 0.  0.
         25    1    1    2    0    0  0.85181742004E+02  0.43988129856E+02 -0.22447352349E+03  0.27423392840E+03  0.12500000000E+03 0.  0.
</event>
<event>
 5    0  0.5705185E-005  0.2166223E+03  0.7546771E-02  0.1136427E+00
         21   -1    0    0  502  501  0.00000000000E+00  0.00000000000E+00  0.17312150548E+03  0.17312150548E+03  0.00000000000E+00 0.  1.
         21   -1    0    0  501  502 -0.00000000000E+00 -0.00000000000E+00 -0.27105365767E+03  0.27105365767E+03  0.00000000000E+00 0.  1.
         25    1    1    2    0    0 -0.22263457132E+02  0.64229195456E+02 -0.19336134593E+02  0.14359643858E+03  0.12500000000E+03 0.  0.
         25    1    1    2    0    0  0.58858613589E+02 -0.67446880816E+02 -0.72932512150E+02  0.17016923768E+03  0.12500000000E+03 0.  0.
         25    1    1    2    0    0 -0.36595156457E+02  0.32176853601E+01 -0.56635054502E+01  0.13040948688E+03  0.12500000000E+03 0.  0.
</event>
<event>
 5    0  0.6292568E-005  0.2890815E+03  0.7546771E-02  0.1090830E+00
         21   -1    0    0  502  501  0.00000000000E+00  0.00000000000E+00  0.56865585893E+03  0.56865585893E+03  0.00000000000E+00 0. -1.
         21   -1    0    0  501  502 -0.00000000000E+00 -0.00000000000E+00 -0.14695725068E+03  0.14695725068E+03  0.00000000000E+00 0. -1.
         25    1    1    2    0    0  0.33893988705E+02 -0.28962341984E+02 -0.92453457784E+01  0.13303419163E+03  0.12500000000E+03 0.  0.
         25    1    1    2    0    0 -0.12145346983E+03 -0.80458337541E+02  0.29001601914E+03  0.34779128910E+03  0.12500000000E+03 0.  0.
         25    1    1    2    0    0  0.87559481125E+02  0.10942067953E+03  0.14092793489E+03  0.23478762888E+03  0.12500000000E+03 0.  0.
</event>
<event>
 5    0  0.5705185E-005  0.3993028E+03  0.7546771E-02  0.1044021E+00
         21   -1    0    0  502  501  0.00000000000E+00  0.00000000000E+00  0.61807613685E+03  0.61807613685E+03  0.00000000000E+00 0. -1.
         21   -1    0    0  501  502 -0.00000000000E+00 -0.00000000000E+00 -0.25796618116E+03  0.25796618116E+03  0.00000000000E+00 0. -1.
         25    1    1    2    0    0  0.76608665652E+02  0.90710852751E+01  0.48980447895E+01  0.14696993939E+03  0.12500000000E+03 0.  0.
         25    1    1    2    0    0 -0.50502380064E+02 -0.26968039103E+03  0.31508501493E+03  0.43609812007E+03  0.12500000000E+03 0.  0.
         25    1    1    2    0    0 -0.26106285588E+02  0.26060930576E+03  0.40126895972E+02  0.29297425855E+03  0.12500000000E+03 0.  0.
</event>
<event>
 5    0  0.5705185E-005  0.3860376E+03  0.7546771E-02  0.1048725E+00
         21   -1    0    0  502  501  0.00000000000E+00  0.00000000000E+00  0.13830451009E+04  0.13830451009E+04  0.00000000000E+00 0. -1.
         21   -1    0    0  501  502 -0.00000000000E+00 -0.00000000000E+00 -0.10775140606E+03  0.10775140606E+03  0.00000000000E+00 0. -1.
         25    1    1    2    0    0 -0.10304245538E+03 -0.10065465701E+03  0.84812427279E+02  0.20872770638E+03  0.12500000000E+03 0.  0.
         25    1    1    2    0    0  0.50745462790E+02 -0.76605868416E+02  0.14267779334E+03  0.21077360789E+03  0.12500000000E+03 0.  0.
         25    1    1    2    0    0  0.52296992594E+02  0.17726052543E+03  0.10478034742E+04  0.10712951927E+04  0.12500000000E+03 0.  0.
</event>
<event>
 5    0  0.5705185E-005  0.3021059E+03  0.7546771E-02  0.1084193E+00
         21   -1    0    0  502  501  0.00000000000E+00  0.00000000000E+00  0.28900670537E+03  0.28900670537E+03  0.00000000000E+00 0.  1.
         21   -1    0    0  501  502 -0.00000000000E+00 -0.00000000000E+00 -0.31579876444E+03  0.31579876444E+03  0.00000000000E+00 0.  1.
         25    1    1    2    0    0 -0.16967982216E+03  0.47587517574E+02  0.84360500726E+02  0.23194289806E+03  0.12500000000E+03 0.  0.
         25    1    1    2    0    0  0.11779734750E+03 -0.90181325748E+02 -0.22579127716E+01  0.19400769253E+03  0.12500000000E+03 0.  0.
         25    1    1    2    0    0  0.51882474659E+02  0.42593808174E+02 -0.10889464703E+03  0.17885487923E+03  0.12500000000E+03 0.  0.
</event>
<event>
 5    0  0.5705185E-005  0.3620767E+03  0.7546771E-02  0.1057765E+00
         21   -1    0    0  502  501  0.00000000000E+00  0.00000000000E+00  0.19075153629E+03  0.19075153629E+03  0.00000000000E+00 0. -1.
         21   -1    0    0  501  502 -0.00000000000E+00 -0.00000000000E+00 -0.68727901471E+03  0.68727901471E+03  0.00000000000E+00 0. -1.
         25    1    1    2    0    0 -0.50458826299E+02  0.76907853813E+02 -0.46904942709E+03  0.49405796845E+03  0.12500000000E+03 0.  0.
         25    1    1    2    0    0  0.23398469820E+02  0.47009702152E+02  0.96993013524E+02  0.16670346475E+03  0.12500000000E+03 0.  0.
         25    1    1    2    0    0  0.27060356480E+02 -0.12391755597E+03 -0.12447106485E+03  0.21726911781E+03  0.12500000000E+03 0.  0.
</event>
<event>
 5    0  0.5705185E-005  0.4644876E+03  0.7546771E-02  0.1023488E+00
         21   -1    0    0  502  501  0.00000000000E+00  0.00000000000E+00  0.20368389646E+03  0.20368389646E+03  0.00000000000E+00 0.  1.
         21   -1    0    0  501  502 -0.00000000000E+00 -0.00000000000E+00 -0.10592330367E+04  0.10592330367E+04  0.00000000000E+00 0.  1.
         25    1    1    2    0    0  0.89539908581E+02  0.42214968315E+01  0.37121389282E+02  0.15823467953E+03  0.12500000000E+03 0.  0.
         25    1    1    2    0    0 -0.18306772957E+03 -0.22742445816E+02 -0.91869248389E+03  0.94533163091E+03  0.12500000000E+03 0.  0.
         25    1    1    2    0    0  0.93527820987E+02  0.18520948985E+02  0.26021954361E+02  0.15935062271E+03  0.12500000000E+03 0.  0.
</event>
<event>
 5    0  0.5705185E-005  0.3323081E+03  0.7546771E-02  0.1070120E+00
         21   -1    0    0  502  501  0.00000000000E+00  0.00000000000E+00  0.45966382015E+03  0.45966382015E+03  0.00000000000E+00 0.  1.
         21   -1    0    0  501  502 -0.00000000000E+00 -0.00000000000E+00 -0.24023793317E+03  0.24023793317E+03  0.00000000000E+00 0.  1.
         25    1    1    2    0    0  0.66926720562E+02  0.13841710190E+03  0.49705285737E+01  0.19821247735E+03  0.12500000000E+03 0.  0.
         25    1    1    2    0    0 -0.19480375794E+03 -0.97450484073E+02  0.51612775685E+02  0.25638638725E+03  0.12500000000E+03 0.  0.
         25    1    1    2    0    0  0.12787703737E+03 -0.40966617830E+02  0.16284258273E+03  0.24530288872E+03  0.12500000000E+03 0.  0.
</event>
<event>
 5    0  0.5705185E-005  0.3460973E+03  0.7546771E-02  0.1064228E+00
         21   -1    0    0  502  501  0.00000000000E+00  0.00000000000E+00  0.80572851539E+02  0.80572851539E+02  0.00000000000E+00 0.  1.
         21   -1    0    0  501  502 -0.00000000000E+00 -0.00000000000E+00 -0.14866468263E+04  0.14866468263E+04  0.00000000000E+00 0.  1.
         25    1    1    2    0    0 -0.62406642658E+02 -0.79371939344E+02 -0.59600835965E+03  0.61728879674E+03  0.12500000000E+03 0.  0.
         25    1    1    2    0    0  0.77309760863E+02  0.24355402382E+03 -0.53280775654E+03  0.60399045280E+03  0.12500000000E+03 0.  0.
         25    1    1    2    0    0 -0.14903118205E+02 -0.16418208447E+03 -0.27725785856E+03  0.34594042829E+03  0.12500000000E+03 0.  0.
</event>
<event>
 5    0  0.5705185E-005  0.2868633E+03  0.7546771E-02  0.1091998E+00
         21   -1    0    0  502  501  0.00000000000E+00  0.00000000000E+00  0.36336298367E+03  0.36336298367E+03  0.00000000000E+00 0. -1.
         21   -1    0    0  501  502 -0.00000000000E+00 -0.00000000000E+00 -0.22646932578E+03  0.22646932578E+03  0.00000000000E+00 0. -1.
         25    1    1    2    0    0 -0.13957187241E+03  0.91764391787E+02  0.11413687104E+03  0.23780924393E+03  0.12500000000E+03 0.  0.
         25    1    1    2    0    0  0.24818347141E+02 -0.72938737440E+02  0.85754557405E+02  0.17004368230E+03  0.12500000000E+03 0.  0.
         25    1    1    2    0    0  0.11475352527E+03 -0.18825654347E+02 -0.62997770550E+02  0.18197938322E+03  0.12500000000E+03 0.  0.
</event>
<event>
 5    0  0.5705185E-005  0.2548962E+03  0.7546771E-02  0.1110249E+00
         21   -1    0    0  502  501  0.00000000000E+00  0.00000000000E+00  0.25983705484E+03  0.25983705484E+03  0.00000000000E+00 0. -1.
         21   -1    0    0  501  502 -0.00000000000E+00 -0.00000000000E+00 -0.25004926474E+03  0.25004926474E+03  0.00000000000E+00 0. -1.
         25    1    1    2    0    0 -0.41037153651E+02  0.46876193375E+02  0.12569464608E+03  0.18789776353E+03  0.12500000000E+03 0.  0.
         25    1    1    2    0    0  0.40136367812E+02  0.47729171856E+02 -0.80661620568E+02  0.16130808690E+03  0.12500000000E+03 0.  0.
         25    1    1    2    0    0  0.90078583903E+00 -0.94605365230E+02 -0.35245235411E+02  0.16068046915E+03  0.12500000000E+03 0.  0.
</event>
<event>
 5    0  0.5705185E-005  0.3455806E+03  0.7546771E-02  0.1064444E+00
         21   -1    0    0  502  501  0.00000000000E+00  0.00000000000E+00  0.11863274477E+04  0.11863274477E+04  0.00000000000E+00 0. -1.
         21   -1    0    0  501  502 -0.00000000000E+00 -0.00000000000E+00 -0.10066861686E+03  0.10066861686E+03  0.00000000000E+00 0. -1.
         25    1    1    2    0    0 -0.14360557121E+03  0.76076777957E+02  0.38482385555E+03  0.43603283824E+03  0.12500000000E+03 0.  0.
         25    1    1    2    0    0  0.30865444228E+02 -0.11679665868E+03  0.55028739212E+02  0.18233841412E+03  0.12500000000E+03 0.  0.
         25    1    1    2    0    0  0.11274012699E+03  0.40719880718E+02  0.64580623613E+03  0.66862481224E+03  0.12500000000E+03 0.  0.
</event>
<event>
 5    0  0.5705185E-005  0.2562421E+03  0.7546771E-02  0.1109422E+00
         21   -1    0    0  502  501  0.00000000000E+00  0.00000000000E+00  0.45392145724E+03  0.45392145724E+03  0.00000000000E+00 0. -1.
         21   -1    0    0  501  502 -0.00000000000E+00 -0.00000000000E+00 -0.14465055543E+03  0.14465055543E+03  0.00000000000E+00 0. -1.
         25    1    1    2    0    0  0.39395365925E+02  0.95328192257E+02  0.21820498063E+03  0.27180484298E+03  0.12500000000E+03 0.  0.
         25    1    1    2    0    0 -0.34516699998E+02 -0.12526881512E+03  0.81255291996E+02  0.19776526767E+03  0.12500000000E+03 0.  0.
         25    1    1    2    0    0 -0.48786659270E+01  0.29940622861E+02  0.98106291884E+01  0.12900190202E+03  0.12500000000E+03 0.  0.
</event>
<event>
 5    0  0.5705185E-005  0.4805941E+03  0.7546771E-02  0.1018972E+00
         21   -1    0    0  502  501  0.00000000000E+00  0.00000000000E+00  0.26189499984E+03  0.26189499984E+03  0.00000000000E+00 0. -1.
         21   -1    0    0  501  502 -0.00000000000E+00 -0.00000000000E+00 -0.88192104446E+03  0.88192104446E+03  0.00000000000E+00 0. -1.
         25    1    1    2    0    0  0.64662511798E+02 -0.40969186875E+02 -0.11270412810E+03  0.18489709353E+03  0.12500000000E+03 0.  0.
         25    1    1    2    0    0  0.13816765514E+03  0.22438870650E+03  0.77105350377E+02  0.30168000860E+03  0.12500000000E+03 0.  0.
         25    1    1    2    0    0 -0.20283016694E+03 -0.18341951963E+03 -0.58442726690E+03  0.65723894216E+03  0.12500000000E+03 0.  0.
</event>
<event>
 5    0  0.5705185E-005  0.3340726E+03  0.7546771E-02  0.1069349E+00
         21   -1    0    0  502  501  0.00000000000E+00  0.00000000000E+00  0.16003392448E+03  0.16003392448E+03  0.00000000000E+00 0.  1.
         21   -1    0    0  501  502 -0.00000000000E+00 -0.00000000000E+00 -0.69738026220E+03  0.69738026220E+03  0.00000000000E+00 0.  1.
         25    1    1    2    0    0  0.15055183763E+03 -0.15303947389E+03 -0.82597444313E+02  0.26179051585E+03  0.12500000000E+03 0.  0.
         25    1    1    2    0    0 -0.14988289217E+03  0.16961838438E+03 -0.30558263390E+03  0.40030116640E+03  0.12500000000E+03 0.  0.
         25    1    1    2    0    0 -0.66894546396E+00 -0.16578910490E+02 -0.14916625951E+03  0.19532250443E+03  0.12500000000E+03 0.  0.
</event>
<event>
 5    0  0.5705185E-005  0.2811008E+03  0.7546771E-02  0.1095089E+00
         21   -1    0    0  502  501  0.00000000000E+00  0.00000000000E+00  0.33594974044E+03  0.33594974044E+03  0.00000000000E+00 0.  1.
         21   -1    0    0  501  502 -0.00000000000E+00 -0.00000000000E+00 -0.23520685870E+03  0.23520685870E+03  0.00000000000E+00 0.  1.
         25    1    1    2    0    0  0.10346815851E+03  0.11839368767E+02  0.19219466421E+03  0.25181266733E+03  0.12500000000E+03 0.  0.
         25    1    1    2    0    0 -0.89387559082E+02 -0.52980773280E+02 -0.92434719554E+02  0.18699271492E+03  0.12500000000E+03 0.  0.
         25    1    1    2    0    0 -0.14080599428E+02  0.41141404514E+02  0.98293707878E+00  0.13235121688E+03  0.12500000000E+03 0.  0.
</event>
<event>
 5    0  0.6181226E-005  0.2678080E+03  0.7546771E-02  0.1102541E+00
         21   -1    0    0  502  501  0.00000000000E+00  0.00000000000E+00  0.23160227598E+03  0.23160227598E+03  0.00000000000E+00 0.  1.
         21   -1    0    0  501  502 -0.00000000000E+00 -0.00000000000E+00 -0.30967371614E+03  0.30967371614E+03  0.00000000000E+00 0.  1.
         25    1    1    2    0    0  0.21442285196E+02 -0.11731663783E+03  0.21953493806E+02  0.17415487647E+03  0.12500000000E+03 0.  0.
         25    1    1    2    0    0  0.21774716839E+02 -0.47357021927E+02 -0.73950844575E+02  0.15430668564E+03  0.12500000000E+03 0.  0.
         25    1    1    2    0    0 -0.43217002035E+02  0.16467365976E+03 -0.26074089392E+02  0.21281443001E+03  0.12500000000E+03 0.  0.
</event>
<event>
 5    0  0.5705185E-005  0.2309979E+03  0.7546771E-02  0.1125939E+00
         21   -1    0    0  502  501  0.00000000000E+00  0.00000000000E+00  0.34698170127E+04  0.34698170127E+04  0.00000000000E+00 0. -1.
         21   -1    0    0  501  502 -0.00000000000E+00 -0.00000000000E+00 -0.15378347159E+02  0.15378347159E+02  0.00000000000E+00 0. -1.
         25    1    1    2    0    0 -0.92881820182E+02 -0.45439403756E+02  0.99437897338E+03  0.10075248457E+04  0.12500000000E+03 0.  0.
         25    1    1    2    0    0  0.51908853460E+02  0.46517066304E+02  0.17254459408E+04  0.17313714393E+04  0.12500000000E+03 0.  0.
         25    1    1    2    0    0  0.40972966722E+02 -0.10776625474E+01  0.73461375136E+03  0.74629907480E+03  0.12500000000E+03 0.  0.
</event>
<event>
 5    0  0.5705185E-005  0.3351495E+03  0.7546771E-02  0.1068881E+00
         21   -1    0    0  502  501  0.00000000000E+00  0.00000000000E+00  0.12650984062E+03  0.12650984062E+03  0.00000000000E+00 0.  1.
         21   -1    0    0  501  502 -0.00000000000E+00 -0.00000000000E+00 -0.88787683620E+03  0.88787683620E+03  0.00000000000E+00 0.  1.
         25    1    1    2    0    0  0.11535848363E+03 -0.10883444765E+02 -0.29082233827E+03  0.33708850700E+03  0.12500000000E+03 0.  0.
         25    1    1    2    0    0  0.10624052757E+03 -0.10237593774E+01 -0.36766264549E+03  0.40260268090E+03  0.12500000000E+03 0.  0.
         25    1    1    2    0    0 -0.22159901120E+03  0.11907204142E+02 -0.10288201181E+03  0.27469548891E+03  0.12500000000E+03 0.  0.
</event>
<event>
 5    0  0.6909190E-005  0.3730921E+03  0.7546771E-02  0.1053517E+00
         21   -1    0    0  502  501  0.00000000000E+00  0.00000000000E+00  0.44480696933E+03  0.44480696933E+03  0.00000000000E+00 0. -1.
         21   -1    0    0  501  502 -0.00000000000E+00 -0.00000000000E+00 -0.31293962869E+03  0.31293962869E+03  0.00000000000E+00 0. -1.
         25    1    1    2    0    0  0.96932068422E+02 -0.90412522384E+02 -0.78695308361E+02  0.19846461057E+03  0.12500000000E+03 0.  0.
         25    1    1    2    0    0 -0.61960136017E+02 -0.11687234710E+03  0.25238434868E+03  0.31116083209E+03  0.12500000000E+03 0.  0.
         25    1    1    2    0    0 -0.34971932405E+02  0.20728486948E+03 -0.41821699668E+02  0.24812115536E+03  0.12500000000E+03 0.  0.
</event>
<event>
 5    0  0.5705185E-005  0.2948747E+03  0.7546771E-02  0.1087831E+00
         21   -1    0    0  502  501  0.00000000000E+00  0.00000000000E+00  0.14497941810E+03  0.14497941810E+03  0.00000000000E+00 0.  1.
         21   -1    0    0  501  502 -0.00000000000E+00 -0.00000000000E+00 -0.59974784385E+03  0.59974784385E+03  0.00000000000E+00 0.  1.
         25    1    1    2    0    0 -0.32847195317E+02  0.13199707641E+03 -0.11194232064E+03  0.21600520728E+03  0.12500000000E+03 0.  0.
         25    1    1    2    0    0  0.98962815930E+02 -0.11324683094E+03 -0.33244582529E+03  0.38569898938E+03  0.12500000000E+03 0.  0.
         25    1    1    2    0    0 -0.66115620613E+02 -0.18750245471E+02 -0.10380279818E+02  0.14302306528E+03  0.12500000000E+03 0.  0.
</event>
<event>
 5    0  0.5705185E-005  0.4765576E+03  0.7546771E-02  0.1020086E+00
         21   -1    0    0  502  501  0.00000000000E+00  0.00000000000E+00  0.10053491209E+04  0.10053491209E+04  0.00000000000E+00 0.  1.
         21   -1    0    0  501  502 -0.00000000000E+00 -0.00000000000E+00 -0.22589882382E+03  0.22589882382E+03  0.00000000000E+00 0.  1.
         25    1    1    2    0    0  0.24431054866E+03 -0.27361279118E+03  0.35295337408E+03  0.52416856827E+03  0.12500000000E+03 0.  0.
         25    1    1    2    0    0 -0.19866739215E+03  0.29033404435E+02  0.55001495486E+02  0.24282058352E+03  0.12500000000E+03 0.  0.
         25    1    1    2    0    0 -0.45643156511E+02  0.24457938675E+03  0.37149542752E+03  0.46425879294E+03  0.12500000000E+03 0.  0.
</event>
<event>
 5    0  0.5705185E-005  0.2380149E+03  0.7546771E-02  0.1121122E+00
         21   -1    0    0  502  501  0.00000000000E+00  0.00000000000E+00  0.86033911651E+02  0.86033911651E+02  0.00000000000E+00 0. -1.
         21   -1    0    0  501  502 -0.00000000000E+00 -0.00000000000E+00 -0.65847376484E+03  0.65847376484E+03  0.00000000000E+00 0. -1.
         25    1    1    2    0    0 -0.28040235830E+02  0.27299416287E+02 -0.17085772919E+03  0.21528789232E+03  0.12500000000E+03 0.  0.
         25    1    1    2    0    0  0.53465760444E+01  0.85989852999E+02 -0.96574998520E+02  0.17992935012E+03  0.12500000000E+03 0.  0.
         25    1    1    2    0    0  0.22693659786E+02 -0.11328926929E+03 -0.30500712548E+03  0.34929043406E+03  0.12500000000E+03 0.  0.
</event>
<event>
 5    0  0.5705185E-005  0.2420230E+03  0.7546771E-02  0.1118452E+00
         21   -1    0    0  502  501  0.00000000000E+00  0.00000000000E+00  0.14272241616E+03  0.14272241616E+03  0.00000000000E+00 0.  1.
         21   -1    0    0  501  502 -0.00000000000E+00 -0.00000000000E+00 -0.41041309277E+03  0.41041309277E+03  0.00000000000E+00 0.  1.
         25    1    1    2    0    0 -0.51667617929E+02 -0.54500331073E+02 -0.14632786962E+03  0.20658333490E+03  0.12500000000E+03 0.  0.
         25    1    1    2    0    0  0.73169021823E+02 -0.57035141212E+02 -0.55473099154E+02  0.16525428230E+03  0.12500000000E+03 0.  0.
         25    1    1    2    0    0 -0.21501403895E+02  0.11153547228E+03 -0.65889707833E+02  0.18129789173E+03  0.12500000000E+03 0.  0.
</event>
<event>
 5    0  0.5705185E-005  0.2713475E+03  0.7546771E-02  0.1100511E+00
         21   -1    0    0  502  501  0.00000000000E+00  0.00000000000E+00  0.82669995821E+02  0.82669995821E+02  0.00000000000E+00 0. -1.
         21   -1    0    0  501  502 -0.00000000000E+00 -0.00000000000E+00 -0.89064293363E+03  0.89064293363E+03  0.00000000000E+00 0. -1.
         25    1    1    2    0    0 -0.23208110565E+02  0.34502316856E+02 -0.36519059762E+03  0.38822441816E+03  0.12500000000E+03 0.  0.
         25    1    1    2    0    0 -0.69723825537E+02 -0.12836691034E+03 -0.16655455752E+03  0.25437157103E+03  0.12500000000E+03 0.  0.
         25    1    1    2    0    0  0.92931936102E+02  0.93864593483E+02 -0.27622778267E+03  0.33071694026E+03  0.12500000000E+03 0.  0.
</event>
<event>
 5    0  0.5705185E-005  0.3192600E+03  0.7546771E-02  0.1075990E+00
         21   -1    0    0  502  501  0.00000000000E+00  0.00000000000E+00  0.28566399930E+03  0.28566399930E+03  0.00000000000E+00 0. -1.
         21   -1    0    0  501  502 -0.00000000000E+00 -0.00000000000E+00 -0.35680704947E+03  0.35680704947E+03  0.00000000000E+00 0. -1.
         25    1    1    2    0    0  0.20489886306E+02 -0.35481775283E+02 -0.10445030917E+03  0.16796922011E+03  0.12500000000E+03 0.  0.
         25    1    1    2    0    0 -0.14222577512E+03  0.16823451179E+03  0.41226189132E+01  0.25332393897E+03  0.12500000000E+03 0.  0.
         25    1    1    2    0    0  0.12173588881E+03 -0.13275273651E+03  0.29184640089E+02  0.22117788970E+03  0.12500000000E+03 0.  0.
</event>
<event>
 5    0  0.5705185E-005  0.2178317E+03  0.7546771E-02  0.1135510E+00
         21   -1    0    0  502  501  0.00000000000E+00  0.00000000000E+00  0.45660560497E+02  0.45660560497E+02  0.00000000000E+00 0.  1.
         21   -1    0    0  501  502 -0.00000000000E+00 -0.00000000000E+00 -0.10392038313E+04  0.10392038313E+04  0.00000000000E+00 0.  1.
         25    1    1    2    0    0 -0.69275202964E+02 -0.27039285568E+02 -0.21275795759E+03  0.25772296217E+03  0.12500000000E+03 0.  0.
         25    1    1    2    0    0  0.63597745902E+02  0.17756462910E+02 -0.32530000691E+03  0.35469008973E+03  0.12500000000E+03 0.  0.
         25    1    1    2    0    0  0.56774570612E+01  0.92828226587E+01 -0.45548530636E+03  0.47245133995E+03  0.12500000000E+03 0.  0.
</event>
<event>
 5    0  0.5705185E-005  0.2640911E+03  0.7546771E-02  0.1104710E+00
         21   -1    0    0  502  501  0.00000000000E+00  0.00000000000E+00  0.67855140625E+02  0.67855140625E+02  0.00000000000E+00 0. -1.
         21   -1    0    0  501  502 -0.00000000000E+00 -0.00000000000E+00 -0.10278381017E+04  0.10278381017E+04  0.00000000000E+00 0. -1.
         25    1    1    2    0    0 -0.31429333774E+02 -0.52512682355E+02 -0.18888790687E+03  0.23462528890E+03  0.12500000000E+03 0.  0.
         25    1    1    2    0    0 -0.11837218215E+03  0.67508690803E+02 -0.32461077192E+03  0.37358606784E+03  0.12500000000E+03 0.  0.
         25    1    1    2    0    0  0.14980151592E+03 -0.14996008448E+02 -0.44648428226E+03  0.48748188556E+03  0.12500000000E+03 0.  0.
</event>
<event>
 5    0  0.5705185E-005  0.4423342E+03  0.7546771E-02  0.1030033E+00
         21   -1    0    0  502  501  0.00000000000E+00  0.00000000000E+00  0.34795697759E+03  0.34795697759E+03  0.00000000000E+00 0. -1.
         21   -1    0    0  501  502 -0.00000000000E+00 -0.00000000000E+00 -0.56230955994E+03  0.56230955994E+03  0.00000000000E+00 0. -1.
         25    1    1    2    0    0 -0.31127762602E+03 -0.80353245606E+02 -0.21586656418E+01  0.34493486976E+03  0.12500000000E+03 0.  0.
         25    1    1    2    0    0  0.27548612075E+01 -0.82962406307E+02 -0.33564288137E+02  0.15375926495E+03  0.12500000000E+03 0.  0.
         25    1    1    2    0    0  0.30852276481E+03  0.16331565191E+03 -0.17862962857E+03  0.41157240282E+03  0.12500000000E+03 0.  0.
</event>
<event>
 5    0  0.5705185E-005  0.3331839E+03  0.7546771E-02  0.1069737E+00
         21   -1    0    0  502  501  0.00000000000E+00  0.00000000000E+00  0.10002757191E+04  0.10002757191E+04  0.00000000000E+00 0.  1.
         21   -1    0    0  501  502 -0.00000000000E+00 -0.00000000000E+00 -0.11098092660E+03  0.11098092660E+03  0.00000000000E+00 0.  1.
         25    1    1    2    0    0 -0.23534382690E+03 -0.10769389761E+03  0.39073070926E+03  0.48505688285E+03  0.12500000000E+03 0.  0.
         25    1    1    2    0    0  0.83097728364E+02  0.29855993057E+01  0.14902036067E+03  0.21153300962E+03  0.12500000000E+03 0.  0.
         25    1    1    2    0    0  0.15224609853E+03  0.10470829831E+03  0.34954372253E+03  0.41466675320E+03  0.12500000000E+03 0.  0.
</event>
<event>
 5    0  0.5705185E-005  0.3643912E+03  0.7546771E-02  0.1056859E+00
         21   -1    0    0  502  501  0.00000000000E+00  0.00000000000E+00  0.23758205829E+03  0.23758205829E+03  0.00000000000E+00 0. -1.
         21   -1    0    0  501  502 -0.00000000000E+00 -0.00000000000E+00 -0.55888452243E+03  0.55888452243E+03  0.00000000000E+00 0. -1.
         25    1    1    2    0    0 -0.50044737152E+01 -0.73342001452E+02  0.12701428651E+02  0.14556929698E+03  0.12500000000E+03 0.  0.
         25    1    1    2    0    0  0.13057923516E+03  0.24885139361E+03 -0.15913523083E+03  0.34630474217E+03  0.12500000000E+03 0.  0.
         25    1    1    2    0    0 -0.12557476144E+03 -0.17550939216E+03 -0.17486866196E+03  0.30459254158E+03  0.12500000000E+03 0.  0.
</event>
<event>
 5    0  0.5705185E-005  0.2593615E+03  0.7546771E-02  0.1107527E+00
         21   -1    0    0  502  501  0.00000000000E+00  0.00000000000E+00  0.14995214310E+03  0.14995214310E+03  0.00000000000E+00 0.  1.
         21   -1    0    0  501  502 -0.00000000000E+00 -0.00000000000E+00 -0.44859899107E+03  0.44859899107E+03  0.00000000000E+00 0.  1.
         25    1    1    2    0    0  0.12746669860E+03  0.10611971811E+02 -0.70574613757E+02  0.19226582979E+03  0.12500000000E+03 0.  0.
         25    1    1    2    0    0 -0.54548990517E+02 -0.43753695919E+02 -0.11470240045E+02  0.14368905553E+03  0.12500000000E+03 0.  0.
         25    1    1    2    0    0 -0.72917708083E+02  0.33141724108E+02 -0.21660199417E+03  0.26259624885E+03  0.12500000000E+03 0.  0.
</event>
<event>
 5    0  0.5705185E-005  0.2584786E+03  0.7546771E-02  0.1108061E+00
         21   -1    0    0  502  501  0.00000000000E+00  0.00000000000E+00  0.15401818803E+03  0.15401818803E+03  0.00000000000E+00 0.  1.
         21   -1    0    0  501  502 -0.00000000000E+00 -0.00000000000E+00 -0.43378748752E+03  0.43378748752E+03  0.00000000000E+00 0.  1.
         25    1    1    2    0    0 -0.13398091889E+03  0.53917578208E+02 -0.40037799525E+02  0.19515639179E+03  0.12500000000E+03 0.  0.
         25    1    1    2    0    0  0.36383156172E+02 -0.48072801641E+02 -0.16961039215E+03  0.21915157639E+03  0.12500000000E+03 0.  0.
         25    1    1    2    0    0  0.97597762714E+02 -0.58447765664E+01 -0.70121107815E+02  0.17349770737E+03  0.12500000000E+03 0.  0.
</event>
<event>
 5    0  0.5705185E-005  0.4029234E+03  0.7546771E-02  0.1042772E+00
         21   -1    0    0  502  501  0.00000000000E+00  0.00000000000E+00  0.20039212845E+04  0.20039212845E+04  0.00000000000E+00 0. -1.
         21   -1    0    0  501  502 -0.00000000000E+00 -0.00000000000E+00 -0.81014788348E+02  0.81014788348E+02  0.00000000000E+00 0. -1.
         25    1    1    2    0    0 -0.15747211399E+03  0.74203942017E+02  0.32980964616E+03  0.39332314246E+03  0.12500000000E+03 0.  0.
         25    1    1    2    0    0 -0.76326816300E+02  0.10609183672E+03  0.10111145290E+04  0.10271605772E+04  0.12500000000E+03 0.  0.
         25    1    1    2    0    0  0.23379893029E+03 -0.18029577874E+03  0.58198232097E+03  0.66445235311E+03  0.12500000000E+03 0.  0.
</event>
<event>
 5    0  0.5705185E-005  0.2360565E+03  0.7546771E-02  0.1122448E+00
         21   -1    0    0  502  501  0.00000000000E+00  0.00000000000E+00  0.75112409268E+03  0.75112409268E+03  0.00000000000E+00 0. -1.
         21   -1    0    0  501  502 -0.00000000000E+00 -0.00000000000E+00 -0.74185686983E+02  0.74185686983E+02  0.00000000000E+00 0. -1.
         25    1    1    2    0    0  0.49776446929E+02 -0.26599575926E+02  0.14152483052E+03  0.19707742073E+03  0.12500000000E+03 0.  0.
         25    1    1    2    0    0 -0.57659013733E+01  0.10889165893E+03  0.21217276902E+03  0.26931936974E+03  0.12500000000E+03 0.  0.
         25    1    1    2    0    0 -0.44010545555E+02 -0.82292083007E+02  0.32324080616E+03  0.35891298919E+03  0.12500000000E+03 0.  0.
</event>
<event>
 5    0  0.5705185E-005  0.2685339E+03  0.7546771E-02  0.1102122E+00
         21   -1    0    0  502  501  0.00000000000E+00  0.00000000000E+00  0.22251083380E+03  0.22251083380E+03  0.00000000000E+00 0.  1.
         21   -1    0    0  501  502 -0.00000000000E+00 -0.00000000000E+00 -0.32407626935E+03  0.32407626935E+03  0.00000000000E+00 0.  1.
         25    1    1    2    0    0  0.52809528218E+02 -0.89012586230E+02 -0.53199065836E+02  0.17078415437E+03  0.12500000000E+03 0.  0.
         25    1    1    2    0    0  0.27508734010E+02  0.96752649656E+02 -0.12963580384E+03  0.20627226498E+03  0.12500000000E+03 0.  0.
         25    1    1    2    0    0 -0.80318262228E+02 -0.77400634255E+01  0.81269434120E+02  0.16953068381E+03  0.12500000000E+03 0.  0.
</event>
<event>
 5    0  0.5705185E-005  0.2609792E+03  0.7546771E-02  0.1106556E+00
         21   -1    0    0  502  501  0.00000000000E+00  0.00000000000E+00  0.49326348527E+02  0.49326348527E+02  0.00000000000E+00 0. -1.
         21   -1    0    0  501  502 -0.00000000000E+00 -0.00000000000E+00 -0.13808060393E+04  0.13808060393E+04  0.00000000000E+00 0. -1.
         25    1    1    2    0    0  0.10751001597E+02  0.59636473539E+01 -0.44182359934E+03  0.45933021026E+03  0.12500000000E+03 0.  0.
         25    1    1    2    0    0  0.12738375276E+03 -0.16916419878E+02 -0.27359644940E+03  0.32709754333E+03  0.12500000000E+03 0.  0.
         25    1    1    2    0    0 -0.13813475436E+03  0.10952772524E+02 -0.61605964199E+03  0.64370463419E+03  0.12500000000E+03 0.  0.
</event>
<event>
 5    0  0.5705185E-005  0.2714767E+03  0.7546771E-02  0.1100437E+00
         21   -1    0    0  502  501  0.00000000000E+00  0.00000000000E+00  0.43875498300E+03  0.43875498300E+03  0.00000000000E+00 0. -1.
         21   -1    0    0  501  502 -0.00000000000E+00 -0.00000000000E+00 -0.16797436268E+03  0.16797436268E+03  0.00000000000E+00 0. -1.
         25    1    1    2    0    0  0.59491882979E+01 -0.10297111479E+03 -0.16546510570E+02  0.16290251789E+03  0.12500000000E+03 0.  0.
         25    1    1    2    0    0  0.33609547853E+02  0.15075015625E+03  0.17155376585E+03  0.26250886822E+03  0.12500000000E+03 0.  0.
         25    1    1    2    0    0 -0.39558736151E+02 -0.47779041462E+02  0.11577336504E+03  0.18131795956E+03  0.12500000000E+03 0.  0.
</event>
<event>
 5    0  0.5705185E-005  0.3552656E+03  0.7546771E-02  0.1060474E+00
         21   -1    0    0  502  501  0.00000000000E+00  0.00000000000E+00  0.12248352855E+04  0.12248352855E+04  0.00000000000E+00 0. -1.
         21   -1    0    0  501  502 -0.00000000000E+00 -0.00000000000E+00 -0.10304538801E+03  0.10304538801E+03  0.00000000000E+00 0. -1.
         25    1    1    2    0    0 -0.65369037371E+02 -0.14647579938E+03  0.19795181542E+03  0.28379251590E+03  0.12500000000E+03 0.  0.
         25    1    1    2    0    0  0.17291806197E+03 -0.56921159666E+02  0.35849787918E+03  0.42105392048E+03  0.12500000000E+03 0.  0.
         25    1    1    2    0    0 -0.10754902460E+03  0.20339695904E+03  0.56534020293E+03  0.62303423718E+03  0.12500000000E+03 0.  0.
</event>
<event>
 5    0  0.5705185E-005  0.2456153E+03  0.7546771E-02  0.1116108E+00
         21   -1    0    0  502  501  0.00000000000E+00  0.00000000000E+00  0.21944412277E+03  0.21944412277E+03  0.00000000000E+00 0. -1.
         21   -1    0    0  501  502 -0.00000000000E+00 -0.00000000000E+00 -0.27490762143E+03  0.27490762143E+03  0.00000000000E+00 0. -1.
         25    1    1    2    0    0 -0.64165151168E+02 -0.70736870956E+01  0.50188748970E+02  0.14936905368E+03  0.12500000000E+03 0.  0.
         25    1    1    2    0    0  0.41972810989E+02  0.10415681576E+03 -0.64137034292E+02  0.17985805042E+03  0.12500000000E+03 0.  0.
         25    1    1    2    0    0  0.22192340179E+02 -0.97083128666E+02 -0.41515213337E+02  0.16512464011E+03  0.12500000000E+03 0.  0.
</event>
<event>
 5    0  0.5705185E-005  0.2481265E+03  0.7546771E-02  0.1114495E+00
         21   -1    0    0  502  501  0.00000000000E+00  0.00000000000E+00  0.51303767161E+02  0.51303767161E+02  0.00000000000E+00 0.  1.
         21   -1    0    0  501  502 -0.00000000000E+00 -0.00000000000E+00 -0.12000432691E+04  0.12000432691E+04  0.00000000000E+00 0.  1.
         25    1    1    2    0    0  0.55677571687E+01  0.74902805422E+02 -0.67693101104E+03  0.69246084647E+03  0.12500000000E+03 0.  0.
         25    1    1    2    0    0 -0.34148492888E+02 -0.98498485743E+02 -0.20357576451E+03  0.26064566591E+03  0.12500000000E+03 0.  0.
         25    1    1    2    0    0  0.28580735720E+02  0.23595680321E+02 -0.26823272640E+03  0.29824052390E+03  0.12500000000E+03 0.  0.
</event>
<event>
 5    0  0.5705185E-005  0.4009758E+03  0.7546771E-02  0.1043442E+00
         21   -1    0    0  502  501  0.00000000000E+00  0.00000000000E+00  0.17221739682E+03  0.17221739682E+03  0.00000000000E+00 0. -1.
         21   -1    0    0  501  502 -0.00000000000E+00 -0.00000000000E+00 -0.93359686154E+03  0.93359686154E+03  0.00000000000E+00 0. -1.
         25    1    1    2    0    0 -0.12627612016E+03  0.21154740769E+03 -0.52140763689E+03  0.59007532403E+03  0.12500000000E+03 0.  0.
         25    1    1    2    0    0  0.77182027424E+02 -0.23425798860E+03 -0.48449503894E+02  0.28072446457E+03  0.12500000000E+03 0.  0.
         25    1    1    2    0    0  0.49094092740E+02  0.22710580911E+02 -0.19152232394E+03  0.23501446976E+03  0.12500000000E+03 0.  0.
</event>
<event>
 5    0  0.5705185E-005  0.2757095E+03  0.7546771E-02  0.1098056E+00
         21   -1    0    0  502  501  0.00000000000E+00  0.00000000000E+00  0.46217553928E+02  0.46217553928E+02  0.00000000000E+00 0. -1.
         21   -1    0    0  501  502 -0.00000000000E+00 -0.00000000000E+00 -0.16447372332E+04  0.16447372332E+04  0.00000000000E+00 0. -1.
         25    1    1    2    0    0 -0.69126353969E+02 -0.12546722119E+03 -0.47800028701E+03  0.51442176353E+03  0.12500000000E+03 0.  0.
         25    1    1    2    0    0  0.48891794623E+02 -0.49071075729E+02 -0.42971656062E+03  0.45285726286E+03  0.12500000000E+03 0.  0.
         25    1    1    2    0    0  0.20234559346E+02  0.17453829692E+03 -0.69080283169E+03  0.72367576079E+03  0.12500000000E+03 0.  0.
</event>
<event>
 5    0  0.5705185E-005  0.2277726E+03  0.7546771E-02  0.1128217E+00
         21   -1    0    0  502  501  0.00000000000E+00  0.00000000000E+00  0.23069602386E+03  0.23069602386E+03  0.00000000000E+00 0. -1.
         21   -1    0    0  501  502 -0.00000000000E+00 -0.00000000000E+00 -0.22488625189E+03  0.22488625189E+03  0.00000000000E+00 0. -1.
         25    1    1    2    0    0  0.36721267665E+02 -0.59240280983E+02 -0.59973889062E+02  0.15517644718E+03  0.12500000000E+03 0.  0.
         25    1    1    2    0    0 -0.28988610389E+02  0.17484641106E+02 -0.35192357174E+02  0.13419968037E+03  0.12500000000E+03 0.  0.
         25    1    1    2    0    0 -0.77326572761E+01  0.41755639877E+02  0.10097601820E+03  0.16620614821E+03  0.12500000000E+03 0.  0.
</event>
<event>
 5    0  0.5705185E-005  0.4215334E+03  0.7546771E-02  0.1036568E+00
         21   -1    0    0  502  501  0.00000000000E+00  0.00000000000E+00  0.20971619670E+03  0.20971619670E+03  0.00000000000E+00 0. -1.
         21   -1    0    0  501  502 -0.00000000000E+00 -0.00000000000E+00 -0.84728970955E+03  0.84728970955E+03  0.00000000000E+00 0. -1.
         25    1    1    2    0    0  0.15814590258E+03  0.19981495395E+03 -0.53249079091E+03  0.60341327855E+03  0.12500000000E+03 0.  0.
         25    1    1    2    0    0  0.56286501058E+02 -0.11148290872E+03 -0.26539311575E+02  0.17867832604E+03  0.12500000000E+03 0.  0.
         25    1    1    2    0    0 -0.21443240364E+03 -0.88332045232E+02 -0.78543410360E+02  0.27491430166E+03  0.12500000000E+03 0.  0.
</event>
<event>
 5    0  0.5705185E-005  0.4857662E+03  0.7546771E-02  0.1017562E+00
         21   -1    0    0  502  501  0.00000000000E+00  0.00000000000E+00  0.11185528698E+04  0.11185528698E+04  0.00000000000E+00 0.  1.
         21   -1    0    0  501  502 -0.00000000000E+00 -0.00000000000E+00 -0.21095904023E+03  0.21095904023E+03  0.00000000000E+00 0.  1.
         25    1    1    2    0    0  0.76906937669E+01 -0.58597613632E+02  0.58770689823E+03  0.60375261930E+03  0.12500000000E+03 0.  0.
         25    1    1    2    0    0  0.24550733003E+03  0.38416667826E+02 -0.25326341232E+02  0.27931364633E+03  0.12500000000E+03 0.  0.
         25    1    1    2    0    0 -0.25319802380E+03  0.20180945806E+02  0.34521327255E+03  0.44644564436E+03  0.12500000000E+03 0.  0.
</event>
<event>
 5    0  0.7062266E-005  0.4123241E+03  0.7546771E-02  0.1039594E+00
         21   -1    0    0  502  501  0.00000000000E+00  0.00000000000E+00  0.29958171173E+03  0.29958171173E+03  0.00000000000E+00 0.  1.
         21   -1    0    0  501  502 -0.00000000000E+00 -0.00000000000E+00 -0.56749518836E+03  0.56749518836E+03  0.00000000000E+00 0.  1.
         25    1    1    2    0    0  0.11526010873E+03 -0.76164380255E+01  0.87686823710E+02  0.19145987006E+03  0.12500000000E+03 0.  0.
         25    1    1    2    0    0 -0.27544211307E+03  0.12469591345E+03 -0.13589388015E+03  0.35427330572E+03  0.12500000000E+03 0.  0.
         25    1    1    2    0    0  0.16018200434E+03 -0.11707947542E+03 -0.21970642019E+03  0.32134372431E+03  0.12500000000E+03 0.  0.
</event>
<event>
 5    0  0.5705185E-005  0.3160025E+03  0.7546771E-02  0.1077504E+00
         21   -1    0    0  502  501  0.00000000000E+00  0.00000000000E+00  0.36333086610E+03  0.36333086610E+03  0.00000000000E+00 0. -1.
         21   -1    0    0  501  502 -0.00000000000E+00 -0.00000000000E+00 -0.27483924224E+03  0.27483924224E+03  0.00000000000E+00 0. -1.
         25    1    1    2    0    0 -0.16568105329E+03 -0.14057926204E+03 -0.39184652802E+02  0.25371869728E+03  0.12500000000E+03 0.  0.
         25    1    1    2    0    0  0.10305117718E+03  0.15226848190E+03  0.78942390379E+02  0.23592824481E+03  0.12500000000E+03 0.  0.
         25    1    1    2    0    0  0.62629876103E+02 -0.11689219858E+02  0.48733886279E+02  0.14852316625E+03  0.12500000000E+03 0.  0.
</event>
<event>
 5    0  0.5705185E-005  0.3574131E+03  0.7546771E-02  0.1059613E+00
         21   -1    0    0  502  501  0.00000000000E+00  0.00000000000E+00  0.12022438583E+03  0.12022438583E+03  0.00000000000E+00 0. -1.
         21   -1    0    0  501  502 -0.00000000000E+00 -0.00000000000E+00 -0.10625475202E+04  0.10625475202E+04  0.00000000000E+00 0. -1.
         25    1    1    2    0    0  0.12073933973E+03  0.90905040132E+02 -0.12956313885E+03  0.23506025063E+03  0.12500000000E+03 0.  0.
         25    1    1    2    0    0 -0.18732104214E+03 -0.12964001769E+03 -0.73909074110E+03  0.78343846637E+03  0.12500000000E+03 0.  0.
         25    1    1    2    0    0  0.66581702408E+02  0.38734977556E+02 -0.73669254419E+02  0.16427318901E+03  0.12500000000E+03 0.  0.
</event>
<event>
 5    0  0.5705185E-005  0.4821360E+03  0.7546771E-02  0.1018550E+00
         21   -1    0    0  502  501  0.00000000000E+00  0.00000000000E+00  0.13652409575E+04  0.13652409575E+04  0.00000000000E+00 0.  1.
         21   -1    0    0  501  502 -0.00000000000E+00 -0.00000000000E+00 -0.17026676866E+03  0.17026676866E+03  0.00000000000E+00 0.  1.
         25    1    1    2    0    0 -0.36287750258E+01 -0.85225368737E+02  0.12808267847E+03  0.19825918392E+03  0.12500000000E+03 0.  0.
         25    1    1    2    0    0 -0.26921296468E+03 -0.59035415153E+01  0.88459082211E+02  0.30977488823E+03  0.12500000000E+03 0.  0.
         25    1    1    2    0    0  0.27284173971E+03  0.91128910253E+02  0.97843242815E+03  0.10274736540E+04  0.12500000000E+03 0.  0.
</event>
<event>
 5    0  0.5705185E-005  0.2587789E+03  0.7546771E-02  0.1107879E+00
         21   -1    0    0  502  501  0.00000000000E+00  0.00000000000E+00  0.94890788621E+03  0.94890788621E+03  0.00000000000E+00 0.  1.
         21   -1    0    0  501  502 -0.00000000000E+00 -0.00000000000E+00 -0.70572209930E+02  0.70572209930E+02  0.00000000000E+00 0.  1.
         25    1    1    2    0    0  0.54706142795E+02 -0.78844026414E+02  0.43738058308E+03  0.46490420198E+03  0.12500000000E+03 0.  0.
         25    1    1    2    0    0  0.55017602496E+02 -0.99783021548E+01  0.11875451634E+03  0.18125710538E+03  0.12500000000E+03 0.  0.
         25    1    1    2    0    0 -0.10972374529E+03  0.88822328569E+02  0.32220057686E+03  0.37331878879E+03  0.12500000000E+03 0.  0.
</event>
<event>
 5    0  0.5705185E-005  0.2890856E+03  0.7546771E-02  0.1090828E+00
         21   -1    0    0  502  501  0.00000000000E+00  0.00000000000E+00  0.85560880129E+02  0.85560880129E+02  0.00000000000E+00 0. -1.
         21   -1    0    0  501  502 -0.00000000000E+00 -0.00000000000E+00 -0.97673732214E+03  0.97673732214E+03  0.00000000000E+00 0. -1.
         25    1    1    2    0    0  0.81550050018E+02 -0.93359707947E+02 -0.62276809640E+03  0.64717196140E+03  0.12500000000E+03 0.  0.
         25    1    1    2    0    0 -0.85197530338E+02 -0.11075601493E+02 -0.10575520589E+03  0.18490660263E+03  0.12500000000E+03 0.  0.
         25    1    1    2    0    0  0.36474803193E+01  0.10443530944E+03 -0.16265313973E+03  0.23021963825E+03  0.12500000000E+03 0.  0.
</event>
<event>
 5    0  0.5705185E-005  0.2247836E+03  0.7546771E-02  0.1130366E+00
         21   -1    0    0  502  501  0.00000000000E+00  0.00000000000E+00  0.31084083130E+03  0.31084083130E+03  0.00000000000E+00 0. -1.
         21   -1    0    0  501  502 -0.00000000000E+00 -0.00000000000E+00 -0.16255160114E+03  0.16255160114E+03  0.00000000000E+00 0. -1.
         25    1    1    2    0    0 -0.67015645265E+02 -0.27798058967E+02  0.13931321768E+03  0.20074113035E+03  0.12500000000E+03 0.  0.
         25    1    1    2    0    0  0.34738270624E+02  0.21578178832E+02 -0.35048649603E+02  0.13610941586E+03  0.12500000000E+03 0.  0.
         25    1    1    2    0    0  0.32277374641E+02  0.62198801358E+01  0.44024662084E+02  0.13654188623E+03  0.12500000000E+03 0.  0.
</event>
<event>
 5    0  0.5705185E-005  0.2763078E+03  0.7546771E-02  0.1097723E+00
         21   -1    0    0  502  501  0.00000000000E+00  0.00000000000E+00  0.35058678596E+02  0.35058678596E+02  0.00000000000E+00 0.  1.
         21   -1    0    0  501  502 -0.00000000000E+00 -0.00000000000E+00 -0.21776628546E+04  0.21776628546E+04  0.00000000000E+00 0.  1.
         25    1    1    2    0    0 -0.13289156448E+02 -0.11365937289E+02 -0.16018608274E+04  0.16068257206E+04  0.12500000000E+03 0.  0.
         25    1    1    2    0    0 -0.10956827935E+02 -0.37489239610E+02 -0.32815949658E+03  0.35332584162E+03  0.12500000000E+03 0.  0.
         25    1    1    2    0    0  0.24245984383E+02  0.48855176899E+02 -0.21258385206E+03  0.25256997095E+03  0.12500000000E+03 0.  0.
</event>
<event>
 5    0  0.5705185E-005  0.2548792E+03  0.7546771E-02  0.1110260E+00
         21   -1    0    0  502  501  0.00000000000E+00  0.00000000000E+00  0.20385423085E+03  0.20385423085E+03  0.00000000000E+00 0. -1.
         21   -1    0    0  501  502 -0.00000000000E+00 -0.00000000000E+00 -0.31867566051E+03  0.31867566051E+03  0.00000000000E+00 0. -1.
         25    1    1    2    0    0  0.10740537951E+03 -0.61716110392E+02 -0.49533019903E+02  0.18282044166E+03  0.12500000000E+03 0.  0.
         25    1    1    2    0    0 -0.11053933264E+02  0.94151805811E+02 -0.83226968999E+02  0.17759076650E+03  0.12500000000E+03 0.  0.
         25    1    1    2    0    0 -0.96351446247E+02 -0.32435695419E+02  0.17938559247E+02  0.16211868319E+03  0.12500000000E+03 0.  0.
</event>
<event>
 5    0  0.5705185E-005  0.3294590E+03  0.7546771E-02  0.1071377E+00
         21   -1    0    0  502  501  0.00000000000E+00  0.00000000000E+00  0.26364443945E+03  0.26364443945E+03  0.00000000000E+00 0.  1.
         21   -1    0    0  501  502 -0.00000000000E+00 -0.00000000000E+00 -0.41170304247E+03  0.41170304247E+03  0.00000000000E+00 0.  1.
         25    1    1    2    0    0 -0.10065046396E+03  0.58438152748E+02 -0.29096358601E+03  0.33738752492E+03  0.12500000000E+03 0.  0.
         25    1    1    2    0    0 -0.39163310414E+01  0.88574635132E+01  0.88414595236E+02  0.15341425279E+03  0.12500000000E+03 0.  0.
         25    1    1    2    0    0  0.10456679500E+03 -0.67295616261E+02  0.54490387747E+02  0.18454570421E+03  0.12500000000E+03 0.  0.
</event>
<event>
 5    0  0.5705185E-005  0.3062014E+03  0.7546771E-02  0.1082181E+00
         21   -1    0    0  502  501  0.00000000000E+00  0.00000000000E+00  0.12711851736E+03  0.12711851736E+03  0.00000000000E+00 0. -1.
         21   -1    0    0  501  502 -0.00000000000E+00 -0.00000000000E+00 -0.73757386191E+03  0.73757386191E+03  0.00000000000E+00 0. -1.
         25    1    1    2    0    0  0.12607617818E+03 -0.92308742081E+02 -0.18028468429E+03  0.26933932865E+03  0.12500000000E+03 0.  0.
         25    1    1    2    0    0  0.51819502964E+02 -0.57112832032E+02 -0.17286794587E+03  0.22683796679E+03  0.12500000000E+03 0.  0.
         25    1    1    2    0    0 -0.17789568114E+03  0.14942157411E+03 -0.25730271440E+03  0.36851508383E+03  0.12500000000E+03 0.  0.
</event>
<event>
 5    0  0.5705185E-005  0.4276643E+03  0.7546771E-02  0.1034600E+00
         21   -1    0    0  502  501  0.00000000000E+00  0.00000000000E+00  0.13424039059E+03  0.13424039059E+03  0.00000000000E+00 0. -1.
         21   -1    0    0  501  502 -0.00000000000E+00 -0.00000000000E+00 -0.13624572200E+04  0.13624572200E+04  0.00000000000E+00 0. -1.
         25    1    1    2    0    0  0.97000360706E+02  0.34411393036E+02 -0.10127214327E+03  0.19098235769E+03  0.12500000000E+03 0.  0.
         25    1    1    2    0    0  0.12020205647E+03 -0.14657925006E+03 -0.95530410170E+03  0.98191900769E+03  0.12500000000E+03 0.  0.
         25    1    1    2    0    0 -0.21720241717E+03  0.11216785702E+03 -0.17164058439E+03  0.32379624517E+03  0.12500000000E+03 0.  0.
</event>
<event>
 5    0  0.5705185E-005  0.2603652E+03  0.7546771E-02  0.1106924E+00
         21   -1    0    0  502  501  0.00000000000E+00  0.00000000000E+00  0.37566322259E+02  0.37566322259E+02  0.00000000000E+00 0.  1.
         21   -1    0    0  501  502 -0.00000000000E+00 -0.00000000000E+00 -0.18045429955E+04  0.18045429955E+04  0.00000000000E+00 0.  1.
         25    1    1    2    0    0  0.49931773408E+02  0.33406760349E+02 -0.27751158809E+03  0.31023680497E+03  0.12500000000E+03 0.  0.
         25    1    1    2    0    0 -0.12967644572E+03 -0.78303989220E+02 -0.97518615573E+03  0.99476657243E+03  0.12500000000E+03 0.  0.
         25    1    1    2    0    0  0.79744672308E+02  0.44897228872E+02 -0.51427892940E+03  0.53710594034E+03  0.12500000000E+03 0.  0.
</event>
<event>
 5    0  0.5705185E-005  0.2447502E+03  0.7546771E-02  0.1116668E+00
         21   -1    0    0  502  501  0.00000000000E+00  0.00000000000E+00  0.23280095122E+03  0.23280095122E+03  0.00000000000E+00 0.  1.
         21   -1    0    0  501  502 -0.00000000000E+00 -0.00000000000E+00 -0.25731287930E+03  0.25731287930E+03  0.00000000000E+00 0.  1.
         25    1    1    2    0    0  0.31516124542E+02  0.13938821573E+03  0.16875564774E+02  0.19060987770E+03  0.12500000000E+03 0.  0.
         25    1    1    2    0    0 -0.26057247148E+02 -0.56496950683E+02 -0.52112107008E+02  0.14903542284E+03  0.12500000000E+03 0.  0.
         25    1    1    2    0    0 -0.54588773941E+01 -0.82891265048E+02  0.10724614161E+02  0.15046852997E+03  0.12500000000E+03 0.  0.
</event>
<event>
 5    0  0.5705185E-005  0.4198116E+03  0.7546771E-02  0.1037128E+00
         21   -1    0    0  502  501  0.00000000000E+00  0.00000000000E+00  0.22518015918E+03  0.22518015918E+03  0.00000000000E+00 0.  1.
         21   -1    0    0  501  502 -0.00000000000E+00 -0.00000000000E+00 -0.78267018554E+03  0.78267018554E+03  0.00000000000E+00 0.  1.
         25    1    1    2    0    0 -0.71932824690E+01  0.11343953798E+03  0.27526675771E+00  0.16895368555E+03  0.12500000000E+03 0.  0.
         25    1    1    2    0    0  0.20245033281E+03 -0.22779098058E+03 -0.45269665889E+03  0.55985188493E+03  0.12500000000E+03 0.  0.
         25    1    1    2    0    0 -0.19525705034E+03  0.11435144260E+03 -0.10506863424E+03  0.27904477425E+03  0.12500000000E+03 0.  0.
</event>
<event>
 5    0  0.6701299E-005  0.3856304E+03  0.7546771E-02  0.1048872E+00
         21   -1    0    0  502  501  0.00000000000E+00  0.00000000000E+00  0.31887169379E+03  0.31887169379E+03  0.00000000000E+00 0.  1.
         21   -1    0    0  501  502 -0.00000000000E+00 -0.00000000000E+00 -0.46636567165E+03  0.46636567165E+03  0.00000000000E+00 0.  1.
         25    1    1    2    0    0  0.92952441534E+02 -0.19889240228E+03  0.57088907721E+02  0.25900287152E+03  0.12500000000E+03 0.  0.
         25    1    1    2    0    0  0.56634700112E+02  0.16827448266E+03 -0.24227292942E+03  0.32533822877E+03  0.12500000000E+03 0.  0.
         25    1    1    2    0    0 -0.14958714165E+03  0.30617919616E+02  0.37690043834E+02  0.20089626515E+03  0.12500000000E+03 0.  0.
</event>
<event>
 5    0  0.5854878E-005  0.2919716E+03  0.7546771E-02  0.1089324E+00
         21   -1    0    0  502  501  0.00000000000E+00  0.00000000000E+00  0.62460637917E+03  0.62460637917E+03  0.00000000000E+00 0.  1.
         21   -1    0    0  501  502 -0.00000000000E+00 -0.00000000000E+00 -0.13648185426E+03  0.13648185426E+03  0.00000000000E+00 0.  1.
         25    1    1    2    0    0 -0.44631061559E+02 -0.10620855843E+03  0.12434342915E+03  0.21061452446E+03  0.12500000000E+03 0.  0.
         25    1    1    2    0    0  0.35857271445E+02  0.73557402747E+02 -0.15014456999E+02  0.15015614984E+03  0.12500000000E+03 0.  0.
         25    1    1    2    0    0  0.87737901143E+01  0.32651155688E+02  0.37879555276E+03  0.40031755914E+03  0.12500000000E+03 0.  0.
</event>
<event>
 5    0  0.5798710E-005  0.2944138E+03  0.7546771E-02  0.1088067E+00
         21   -1    0    0  502  501  0.00000000000E+00  0.00000000000E+00  0.13516524516E+03  0.13516524516E+03  0.00000000000E+00 0. -1.
         21   -1    0    0  501  502 -0.00000000000E+00 -0.00000000000E+00 -0.64128537889E+03  0.64128537889E+03  0.00000000000E+00 0. -1.
         25    1    1    2    0    0 -0.50009858486E+02  0.50215860915E+02 -0.28109014174E+03  0.31568859088E+03  0.12500000000E+03 0.  0.
         25    1    1    2    0    0  0.92181590893E+02  0.93890998541E+02 -0.28622993455E+02  0.18373143732E+03  0.12500000000E+03 0.  0.
         25    1    1    2    0    0 -0.42171732408E+02 -0.14410685946E+03 -0.19640699853E+03  0.27703059584E+03  0.12500000000E+03 0.  0.
</event>
<event>
 5    0  0.5705185E-005  0.4181500E+03  0.7546771E-02  0.1037670E+00
         21   -1    0    0  502  501  0.00000000000E+00  0.00000000000E+00  0.27085884300E+03  0.27085884300E+03  0.00000000000E+00 0.  1.
         21   -1    0    0  501  502 -0.00000000000E+00 -0.00000000000E+00 -0.64553701238E+03  0.64553701238E+03  0.00000000000E+00 0.  1.
         25    1    1    2    0    0  0.12049114675E+02 -0.21350838233E+03 -0.34114424447E+03  0.42158677164E+03  0.12500000000E+03 0.  0.
         25    1    1    2    0    0 -0.16299396649E+03  0.21275512219E+03  0.14070001628E+01  0.29573426379E+03  0.12500000000E+03 0.  0.
         25    1    1    2    0    0  0.15094485181E+03  0.75326013340E+00 -0.34940925072E+02  0.19907481994E+03  0.12500000000E+03 0.  0.
</event>
<event>
 5    0  0.5705185E-005  0.3816909E+03  0.7546771E-02  0.1050311E+00
         21   -1    0    0  502  501  0.00000000000E+00  0.00000000000E+00  0.16257207663E+04  0.16257207663E+04  0.00000000000E+00 0.  1.
         21   -1    0    0  501  502 -0.00000000000E+00 -0.00000000000E+00 -0.89614361254E+02  0.89614361254E+02  0.00000000000E+00 0.  1.
         25    1    1    2    0    0  0.18135288629E+03  0.93152551352E+01  0.12619588200E+04  0.12810701412E+04  0.12500000000E+03 0.  0.
         25    1    1    2    0    0 -0.11355956334E+03 -0.16108318982E+02  0.22884358148E+03  0.28486775379E+03  0.12500000000E+03 0.  0.
         25    1    1    2    0    0 -0.67793322948E+02  0.67930638469E+01  0.45304003569E+02  0.14939723255E+03  0.12500000000E+03 0.  0.
</event>
<event>
 5    0  0.5705185E-005  0.5115886E+03  0.7546771E-02  0.1010798E+00
         21   -1    0    0  502  501  0.00000000000E+00  0.00000000000E+00  0.12621332498E+04  0.12621332498E+04  0.00000000000E+00 0. -1.
         21   -1    0    0  501  502 -0.00000000000E+00 -0.00000000000E+00 -0.20736548047E+03  0.20736548047E+03  0.00000000000E+00 0. -1.
         25    1    1    2    0    0  0.20899659616E+03 -0.26310545719E+03  0.53624708868E+03  0.64505038480E+03  0.12500000000E+03 0.  0.
         25    1    1    2    0    0 -0.60190652438E+02  0.37827338983E+03  0.25268614102E+03  0.47559326946E+03  0.12500000000E+03 0.  0.
         25    1    1    2    0    0 -0.14880594372E+03 -0.11516793264E+03  0.26583453963E+03  0.34885507601E+03  0.12500000000E+03 0.  0.
</event>
<event>
 5    0  0.5705185E-005  0.3418343E+03  0.7546771E-02  0.1066017E+00
         21   -1    0    0  502  501  0.00000000000E+00  0.00000000000E+00  0.13927172249E+03  0.13927172249E+03  0.00000000000E+00 0.  1.
         21   -1    0    0  501  502 -0.00000000000E+00 -0.00000000000E+00 -0.83901237136E+03  0.83901237136E+03  0.00000000000E+00 0.  1.
         25    1    1    2    0    0 -0.34604341943E+02  0.18103813504E+03 -0.73532649223E+02  0.23452999237E+03  0.12500000000E+03 0.  0.
         25    1    1    2    0    0 -0.41910878903E+02 -0.87651978253E+02 -0.94521409038E+02  0.18438733099E+03  0.12500000000E+03 0.  0.
         25    1    1    2    0    0  0.76515220846E+02 -0.93386156786E+02 -0.53168659061E+03  0.55936677050E+03  0.12500000000E+03 0.  0.
</event>
<event>
 5    0  0.5705185E-005  0.2740957E+03  0.7546771E-02  0.1098958E+00
         21   -1    0    0  502  501  0.00000000000E+00  0.00000000000E+00  0.20507921500E+03  0.20507921500E+03  0.00000000000E+00 0.  1.
         21   -1    0    0  501  502 -0.00000000000E+00 -0.00000000000E+00 -0.36633860752E+03  0.36633860752E+03  0.00000000000E+00 0.  1.
         25    1    1    2    0    0 -0.48252991295E+02  0.82481469636E+02  0.22616518574E+02  0.15895927439E+03  0.12500000000E+03 0.  0.
         25    1    1    2    0    0  0.71945006851E+01  0.16595258380E+02 -0.21063144409E+03  0.24559676032E+03  0.12500000000E+03 0.  0.
         25    1    1    2    0    0  0.41058490609E+02 -0.99076728016E+02  0.26755532985E+02  0.16686178781E+03  0.12500000000E+03 0.  0.
</event>
<event>
 5    0  0.6973419E-005  0.3201592E+03  0.7546771E-02  0.1075576E+00
         21   -1    0    0  502  501  0.00000000000E+00  0.00000000000E+00  0.82574178258E+02  0.82574178258E+02  0.00000000000E+00 0. -1.
         21   -1    0    0  501  502 -0.00000000000E+00 -0.00000000000E+00 -0.12413309617E+04  0.12413309617E+04  0.00000000000E+00 0. -1.
         25    1    1    2    0    0  0.15086504433E+03  0.16752042355E+02 -0.22814403587E+03  0.30119029471E+03  0.12500000000E+03 0.  0.
         25    1    1    2    0    0 -0.12461503532E+03 -0.15569326071E+03 -0.50765278721E+03  0.55955844272E+03  0.12500000000E+03 0.  0.
         25    1    1    2    0    0 -0.26250009004E+02  0.13894121836E+03 -0.42295996031E+03  0.46315640248E+03  0.12500000000E+03 0.  0.
</event>
<event>
 5    0  0.5705185E-005  0.2772275E+03  0.7546771E-02  0.1097213E+00
         21   -1    0    0  502  501  0.00000000000E+00  0.00000000000E+00  0.21079052279E+04  0.21079052279E+04  0.00000000000E+00 0.  1.
         21   -1    0    0  501  502 -0.00000000000E+00 -0.00000000000E+00 -0.36460419152E+02  0.36460419152E+02  0.00000000000E+00 0.  1.
         25    1    1    2    0    0 -0.94816881667E+02 -0.15913417062E+02  0.10673069921E+04  0.10788941993E+04  0.12500000000E+03 0.  0.
         25    1    1    2    0    0 -0.12268921756E+02 -0.85421577493E+02  0.57657468421E+03  0.59624721284E+03  0.12500000000E+03 0.  0.
         25    1    1    2    0    0  0.10708580342E+03  0.10133499456E+03  0.42756313246E+03  0.46922423494E+03  0.12500000000E+03 0.  0.
</event>
<event>
 5    0  0.5705185E-005  0.3608263E+03  0.7546771E-02  0.1058257E+00
         21   -1    0    0  502  501  0.00000000000E+00  0.00000000000E+00  0.73713292811E+03  0.73713292811E+03  0.00000000000E+00 0.  1.
         21   -1    0    0  501  502 -0.00000000000E+00 -0.00000000000E+00 -0.17662429556E+03  0.17662429556E+03  0.00000000000E+00 0.  1.
         25    1    1    2    0    0  0.26866162709E+03 -0.11618606703E+02  0.10270097400E+03  0.31382567128E+03  0.12500000000E+03 0.  0.
         25    1    1    2    0    0 -0.74013153735E+02  0.14413247968E+02  0.24716378873E+03  0.28705509420E+03  0.12500000000E+03 0.  0.
         25    1    1    2    0    0 -0.19464847335E+03 -0.27946412658E+01  0.21064386982E+03  0.31287645819E+03  0.12500000000E+03 0.  0.
</event>
<event>
 5    0  0.5705185E-005  0.5079055E+03  0.7546771E-02  0.1011736E+00
         21   -1    0    0  502  501  0.00000000000E+00  0.00000000000E+00  0.86590300833E+03  0.86590300833E+03  0.00000000000E+00 0. -1.
         21   -1    0    0  501  502 -0.00000000000E+00 -0.00000000000E+00 -0.29791793625E+03  0.29791793625E+03  0.00000000000E+00 0. -1.
         25    1    1    2    0    0 -0.31469423289E+03  0.93178356051E+02 -0.51307357115E+02  0.35492550084E+03  0.12500000000E+03 0.  0.
         25    1    1    2    0    0 -0.17931828209E+02  0.91554348469E+01  0.27891966918E+03  0.30631120499E+03  0.12500000000E+03 0.  0.
         25    1    1    2    0    0  0.33262606110E+03 -0.10233379090E+03  0.34037276002E+03  0.50258423875E+03  0.12500000000E+03 0.  0.
</event>
<event>
 5    0  0.5705185E-005  0.3208151E+03  0.7546771E-02  0.1075275E+00
         21   -1    0    0  502  501  0.00000000000E+00  0.00000000000E+00  0.75402602913E+02  0.75402602913E+02  0.00000000000E+00 0. -1.
         21   -1    0    0  501  502 -0.00000000000E+00 -0.00000000000E+00 -0.13649708117E+04  0.13649708117E+04  0.00000000000E+00 0.  1.
         25    1    1    2    0    0  0.26000949082E+02  0.16619216746E+02 -0.71934386369E+03  0.73077550722E+03  0.12500000000E+03 0.  0.
         25    1    1    2    0    0  0.97455982130E+02 -0.13688902685E+03 -0.28298961383E+03  0.35205737552E+03  0.12500000000E+03 0.  0.
         25    1    1    2    0    0 -0.12345693121E+03  0.12026981011E+03 -0.28723473128E+03  0.35754053188E+03  0.12500000000E+03 0.  0.
</event>
<event>
 5    0  0.5705185E-005  0.3152899E+03  0.7546771E-02  0.1077838E+00
         21   -1    0    0  502  501  0.00000000000E+00  0.00000000000E+00  0.48830384845E+03  0.48830384845E+03  0.00000000000E+00 0.  1.
         21   -1    0    0  501  502 -0.00000000000E+00 -0.00000000000E+00 -0.20357754680E+03  0.20357754680E+03  0.00000000000E+00 0.  1.
         25    1    1    2    0    0  0.27166097380E+02  0.83000482709E+02 -0.83745200693E+02  0.17396935252E+03  0.12500000000E+03 0.  0.
         25    1    1    2    0    0 -0.25106787929E+02  0.62862636131E+00  0.34225884328E+03  0.36523535121E+03  0.12500000000E+03 0.  0.
         25    1    1    2    0    0 -0.20593094513E+01 -0.83629109071E+02  0.26212659058E+02  0.15267669152E+03  0.12500000000E+03 0.  0.
</event>
<event>
 5    0  0.5718376E-005  0.2754007E+03  0.7546771E-02  0.1098228E+00
         21   -1    0    0  502  501  0.00000000000E+00  0.00000000000E+00  0.86711554522E+03  0.86711554522E+03  0.00000000000E+00 0. -1.
         21   -1    0    0  501  502 -0.00000000000E+00 -0.00000000000E+00 -0.87468794601E+02  0.87468794601E+02  0.00000000000E+00 0. -1.
         25    1    1    2    0    0 -0.48074604313E+02 -0.74562162528E+02  0.24347023949E+03  0.28770373855E+03  0.12500000000E+03 0.  0.
         25    1    1    2    0    0  0.14493273746E+03  0.11356339810E+03  0.38482089080E+03  0.44453825681E+03  0.12500000000E+03 0.  0.
         25    1    1    2    0    0 -0.96858133146E+02 -0.39001235570E+02  0.15135562034E+03  0.22234234446E+03  0.12500000000E+03 0.  0.
</event>
<event>
 5    0  0.5983450E-005  0.2696389E+03  0.7546771E-02  0.1101486E+00
         21   -1    0    0  502  501  0.00000000000E+00  0.00000000000E+00  0.24265903429E+04  0.24265903429E+04  0.00000000000E+00 0. -1.
         21   -1    0    0  501  502 -0.00000000000E+00 -0.00000000000E+00 -0.29961855663E+02  0.29961855663E+02  0.00000000000E+00 0. -1.
         25    1    1    2    0    0  0.35934897839E+02 -0.85499170599E+02  0.49140111554E+03  0.51546239573E+03  0.12500000000E+03 0.  0.
         25    1    1    2    0    0 -0.27879205975E+02  0.11426630691E+03  0.16097197136E+04  0.16188442159E+04  0.12500000000E+03 0.  0.
         25    1    1    2    0    0 -0.80556918643E+01 -0.28767136309E+02  0.29550765813E+03  0.32224558696E+03  0.12500000000E+03 0.  0.
</event>
<event>
 5    0  0.5705185E-005  0.3117069E+03  0.7546771E-02  0.1079531E+00
         21   -1    0    0  502  501  0.00000000000E+00  0.00000000000E+00  0.70343936283E+02  0.70343936283E+02  0.00000000000E+00 0. -1.
         21   -1    0    0  501  502 -0.00000000000E+00 -0.00000000000E+00 -0.13812307508E+04  0.13812307508E+04  0.00000000000E+00 0. -1.
         25    1    1    2    0    0  0.44586600507E+02  0.22302631898E+03 -0.51556900894E+03  0.57720456243E+03  0.12500000000E+03 0.  0.
         25    1    1    2    0    0 -0.85187444314E+02 -0.13152000164E+03 -0.38843616626E+03  0.43710647073E+03  0.12500000000E+03 0.  0.
         25    1    1    2    0    0  0.40600843807E+02 -0.91506317346E+02 -0.40688163936E+03  0.43726365396E+03  0.12500000000E+03 0.  0.
</event>
<event>
 5    0  0.5705185E-005  0.2266645E+03  0.7546771E-02  0.1129010E+00
         21   -1    0    0  502  501  0.00000000000E+00  0.00000000000E+00  0.42630883511E+03  0.42630883511E+03  0.00000000000E+00 0. -1.
         21   -1    0    0  501  502 -0.00000000000E+00 -0.00000000000E+00 -0.12051542791E+03  0.12051542791E+03  0.00000000000E+00 0. -1.
         25    1    1    2    0    0 -0.71582777707E+01 -0.18147465844E+02  0.16413250954E+03  0.20723188013E+03  0.12500000000E+03 0.  0.
         25    1    1    2    0    0  0.71813835969E+02 -0.37524927550E+02  0.10947355901E+03  0.18486429441E+03  0.12500000000E+03 0.  0.
         25    1    1    2    0    0 -0.64655558199E+02  0.55672393393E+02  0.32187338654E+02  0.15472808847E+03  0.12500000000E+03 0.  0.
</event>
<event>
 5    0  0.5705185E-005  0.2866880E+03  0.7546771E-02  0.1092091E+00
         21   -1    0    0  502  501  0.00000000000E+00  0.00000000000E+00  0.28083388305E+03  0.28083388305E+03  0.00000000000E+00 0.  1.
         21   -1    0    0  501  502 -0.00000000000E+00 -0.00000000000E+00 -0.29266409331E+03  0.29266409331E+03  0.00000000000E+00 0.  1.
         25    1    1    2    0    0  0.88010408761E+01 -0.61627498083E+02  0.12425527004E+03  0.18692185258E+03  0.12500000000E+03 0.  0.
         25    1    1    2    0    0  0.10792630446E+03 -0.13377827719E+01 -0.10973467727E+02  0.16551523752E+03  0.12500000000E+03 0.  0.
         25    1    1    2    0    0 -0.11672734534E+03  0.62965280855E+02 -0.12511201257E+03  0.22106088625E+03  0.12500000000E+03 0.  0.
</event>
<event>
 5    0  0.5705185E-005  0.3701664E+03  0.7546771E-02  0.1054629E+00
         21   -1    0    0  502  501  0.00000000000E+00  0.00000000000E+00  0.15464778656E+04  0.15464778656E+04  0.00000000000E+00 0.  1.
         21   -1    0    0  501  502 -0.00000000000E+00 -0.00000000000E+00 -0.88603389182E+02  0.88603389182E+02  0.00000000000E+00 0.  1.
         25    1    1    2    0    0  0.67388212950E+02  0.19467435481E+03  0.68511613770E+03  0.72625642703E+03  0.12500000000E+03 0.  0.
         25    1    1    2    0    0  0.10011795502E+03  0.99110366713E+01  0.14495114152E+03  0.21623521219E+03  0.12500000000E+03 0.  0.
         25    1    1    2    0    0 -0.16750616797E+03 -0.20458539148E+03  0.62780719716E+03  0.69258961552E+03  0.12500000000E+03 0.  0.
</event>
<event>
 5    0  0.5784196E-005  0.3680599E+03  0.7546771E-02  0.1055437E+00
         21   -1    0    0  502  501  0.00000000000E+00  0.00000000000E+00  0.34793169832E+03  0.34793169832E+03  0.00000000000E+00 0. -1.
         21   -1    0    0  501  502 -0.00000000000E+00 -0.00000000000E+00 -0.38935263126E+03  0.38935263126E+03  0.00000000000E+00 0. -1.
         25    1    1    2    0    0  0.15007869716E+02 -0.52854241897E+02  0.17833135441E+03  0.22460160063E+03  0.12500000000E+03 0.  0.
         25    1    1    2    0    0 -0.12043574205E+03  0.80245127099E+02  0.48537962216E+02  0.19729415137E+03  0.12500000000E+03 0.  0.
         25    1    1    2    0    0  0.10542787234E+03 -0.27390885203E+02 -0.26829024957E+03  0.31538857759E+03  0.12500000000E+03 0.  0.
</event>
<event>
 5    0  0.5705185E-005  0.2355723E+03  0.7546771E-02  0.1122778E+00
         21   -1    0    0  502  501  0.00000000000E+00  0.00000000000E+00  0.39188475526E+03  0.39188475526E+03  0.00000000000E+00 0. -1.
         21   -1    0    0  501  502 -0.00000000000E+00 -0.00000000000E+00 -0.14160874244E+03  0.14160874244E+03  0.00000000000E+00 0. -1.
         25    1    1    2    0    0 -0.26539327187E+02  0.20480576294E+02  0.12248725365E+03  0.17819067652E+03  0.12500000000E+03 0.  0.
         25    1    1    2    0    0  0.10926160129E+03 -0.59941903139E+02  0.69749825098E+02  0.18979243233E+03  0.12500000000E+03 0.  0.
         25    1    1    2    0    0 -0.82722274100E+02  0.39461326845E+02  0.58038934064E+02  0.16551038885E+03  0.12500000000E+03 0.  0.
</event>
<event>
 5    0  0.5705185E-005  0.2392353E+03  0.7546771E-02  0.1120303E+00
         21   -1    0    0  502  501  0.00000000000E+00  0.00000000000E+00  0.13545768327E+03  0.13545768327E+03  0.00000000000E+00 0. -1.
         21   -1    0    0  501  502 -0.00000000000E+00 -0.00000000000E+00 -0.42251946118E+03  0.42251946118E+03  0.00000000000E+00 0. -1.
         25    1    1    2    0    0  0.59023461787E+02  0.50661303151E+02 -0.16567717568E+03  0.22163994049E+03  0.12500000000E+03 0.  0.
         25    1    1    2    0    0 -0.74986857609E+02 -0.63554279646E+02 -0.13544793097E+03  0.20888589536E+03  0.12500000000E+03 0.  0.
         25    1    1    2    0    0  0.15963395822E+02  0.12892976495E+02  0.14063328740E+02  0.12745130860E+03  0.12500000000E+03 0.  0.
</event>
<event>
 5    0  0.5705185E-005  0.3080893E+03  0.7546771E-02  0.1081265E+00
         21   -1    0    0  502  501  0.00000000000E+00  0.00000000000E+00  0.55168146673E+03  0.55168146673E+03  0.00000000000E+00 0.  1.
         21   -1    0    0  501  502 -0.00000000000E+00 -0.00000000000E+00 -0.17205398616E+03  0.17205398616E+03  0.00000000000E+00 0.  1.
         25    1    1    2    0    0 -0.99108233392E+02  0.10560239556E+03  0.19218910408E+03  0.27117514561E+03  0.12500000000E+03 0.  0.
         25    1    1    2    0    0 -0.89899513266E+02  0.15876254043E+02  0.72693980073E+02  0.17100699596E+03  0.12500000000E+03 0.  0.
         25    1    1    2    0    0  0.18900774666E+03 -0.12147864960E+03  0.11474439642E+03  0.28155331132E+03  0.12500000000E+03 0.  0.
</event>
<event>
 5    0  0.6425613E-005  0.3254338E+03  0.7546771E-02  0.1073175E+00
         21   -1    0    0  502  501  0.00000000000E+00  0.00000000000E+00  0.74577239420E+03  0.74577239420E+03  0.00000000000E+00 0.  1.
         21   -1    0    0  501  502 -0.00000000000E+00 -0.00000000000E+00 -0.14200998562E+03  0.14200998562E+03  0.00000000000E+00 0.  1.
         25    1    1    2    0    0  0.63649518296E+02 -0.11583436729E+03  0.13819071438E+03  0.22845247945E+03  0.12500000000E+03 0.  0.
         25    1    1    2    0    0 -0.20600086520E+03  0.52754793972E+02  0.15900762696E+03  0.29347546777E+03  0.12500000000E+03 0.  0.
         25    1    1    2    0    0  0.14235134690E+03  0.63079573320E+02  0.30656406723E+03  0.36585443260E+03  0.12500000000E+03 0.  0.
</event>
<event>
 5    0  0.5705185E-005  0.3656939E+03  0.7546771E-02  0.1056352E+00
         21   -1    0    0  502  501  0.00000000000E+00  0.00000000000E+00  0.60626423245E+03  0.60626423245E+03  0.00000000000E+00 0.  1.
         21   -1    0    0  501  502 -0.00000000000E+00 -0.00000000000E+00 -0.22058368461E+03  0.22058368461E+03  0.00000000000E+00 0.  1.
         25    1    1    2    0    0  0.11375615951E+03  0.77635483245E+02  0.37307261044E+03  0.41686437213E+03  0.12500000000E+03 0.  0.
         25    1    1    2    0    0 -0.14484599825E+02 -0.11024171757E+03  0.12773945045E+03  0.21048849642E+03  0.12500000000E+03 0.  0.
         25    1    1    2    0    0 -0.99271559687E+02  0.32606234323E+02 -0.11513151306E+03  0.19949504851E+03  0.12500000000E+03 0.  0.
</event>
<event>
 5    0  0.5705185E-005  0.2531923E+03  0.7546771E-02  0.1111304E+00
         21   -1    0    0  502  501  0.00000000000E+00  0.00000000000E+00  0.18637756453E+03  0.18637756453E+03  0.00000000000E+00 0.  1.
         21   -1    0    0  501  502 -0.00000000000E+00 -0.00000000000E+00 -0.34395943356E+03  0.34395943356E+03  0.00000000000E+00 0.  1.
         25    1    1    2    0    0  0.65216394285E+02  0.14190684496E+03 -0.69462639624E+02  0.21175643800E+03  0.12500000000E+03 0.  0.
         25    1    1    2    0    0 -0.10380550744E+02 -0.81807427750E+02 -0.96686432391E+01  0.15006229950E+03  0.12500000000E+03 0.  0.
         25    1    1    2    0    0 -0.54835843541E+02 -0.60099417208E+02 -0.78450586168E+02  0.16851826060E+03  0.12500000000E+03 0.  0.
</event>
<event>
 5    0  0.5705185E-005  0.4319122E+03  0.7546771E-02  0.1033258E+00
         21   -1    0    0  502  501  0.00000000000E+00  0.00000000000E+00  0.47338033366E+03  0.47338033366E+03  0.00000000000E+00 0.  1.
         21   -1    0    0  501  502 -0.00000000000E+00 -0.00000000000E+00 -0.39407668025E+03  0.39407668025E+03  0.00000000000E+00 0.  1.
         25    1    1    2    0    0 -0.14057150065E+03 -0.12030579296E+03 -0.28986344674E+03  0.36589567963E+03  0.12500000000E+03 0.  0.
         25    1    1    2    0    0  0.90801873184E+02 -0.52656483631E+00  0.20959961973E+03  0.26038866725E+03  0.12500000000E+03 0.  0.
         25    1    1    2    0    0  0.49769627464E+02  0.12083235780E+03  0.15956748043E+03  0.24117266702E+03  0.12500000000E+03 0.  0.
</event>
<event>
 5    0  0.8035480E-005  0.4916920E+03  0.7546771E-02  0.1015970E+00
         21   -1    0    0  502  501  0.00000000000E+00  0.00000000000E+00  0.56017015813E+03  0.56017015813E+03  0.00000000000E+00 0. -1.
         21   -1    0    0  501  502 -0.00000000000E+00 -0.00000000000E+00 -0.43158505321E+03  0.43158505321E+03  0.00000000000E+00 0. -1.
         25    1    1    2    0    0  0.15344079532E+03  0.12698868452E+03  0.18306988041E+03  0.29800970584E+03  0.12500000000E+03 0.  0.
         25    1    1    2    0    0  0.46248286000E+02 -0.36284237331E+02 -0.30702528417E+03  0.33666745455E+03  0.12500000000E+03 0.  0.
         25    1    1    2    0    0 -0.19968908132E+03 -0.90704447192E+02  0.25254050869E+03  0.35707805095E+03  0.12500000000E+03 0.  0.
</event>
<event>
 5    0  0.5705185E-005  0.3936557E+03  0.7546771E-02  0.1045999E+00
         21   -1    0    0  502  501  0.00000000000E+00  0.00000000000E+00  0.15670880775E+04  0.15670880775E+04  0.00000000000E+00 0.  1.
         21   -1    0    0  501  502 -0.00000000000E+00 -0.00000000000E+00 -0.98887086041E+02  0.98887086041E+02  0.00000000000E+00 0.  1.
         25    1    1    2    0    0 -0.13517778028E+03  0.11840278529E+03  0.91247918288E+03  0.93836853689E+03  0.12500000000E+03 0.  0.
         25    1    1    2    0    0  0.44152326129E+01 -0.16631944325E+03  0.48463176583E+03  0.52742260089E+03  0.12500000000E+03 0.  0.
         25    1    1    2    0    0  0.13076254766E+03  0.47916657961E+02  0.71090042722E+02  0.20018402573E+03  0.12500000000E+03 0.  0.
</event>
<event>
 5    0  0.5705185E-005  0.3795459E+03  0.7546771E-02  0.1051102E+00
         21   -1    0    0  502  501  0.00000000000E+00  0.00000000000E+00  0.15559619942E+04  0.15559619942E+04  0.00000000000E+00 0. -1.
         21   -1    0    0  501  502 -0.00000000000E+00 -0.00000000000E+00 -0.92582653241E+02  0.92582653241E+02  0.00000000000E+00 0. -1.
         25    1    1    2    0    0 -0.23331205998E+03  0.62441179031E+02  0.33693656799E+03  0.43299499884E+03  0.12500000000E+03 0.  0.
         25    1    1    2    0    0  0.17466471400E+03 -0.95785304253E+02  0.32242328450E+03  0.39907939212E+03  0.12500000000E+03 0.  0.
         25    1    1    2    0    0  0.58647345979E+02  0.33344125221E+02  0.80401948851E+03  0.81647025652E+03  0.12500000000E+03 0.  0.
</event>
<event>
 5    0  0.5705185E-005  0.3625990E+03  0.7546771E-02  0.1057560E+00
         21   -1    0    0  502  501  0.00000000000E+00  0.00000000000E+00  0.30699313022E+03  0.30699313022E+03  0.00000000000E+00 0. -1.
         21   -1    0    0  501  502 -0.00000000000E+00 -0.00000000000E+00 -0.42827669536E+03  0.42827669536E+03  0.00000000000E+00 0. -1.
         25    1    1    2    0    0 -0.13172824579E+03  0.71024136441E+02  0.21795331313E+02  0.19620600185E+03  0.12500000000E+03 0.  0.
         25    1    1    2    0    0 -0.15819314746E+02  0.16652431450E+03 -0.93390951433E+02  0.22875197889E+03  0.12500000000E+03 0.  0.
         25    1    1    2    0    0  0.14754756053E+03 -0.23754845094E+03 -0.49687945019E+02  0.31031184483E+03  0.12500000000E+03 0.  0.
</event>
<event>
 5    0  0.5705185E-005  0.4211813E+03  0.7546771E-02  0.1036683E+00
         21   -1    0    0  502  501  0.00000000000E+00  0.00000000000E+00  0.17207230798E+04  0.17207230798E+04  0.00000000000E+00 0. -1.
         21   -1    0    0  501  502 -0.00000000000E+00 -0.00000000000E+00 -0.10309250113E+03  0.10309250113E+03  0.00000000000E+00 0. -1.
         25    1    1    2    0    0  0.22902106680E+03 -0.10199901225E+03  0.27569816072E+03  0.39305078980E+03  0.12500000000E+03 0.  0.
         25    1    1    2    0    0 -0.63348257113E+02  0.19810554416E+03  0.91262916572E+03  0.94433881760E+03  0.12500000000E+03 0.  0.
         25    1    1    2    0    0 -0.16567280969E+03 -0.96106531910E+02  0.42930325220E+03  0.48642597350E+03  0.12500000000E+03 0.  0.
</event>
<event>
 5    0  0.5859961E-005  0.4500591E+03  0.7546771E-02  0.1027704E+00
         21   -1    0    0  502  501  0.00000000000E+00  0.00000000000E+00  0.60277887883E+03  0.60277887883E+03  0.00000000000E+00 0.  1.
         21   -1    0    0  501  502 -0.00000000000E+00 -0.00000000000E+00 -0.33603226146E+03  0.33603226146E+03  0.00000000000E+00 0.  1.
         25    1    1    2    0    0  0.21528502441E+02 -0.27942001647E+03  0.14458764855E+03  0.33921911817E+03  0.12500000000E+03 0.  0.
         25    1    1    2    0    0 -0.22957333077E+03  0.12717460721E+03  0.69128993440E+01  0.29077496986E+03  0.12500000000E+03 0.  0.
         25    1    1    2    0    0  0.20804482833E+03  0.15224540926E+03  0.11524606948E+03  0.30881705226E+03  0.12500000000E+03 0.  0.
</event>
<event>
 5    0  0.5705185E-005  0.2982693E+03  0.7546771E-02  0.1086109E+00
         21   -1    0    0  502  501  0.00000000000E+00  0.00000000000E+00  0.91609079125E+03  0.91609079125E+03  0.00000000000E+00 0.  1.
         21   -1    0    0  501  502 -0.00000000000E+00 -0.00000000000E+00 -0.97113284629E+02  0.97113284629E+02  0.00000000000E+00 0.  1.
         25    1    1    2    0    0 -0.70582902534E+01 -0.12180294385E+03  0.16797181988E+03  0.24233305360E+03  0.12500000000E+03 0.  0.
         25    1    1    2    0    0 -0.49285541254E+02  0.28464418825E+02  0.56993704415E+03  0.58625295054E+03  0.12500000000E+03 0.  0.
         25    1    1    2    0    0  0.56343831507E+02  0.93338525030E+02  0.81068642593E+02  0.18461807175E+03  0.12500000000E+03 0.  0.
</event>
<event>
 5    0  0.6099767E-005  0.3086365E+03  0.7546771E-02  0.1081001E+00
         21   -1    0    0  502  501  0.00000000000E+00  0.00000000000E+00  0.20850350489E+03  0.20850350489E+03  0.00000000000E+00 0. -1.
         21   -1    0    0  501  502 -0.00000000000E+00 -0.00000000000E+00 -0.45685787194E+03  0.45685787194E+03  0.00000000000E+00 0. -1.
         25    1    1    2    0    0 -0.25791070980E+02  0.11597093527E+03 -0.10146427177E+03  0.20008607052E+03  0.12500000000E+03 0.  0.
         25    1    1    2    0    0 -0.63501822341E+02  0.14743917589E+02  0.79673612171E+02  0.16193439728E+03  0.12500000000E+03 0.  0.
         25    1    1    2    0    0  0.89292893320E+02 -0.13071485286E+03 -0.22656370746E+03  0.30334090903E+03  0.12500000000E+03 0.  0.
</event>
<event>
 5    0  0.5705185E-005  0.6985144E+03  0.7546771E-02  0.9719776E-01
         21   -1    0    0  502  501  0.00000000000E+00  0.00000000000E+00  0.10656059621E+04  0.10656059621E+04  0.00000000000E+00 0.  1.
         21   -1    0    0  501  502 -0.00000000000E+00 -0.00000000000E+00 -0.45788252355E+03  0.45788252355E+03  0.00000000000E+00 0. -1.
         25    1    1    2    0    0  0.24946651690E+03 -0.27738861594E+03  0.20349959438E+03  0.44296170514E+03  0.12500000000E+03 0.  0.
         25    1    1    2    0    0  0.75675857583E+02 -0.18730166796E+03 -0.14737948998E+03  0.27956119957E+03  0.12500000000E+03 0.  0.
         25    1    1    2    0    0 -0.32514237448E+03  0.46469028389E+03  0.55160333417E+03  0.80096558097E+03  0.12500000000E+03 0.  0.
</event>
<event>
 5    0  0.5705185E-005  0.3362962E+03  0.7546771E-02  0.1068384E+00
         21   -1    0    0  502  501  0.00000000000E+00  0.00000000000E+00  0.52415311687E+03  0.52415311687E+03  0.00000000000E+00 0.  1.
         21   -1    0    0  501  502 -0.00000000000E+00 -0.00000000000E+00 -0.21576734255E+03  0.21576734255E+03  0.00000000000E+00 0.  1.
         25    1    1    2    0    0 -0.33450575445E+02 -0.53694246432E+02  0.63528198365E+02  0.15382732230E+03  0.12500000000E+03 0.  0.
         25    1    1    2    0    0  0.14536197259E+03 -0.11590321437E+02 -0.85210387608E+02  0.21011960589E+03  0.12500000000E+03 0.  0.
         25    1    1    2    0    0 -0.11191139714E+03  0.65284567869E+02  0.33006796357E+03  0.37597353123E+03  0.12500000000E+03 0.  0.
</event>
<event>
 5    0  0.5705185E-005  0.5075934E+03  0.7546771E-02  0.1011816E+00
         21   -1    0    0  502  501  0.00000000000E+00  0.00000000000E+00  0.12008077256E+04  0.12008077256E+04  0.00000000000E+00 0.  1.
         21   -1    0    0  501  502 -0.00000000000E+00 -0.00000000000E+00 -0.21456482007E+03  0.21456482007E+03  0.00000000000E+00 0.  1.
         25    1    1    2    0    0 -0.10381417607E+03 -0.88949549216E+02  0.31166074873E+01  0.18526769470E+03  0.12500000000E+03 0.  0.
         25    1    1    2    0    0  0.32455060836E+03 -0.11873646121E+03  0.30766681436E+03  0.47928625399E+03  0.12500000000E+03 0.  0.
         25    1    1    2    0    0 -0.22073643229E+03  0.20768601043E+03  0.67545948371E+03  0.75081859700E+03  0.12500000000E+03 0.  0.
</event>
<event>
 5    0  0.5705185E-005  0.3733324E+03  0.7546771E-02  0.1053426E+00
         21   -1    0    0  502  501  0.00000000000E+00  0.00000000000E+00  0.86043239284E+02  0.86043239284E+02  0.00000000000E+00 0.  1.
         21   -1    0    0  501  502 -0.00000000000E+00 -0.00000000000E+00 -0.16198495094E+04  0.16198495094E+04  0.00000000000E+00 0.  1.
         25    1    1    2    0    0 -0.22100150071E+03  0.80414613869E+01 -0.32182928676E+03  0.41000660754E+03  0.12500000000E+03 0.  0.
         25    1    1    2    0    0 -0.38923126048E+02  0.43145827493E+02 -0.20398520162E+03  0.24619409955E+03  0.12500000000E+03 0.  0.
         25    1    1    2    0    0  0.25992462675E+03 -0.51187288880E+02 -0.10079917818E+04  0.10496920416E+04  0.12500000000E+03 0.  0.
</event>
<event>
 5    0  0.8350263E-005  0.3576402E+03  0.7546771E-02  0.1059522E+00
         21   -1    0    0  502  501  0.00000000000E+00  0.00000000000E+00  0.72552665706E+03  0.72552665706E+03  0.00000000000E+00 0.  1.
         21   -1    0    0  501  502 -0.00000000000E+00 -0.00000000000E+00 -0.17629472863E+03  0.17629472863E+03  0.00000000000E+00 0.  1.
         25    1    1    2    0    0 -0.63626228458E+02 -0.52249857859E+02 -0.32470247007E+02  0.15315894207E+03  0.12500000000E+03 0.  0.
         25    1    1    2    0    0 -0.69026064970E+02 -0.10435637377E+03  0.42878430702E+03  0.46382737343E+03  0.12500000000E+03 0.  0.
         25    1    1    2    0    0  0.13265229343E+03  0.15660623162E+03  0.15291786841E+03  0.28483507020E+03  0.12500000000E+03 0.  0.
</event>
<event>
 5    0  0.5705185E-005  0.3054135E+03  0.7546771E-02  0.1082565E+00
         21   -1    0    0  502  501  0.00000000000E+00  0.00000000000E+00  0.12389266610E+04  0.12389266610E+04  0.00000000000E+00 0. -1.
         21   -1    0    0  501  502 -0.00000000000E+00 -0.00000000000E+00 -0.75288893602E+02  0.75288893602E+02  0.00000000000E+00 0. -1.
         25    1    1    2    0    0  0.10617952794E+03  0.29838624077E+02  0.32931129962E+03  0.36910075548E+03  0.12500000000E+03 0.  0.
         25    1    1    2    0    0 -0.10261417695E+03 -0.13150415628E+03  0.71450785287E+03  0.74429126304E+03  0.12500000000E+03 0.  0.
         25    1    1    2    0    0 -0.35653509950E+01  0.10166553221E+03  0.11981861493E+03  0.20082353609E+03  0.12500000000E+03 0.  0.
</event>
<event>
 5    0  0.5705185E-005  0.5680316E+03  0.7546771E-02  0.9974044E-01
         21   -1    0    0  502  501  0.00000000000E+00  0.00000000000E+00  0.54382215770E+03  0.54382215770E+03  0.00000000000E+00 0. -1.
         21   -1    0    0  501  502 -0.00000000000E+00 -0.00000000000E+00 -0.59331874482E+03  0.59331874482E+03  0.00000000000E+00 0. -1.
         25    1    1    2    0    0  0.23455718642E+03  0.55464138680E+02 -0.30551754264E+03  0.40872889944E+03  0.12500000000E+03 0.  0.
         25    1    1    2    0    0 -0.36665780976E+03 -0.86466696362E+02  0.34287225731E+03  0.52450054706E+03  0.12500000000E+03 0.  0.
         25    1    1    2    0    0  0.13210062334E+03  0.31002557682E+02 -0.86851301788E+02  0.20391145601E+03  0.12500000000E+03 0.  0.
</event>
<event>
 5    0  0.5705185E-005  0.2570107E+03  0.7546771E-02  0.1108953E+00
         21   -1    0    0  502  501  0.00000000000E+00  0.00000000000E+00  0.98278773895E+03  0.98278773895E+03  0.00000000000E+00 0.  1.
         21   -1    0    0  501  502 -0.00000000000E+00 -0.00000000000E+00 -0.67211335182E+02  0.67211335182E+02  0.00000000000E+00 0.  1.
         25    1    1    2    0    0 -0.66115112443E+02 -0.99223412011E+02  0.22307368978E+03  0.28214068239E+03  0.12500000000E+03 0.  0.
         25    1    1    2    0    0  0.12411433036E+03  0.39212493025E+02  0.34844195876E+03  0.39240130636E+03  0.12500000000E+03 0.  0.
         25    1    1    2    0    0 -0.57999217921E+02  0.60010918986E+02  0.34406075523E+03  0.37545708538E+03  0.12500000000E+03 0.  0.
</event>
<event>
 5    0  0.5705185E-005  0.4343617E+03  0.7546771E-02  0.1032491E+00
         21   -1    0    0  502  501  0.00000000000E+00  0.00000000000E+00  0.23264214189E+03  0.23264214189E+03  0.00000000000E+00 0.  1.
         21   -1    0    0  501  502 -0.00000000000E+00 -0.00000000000E+00 -0.81098829442E+03  0.81098829442E+03  0.00000000000E+00 0.  1.
         25    1    1    2    0    0  0.22230530856E+03  0.15369858954E+03  0.56344169739E+02  0.30305539444E+03  0.12500000000E+03 0.  0.
         25    1    1    2    0    0 -0.93626505550E+02 -0.12458632013E+03 -0.32495537869E+03  0.38145598940E+03  0.12500000000E+03 0.  0.
         25    1    1    2    0    0 -0.12867880301E+03 -0.29112269406E+02 -0.30973494358E+03  0.35911905247E+03  0.12500000000E+03 0.  0.
</event>
<event>
 5    0  0.5984637E-005  0.4233616E+03  0.7546771E-02  0.1035978E+00
         21   -1    0    0  502  501  0.00000000000E+00  0.00000000000E+00  0.87416448736E+03  0.87416448736E+03  0.00000000000E+00 0. -1.
         21   -1    0    0  501  502 -0.00000000000E+00 -0.00000000000E+00 -0.20503586048E+03  0.20503586048E+03  0.00000000000E+00 0. -1.
         25    1    1    2    0    0  0.10860516487E+03 -0.32574323888E+02  0.33552679211E+02  0.17206670420E+03  0.12500000000E+03 0.  0.
         25    1    1    2    0    0  0.20449878303E+03  0.10521764428E+03  0.43639126079E+03  0.50887408798E+03  0.12500000000E+03 0.  0.
         25    1    1    2    0    0 -0.31310394789E+03 -0.72643320395E+02  0.19918468688E+03  0.39825955566E+03  0.12500000000E+03 0.  0.
</event>
<event>
 5    0  0.5705185E-005  0.4057507E+03  0.7546771E-02  0.1041806E+00
         21   -1    0    0  502  501  0.00000000000E+00  0.00000000000E+00  0.11165671484E+04  0.11165671484E+04  0.00000000000E+00 0. -1.
         21   -1    0    0  501  502 -0.00000000000E+00 -0.00000000000E+00 -0.14744622443E+03  0.14744622443E+03  0.00000000000E+00 0. -1.
         25    1    1    2    0    0 -0.26047706370E+03 -0.21466121263E+03  0.40539397485E+03  0.54212269069E+03  0.12500000000E+03 0.  0.
         25    1    1    2    0    0  0.33952719997E+02  0.86845319709E+02  0.14219121565E+03  0.21104084571E+03  0.12500000000E+03 0.  0.
         25    1    1    2    0    0  0.22652434370E+03  0.12781589292E+03  0.42153573348E+03  0.51084983642E+03  0.12500000000E+03 0.  0.
</event>
<event>
 5    0  0.5744808E-005  0.2878306E+03  0.7546771E-02  0.1091487E+00
         21   -1    0    0  502  501  0.00000000000E+00  0.00000000000E+00  0.59207170015E+03  0.59207170015E+03  0.00000000000E+00 0. -1.
         21   -1    0    0  501  502 -0.00000000000E+00 -0.00000000000E+00 -0.13992634610E+03  0.13992634610E+03  0.00000000000E+00 0. -1.
         25    1    1    2    0    0 -0.81002750653E+02 -0.24181289122E+02  0.33347727690E+03  0.36603042847E+03  0.12500000000E+03 0.  0.
         25    1    1    2    0    0  0.12673562361E+03 -0.45994282621E+01 -0.10360978788E+02  0.17836878346E+03  0.12500000000E+03 0.  0.
         25    1    1    2    0    0 -0.45732872953E+02  0.28780717384E+02  0.12902905594E+03  0.18759883432E+03  0.12500000000E+03 0.  0.
</event>
<event>
 5    0  0.5705185E-005  0.3075708E+03  0.7546771E-02  0.1081516E+00
         21   -1    0    0  502  501  0.00000000000E+00  0.00000000000E+00  0.54199447873E+03  0.54199447873E+03  0.00000000000E+00 0.  1.
         21   -1    0    0  501  502 -0.00000000000E+00 -0.00000000000E+00 -0.17454013451E+03  0.17454013451E+03  0.00000000000E+00 0.  1.
         25    1    1    2    0    0 -0.27356236773E+02 -0.55095994954E+02  0.13810072664E+03  0.19616509131E+03  0.12500000000E+03 0.  0.
         25    1    1    2    0    0 -0.18073994987E+03  0.34565323443E+02  0.12668667992E+03  0.25600040221E+03  0.12500000000E+03 0.  0.
         25    1    1    2    0    0  0.20809618665E+03  0.20530671511E+02  0.10266693767E+03  0.26436911972E+03  0.12500000000E+03 0.  0.
</event>
<event>
 5    0  0.5705185E-005  0.5854321E+03  0.7546771E-02  0.9936099E-01
         21   -1    0    0  502  501  0.00000000000E+00  0.00000000000E+00  0.11072548345E+04  0.11072548345E+04  0.00000000000E+00 0. -1.
         21   -1    0    0  501  502 -0.00000000000E+00 -0.00000000000E+00 -0.30953191376E+03  0.30953191376E+03  0.00000000000E+00 0. -1.
         25    1    1    2    0    0  0.33437783809E+02  0.93966172949E+02 -0.80648007911E+02  0.17910005088E+03  0.12500000000E+03 0.  0.
         25    1    1    2    0    0  0.17306488347E+03  0.32397314459E+03  0.35746847897E+03  0.52755925332E+03  0.12500000000E+03 0.  0.
         25    1    1    2    0    0 -0.20650266728E+03 -0.41793931754E+03  0.52090244971E+03  0.71012744409E+03  0.12500000000E+03 0.  0.
</event>
<event>
 5    0  0.5705185E-005  0.2739101E+03  0.7546771E-02  0.1099062E+00
         21   -1    0    0  502  501  0.00000000000E+00  0.00000000000E+00  0.33079651997E+03  0.33079651997E+03  0.00000000000E+00 0.  1.
         21   -1    0    0  501  502 -0.00000000000E+00 -0.00000000000E+00 -0.22680631192E+03  0.22680631192E+03  0.00000000000E+00 0.  1.
         25    1    1    2    0    0 -0.29033678825E+02  0.99259334337E+02 -0.37222877261E+02  0.16645093136E+03  0.12500000000E+03 0.  0.
         25    1    1    2    0    0  0.10942144903E+03 -0.28007849275E+02 -0.82303924743E+01  0.16867196711E+03  0.12500000000E+03 0.  0.
         25    1    1    2    0    0 -0.80387770203E+02 -0.71251485062E+02  0.14944347778E+03  0.22247993342E+03  0.12500000000E+03 0.  0.
</event>
<event>
 5    0  0.5705185E-005  0.3056067E+03  0.7546771E-02  0.1082471E+00
         21   -1    0    0  502  501  0.00000000000E+00  0.00000000000E+00  0.17872506559E+03  0.17872506559E+03  0.00000000000E+00 0. -1.
         21   -1    0    0  501  502 -0.00000000000E+00 -0.00000000000E+00 -0.52256491922E+03  0.52256491922E+03  0.00000000000E+00 0. -1.
         25    1    1    2    0    0  0.16931104908E+03 -0.45983398565E+02 -0.15540988365E+03  0.26562743876E+03  0.12500000000E+03 0.  0.
         25    1    1    2    0    0 -0.19501641741E+03  0.98122991945E+02 -0.14856712073E+03  0.29215871367E+03  0.12500000000E+03 0.  0.
         25    1    1    2    0    0  0.25705368334E+02 -0.52139593381E+02 -0.39862849248E+02  0.14350383239E+03  0.12500000000E+03 0.  0.
</event>
<event>
 5    0  0.5705185E-005  0.3367356E+03  0.7546771E-02  0.1068195E+00
         21   -1    0    0  502  501  0.00000000000E+00  0.00000000000E+00  0.11747049044E+04  0.11747049044E+04  0.00000000000E+00 0. -1.
         21   -1    0    0  501  502 -0.00000000000E+00 -0.00000000000E+00 -0.96527122077E+02  0.96527122077E+02  0.00000000000E+00 0. -1.
         25    1    1    2    0    0  0.70581872859E+02  0.37570349870E+02  0.18878927810E+03  0.24012439171E+03  0.12500000000E+03 0.  0.
         25    1    1    2    0    0 -0.11242462801E+02  0.20088761097E+03  0.50796426206E+03  0.56047740074E+03  0.12500000000E+03 0.  0.
         25    1    1    2    0    0 -0.59339410058E+02 -0.23845796084E+03  0.38142424217E+03  0.47063023404E+03  0.12500000000E+03 0.  0.
</event>
<event>
 5    0  0.5705185E-005  0.3231136E+03  0.7546771E-02  0.1074225E+00
         21   -1    0    0  502  501  0.00000000000E+00  0.00000000000E+00  0.39418574267E+03  0.39418574267E+03  0.00000000000E+00 0. -1.
         21   -1    0    0  501  502 -0.00000000000E+00 -0.00000000000E+00 -0.26485583762E+03  0.26485583762E+03  0.00000000000E+00 0. -1.
         25    1    1    2    0    0 -0.70749347911E+02  0.14249556604E+03 -0.22630238391E+02  0.20358679786E+03  0.12500000000E+03 0.  0.
         25    1    1    2    0    0 -0.56016464658E+02 -0.22417394580E+02  0.19209782959E+03  0.23699569621E+03  0.12500000000E+03 0.  0.
         25    1    1    2    0    0  0.12676581257E+03 -0.12007817146E+03 -0.40137686145E+02  0.21845908621E+03  0.12500000000E+03 0.  0.
</event>
<event>
 5    0  0.5705185E-005  0.2661329E+03  0.7546771E-02  0.1103513E+00
         21   -1    0    0  502  501  0.00000000000E+00  0.00000000000E+00  0.49577418473E+03  0.49577418473E+03  0.00000000000E+00 0. -1.
         21   -1    0    0  501  502 -0.00000000000E+00 -0.00000000000E+00 -0.14286088647E+03  0.14286088647E+03  0.00000000000E+00 0. -1.
         25    1    1    2    0    0  0.38043991647E+02 -0.50554543721E+02  0.19314837970E+03  0.23860931200E+03  0.12500000000E+03 0.  0.
         25    1    1    2    0    0 -0.57824399476E+02  0.72623721470E+02 -0.41608368469E+02  0.16116489203E+03  0.12500000000E+03 0.  0.
         25    1    1    2    0    0  0.19780407829E+02 -0.22069177749E+02  0.20137328703E+03  0.23886086718E+03  0.12500000000E+03 0.  0.
</event>
<event>
 5    0  0.5705185E-005  0.2316428E+03  0.7546771E-02  0.1125489E+00
         21   -1    0    0  502  501  0.00000000000E+00  0.00000000000E+00  0.12464232726E+03  0.12464232726E+03  0.00000000000E+00 0.  1.
         21   -1    0    0  501  502 -0.00000000000E+00 -0.00000000000E+00 -0.43049885039E+03  0.43049885039E+03  0.00000000000E+00 0.  1.
         25    1    1    2    0    0  0.47930705982E+02  0.94757133545E+02 -0.12998228651E+03  0.20927651980E+03  0.12500000000E+03 0.  0.
         25    1    1    2    0    0 -0.66048874605E+02 -0.70050782055E+02 -0.14321687054E+03  0.21308598713E+03  0.12500000000E+03 0.  0.
         25    1    1    2    0    0  0.18118168623E+02 -0.24706351490E+02 -0.32657366084E+02  0.13277867072E+03  0.12500000000E+03 0.  0.
</event>
<event>
 5    0  0.5705185E-005  0.2791386E+03  0.7546771E-02  0.1096160E+00
         21   -1    0    0  502  501  0.00000000000E+00  0.00000000000E+00  0.77957696985E+02  0.77957696985E+02  0.00000000000E+00 0. -1.
         21   -1    0    0  501  502 -0.00000000000E+00 -0.00000000000E+00 -0.99949552530E+03  0.99949552530E+03  0.00000000000E+00 0. -1.
         25    1    1    2    0    0 -0.16452938332E+02  0.64187945248E+02 -0.31262006560E+03  0.34314296862E+03  0.12500000000E+03 0.  0.
         25    1    1    2    0    0  0.16506703571E+03 -0.40638095455E+02 -0.36545682175E+03  0.42199794981E+03  0.12500000000E+03 0.  0.
         25    1    1    2    0    0 -0.14861409738E+03 -0.23549849794E+02 -0.24346094096E+03  0.31231230386E+03  0.12500000000E+03 0.  0.
</event>
<event>
 5    0  0.5705185E-005  0.2539433E+03  0.7546771E-02  0.1110838E+00
         21   -1    0    0  502  501  0.00000000000E+00  0.00000000000E+00  0.17528010169E+03  0.17528010169E+03  0.00000000000E+00 0. -1.
         21   -1    0    0  501  502 -0.00000000000E+00 -0.00000000000E+00 -0.36790931455E+03  0.36790931455E+03  0.00000000000E+00 0. -1.
         25    1    1    2    0    0 -0.15542571340E+02  0.45415177837E+02 -0.17239968307E+03  0.21829054177E+03  0.12500000000E+03 0.  0.
         25    1    1    2    0    0  0.10255917622E+03  0.57545615511E+01  0.69704156431E+01  0.16194161386E+03  0.12500000000E+03 0.  0.
         25    1    1    2    0    0 -0.87016604878E+02 -0.51169739388E+02 -0.27199945424E+02  0.16295726061E+03  0.12500000000E+03 0.  0.
</event>
<event>
 5    0  0.5705185E-005  0.2834465E+03  0.7546771E-02  0.1093821E+00
         21   -1    0    0  502  501  0.00000000000E+00  0.00000000000E+00  0.66374801681E+03  0.66374801681E+03  0.00000000000E+00 0.  1.
         21   -1    0    0  501  502 -0.00000000000E+00 -0.00000000000E+00 -0.12104277722E+03  0.12104277722E+03  0.00000000000E+00 0.  1.
         25    1    1    2    0    0 -0.62469081245E+02 -0.18364621753E+02  0.13963599780E+03  0.19840074931E+03  0.12500000000E+03 0.  0.
         25    1    1    2    0    0  0.25220247474E+02  0.37459907658E+02  0.43152740633E+03  0.45153096015E+03  0.12500000000E+03 0.  0.
         25    1    1    2    0    0  0.37248833772E+02 -0.19095285906E+02 -0.28458164540E+02  0.13485908457E+03  0.12500000000E+03 0.  0.
</event>
<event>
 5    0  0.5705185E-005  0.4331502E+03  0.7546771E-02  0.1032869E+00
         21   -1    0    0  502  501  0.00000000000E+00  0.00000000000E+00  0.69360184788E+03  0.69360184788E+03  0.00000000000E+00 0.  1.
         21   -1    0    0  501  502 -0.00000000000E+00 -0.00000000000E+00 -0.27049973628E+03  0.27049973628E+03  0.00000000000E+00 0.  1.
         25    1    1    2    0    0  0.17410514591E+03  0.15363084957E+03  0.33386252181E+03  0.42544591106E+03  0.12500000000E+03 0.  0.
         25    1    1    2    0    0 -0.28618240499E+03 -0.13768349379E+02  0.47241010682E+02  0.31614340015E+03  0.12500000000E+03 0.  0.
         25    1    1    2    0    0  0.11207725908E+03 -0.13986250019E+03  0.41998579105E+02  0.22251227294E+03  0.12500000000E+03 0.  0.
</event>
<event>
 5    0  0.5705185E-005  0.2657729E+03  0.7546771E-02  0.1103724E+00
         21   -1    0    0  502  501  0.00000000000E+00  0.00000000000E+00  0.44545778453E+02  0.44545778453E+02  0.00000000000E+00 0. -1.
         21   -1    0    0  501  502 -0.00000000000E+00 -0.00000000000E+00 -0.15856773502E+04  0.15856773502E+04  0.00000000000E+00 0. -1.
         25    1    1    2    0    0  0.66829480954E+02  0.61632026794E+02 -0.31542339623E+03  0.35125717807E+03  0.12500000000E+03 0.  0.
         25    1    1    2    0    0 -0.14448387454E+03 -0.69418829595E+02 -0.87978353044E+03  0.90296103146E+03  0.12500000000E+03 0.  0.
         25    1    1    2    0    0  0.77654393586E+02  0.77868028011E+01 -0.34592464512E+03  0.37600491917E+03  0.12500000000E+03 0.  0.
</event>
<event>
 5    0  0.5705185E-005  0.4305129E+03  0.7546771E-02  0.1033698E+00
         21   -1    0    0  502  501  0.00000000000E+00  0.00000000000E+00  0.11715627683E+04  0.11715627683E+04  0.00000000000E+00 0.  1.
         21   -1    0    0  501  502 -0.00000000000E+00 -0.00000000000E+00 -0.15820011269E+03  0.15820011269E+03  0.00000000000E+00 0.  1.
         25    1    1    2    0    0  0.20372413166E+03  0.20973778378E+03  0.66803346800E+03  0.73985618476E+03  0.12500000000E+03 0.  0.
         25    1    1    2    0    0 -0.21320493450E+03 -0.24490147181E+03  0.25746250243E+03  0.43283370380E+03  0.12500000000E+03 0.  0.
         25    1    1    2    0    0  0.94808028437E+01  0.35163688035E+02  0.87866685165E+02  0.15707299240E+03  0.12500000000E+03 0.  0.
</event>
<event>
 5    0  0.5705185E-005  0.2046800E+03  0.7546771E-02  0.1145849E+00
         21   -1    0    0  502  501  0.00000000000E+00  0.00000000000E+00  0.45886020701E+02  0.45886020701E+02  0.00000000000E+00 0. -1.
         21   -1    0    0  501  502 -0.00000000000E+00 -0.00000000000E+00 -0.91299942948E+03  0.91299942948E+03  0.00000000000E+00 0. -1.
         25    1    1    2    0    0 -0.15676210848E+02 -0.74742006664E+01 -0.29040394045E+03  0.31664026259E+03  0.12500000000E+03 0.  0.
         25    1    1    2    0    0 -0.35767312062E+02 -0.21424720500E+02 -0.18711797954E+03  0.22885903419E+03  0.12500000000E+03 0.  0.
         25    1    1    2    0    0  0.51443522910E+02  0.28898921167E+02 -0.38959148878E+03  0.41338615340E+03  0.12500000000E+03 0.  0.
</event>
<event>
 5    0  0.5705185E-005  0.3255049E+03  0.7546771E-02  0.1073143E+00
         21   -1    0    0  502  501  0.00000000000E+00  0.00000000000E+00  0.20143264171E+03  0.20143264171E+03  0.00000000000E+00 0.  1.
         21   -1    0    0  501  502 -0.00000000000E+00 -0.00000000000E+00 -0.52599948832E+03  0.52599948832E+03  0.00000000000E+00 0.  1.
         25    1    1    2    0    0 -0.58288103938E+02 -0.61446105832E+02 -0.21859523564E+03  0.26567273858E+03  0.12500000000E+03 0.  0.
         25    1    1    2    0    0  0.86253111224E+01  0.17084743537E+03  0.61594478342E+02  0.22064025454E+03  0.12500000000E+03 0.  0.
         25    1    1    2    0    0  0.49662792815E+02 -0.10940132953E+03 -0.16756608931E+03  0.24111913690E+03  0.12500000000E+03 0.  0.
</event>
<event>
 5    0  0.5791305E-005  0.2445411E+03  0.7546771E-02  0.1116804E+00
         21   -1    0    0  502  501  0.00000000000E+00  0.00000000000E+00  0.16503475675E+03  0.16503475675E+03  0.00000000000E+00 0. -1.
         21   -1    0    0  501  502 -0.00000000000E+00 -0.00000000000E+00 -0.36234993366E+03  0.36234993366E+03  0.00000000000E+00 0. -1.
         25    1    1    2    0    0  0.17675804080E+01  0.67244570343E+02  0.50546869906E+02  0.15068159356E+03  0.12500000000E+03 0.  0.
         25    1    1    2    0    0  0.47067404573E+02 -0.34393281563E+02 -0.80568688366E+02  0.15973275160E+03  0.12500000000E+03 0.  0.
         25    1    1    2    0    0 -0.48834984981E+02 -0.32851288780E+02 -0.16729335845E+03  0.21697034524E+03  0.12500000000E+03 0.  0.
</event>
<event>
 5    0  0.5705185E-005  0.2362699E+03  0.7546771E-02  0.1122303E+00
         21   -1    0    0  502  501  0.00000000000E+00  0.00000000000E+00  0.32684554526E+03  0.32684554526E+03  0.00000000000E+00 0.  1.
         21   -1    0    0  501  502 -0.00000000000E+00 -0.00000000000E+00 -0.17079464136E+03  0.17079464136E+03  0.00000000000E+00 0.  1.
         25    1    1    2    0    0  0.39851623931E+02  0.89771798286E+02 -0.25555458992E+02  0.16101307146E+03  0.12500000000E+03 0.  0.
         25    1    1    2    0    0  0.16948637287E+02 -0.29402228337E+02  0.11218622574E+03  0.17135488491E+03  0.12500000000E+03 0.  0.
         25    1    1    2    0    0 -0.56800261219E+02 -0.60369569950E+02  0.69420137152E+02  0.16527223025E+03  0.12500000000E+03 0.  0.
</event>
<event>
 5    0  0.5705185E-005  0.3056581E+03  0.7546771E-02  0.1082446E+00
         21   -1    0    0  502  501  0.00000000000E+00  0.00000000000E+00  0.52307227169E+02  0.52307227169E+02  0.00000000000E+00 0.  1.
         21   -1    0    0  501  502 -0.00000000000E+00 -0.00000000000E+00 -0.17861181876E+04  0.17861181876E+04  0.00000000000E+00 0.  1.
         25    1    1    2    0    0  0.11170407471E+03  0.89892400928E+01 -0.38668881511E+03  0.42155882920E+03  0.12500000000E+03 0.  0.
         25    1    1    2    0    0  0.82977313645E+02  0.76146199619E+02 -0.78874333736E+03  0.80648901451E+03  0.12500000000E+03 0.  0.
         25    1    1    2    0    0 -0.19468138836E+03 -0.85135439712E+02 -0.55837880793E+03  0.61037757102E+03  0.12500000000E+03 0.  0.
</event>
<event>
 5    0  0.5705185E-005  0.4212897E+03  0.7546771E-02  0.1036647E+00
         21   -1    0    0  502  501  0.00000000000E+00  0.00000000000E+00  0.55755248068E+03  0.55755248068E+03  0.00000000000E+00 0. -1.
         21   -1    0    0  501  502 -0.00000000000E+00 -0.00000000000E+00 -0.31832875220E+03  0.31832875220E+03  0.00000000000E+00 0. -1.
         25    1    1    2    0    0 -0.21410300351E+03  0.96397624257E+02 -0.10296420869E+03  0.28523538761E+03  0.12500000000E+03 0.  0.
         25    1    1    2    0    0  0.21182124600E+03 -0.30546897762E+02  0.37125742494E+03  0.44638372371E+03  0.12500000000E+03 0.  0.
         25    1    1    2    0    0  0.22817575100E+01 -0.65850726495E+02 -0.29069487771E+02  0.14426212156E+03  0.12500000000E+03 0.  0.
</event>
<event>
 5    0  0.5705185E-005  0.3373923E+03  0.7546771E-02  0.1067912E+00
         21   -1    0    0  502  501  0.00000000000E+00  0.00000000000E+00  0.27702654794E+03  0.27702654794E+03  0.00000000000E+00 0. -1.
         21   -1    0    0  501  502 -0.00000000000E+00 -0.00000000000E+00 -0.41091217318E+03  0.41091217318E+03  0.00000000000E+00 0. -1.
         25    1    1    2    0    0  0.18203715815E+02 -0.18872872754E+03 -0.17954343878E+02  0.22780971518E+03  0.12500000000E+03 0.  0.
         25    1    1    2    0    0 -0.45095668596E+02  0.25716999491E+03 -0.28705970813E+02  0.29089355161E+03  0.12500000000E+03 0.  0.
         25    1    1    2    0    0  0.26891952781E+02 -0.68441267371E+02 -0.87225310543E+02  0.16923545433E+03  0.12500000000E+03 0.  0.
</event>
<event>
 5    0  0.5705185E-005  0.3674756E+03  0.7546771E-02  0.1055662E+00
         21   -1    0    0  502  501  0.00000000000E+00  0.00000000000E+00  0.52381559311E+03  0.52381559311E+03  0.00000000000E+00 0. -1.
         21   -1    0    0  501  502 -0.00000000000E+00 -0.00000000000E+00 -0.25779737877E+03  0.25779737877E+03  0.00000000000E+00 0. -1.
         25    1    1    2    0    0 -0.28460690013E+03  0.37804581297E+02  0.36582976463E+02  0.31526748665E+03  0.12500000000E+03 0.  0.
         25    1    1    2    0    0  0.10247985276E+03 -0.97742524827E+00  0.17014225933E+03  0.23468375315E+03  0.12500000000E+03 0.  0.
         25    1    1    2    0    0  0.18212704737E+03 -0.36827156049E+02  0.59292978548E+02  0.23166173208E+03  0.12500000000E+03 0.  0.
</event>
<event>
 5    0  0.5705185E-005  0.2437015E+03  0.7546771E-02  0.1117351E+00
         21   -1    0    0  502  501  0.00000000000E+00  0.00000000000E+00  0.80236816382E+02  0.80236816382E+02  0.00000000000E+00 0. -1.
         21   -1    0    0  501  502 -0.00000000000E+00 -0.00000000000E+00 -0.74018918526E+03  0.74018918526E+03  0.00000000000E+00 0. -1.
         25    1    1    2    0    0 -0.58819753966E+02  0.63551113587E+02 -0.26388273390E+03  0.30456133166E+03  0.12500000000E+03 0.  0.
         25    1    1    2    0    0  0.59376993162E+02 -0.13729082031E+02 -0.55600972110E+02  0.14976843162E+03  0.12500000000E+03 0.  0.
         25    1    1    2    0    0 -0.55723919579E+00 -0.49822031556E+02 -0.34046866287E+03  0.36609623836E+03  0.12500000000E+03 0.  0.
</event>
<event>
 5    0  0.5705185E-005  0.2881449E+03  0.7546771E-02  0.1091322E+00
         21   -1    0    0  502  501  0.00000000000E+00  0.00000000000E+00  0.44474607315E+03  0.44474607315E+03  0.00000000000E+00 0.  1.
         21   -1    0    0  501  502 -0.00000000000E+00 -0.00000000000E+00 -0.18668509194E+03  0.18668509194E+03  0.00000000000E+00 0.  1.
         25    1    1    2    0    0  0.50567722716E+02 -0.14122546449E+03  0.84362083894E+02  0.21270563603E+03  0.12500000000E+03 0.  0.
         25    1    1    2    0    0 -0.60403993287E+02  0.37897702848E+02  0.20774504293E+03  0.25272095510E+03  0.12500000000E+03 0.  0.
         25    1    1    2    0    0  0.98362705710E+01  0.10332776164E+03 -0.34046145617E+02  0.16600457396E+03  0.12500000000E+03 0.  0.
</event>
<event>
 5    0  0.5705185E-005  0.3020307E+03  0.7546771E-02  0.1084230E+00
         21   -1    0    0  502  501  0.00000000000E+00  0.00000000000E+00  0.12020943371E+03  0.12020943371E+03  0.00000000000E+00 0. -1.
         21   -1    0    0  501  502 -0.00000000000E+00 -0.00000000000E+00 -0.75886329888E+03  0.75886329888E+03  0.00000000000E+00 0. -1.
         25    1    1    2    0    0 -0.47204729924E+02  0.12985625273E+03 -0.38008911362E+03  0.42330091801E+03  0.12500000000E+03 0.  0.
         25    1    1    2    0    0  0.13902668622E+03 -0.10984162734E+03 -0.12620195059E+03  0.25088948745E+03  0.12500000000E+03 0.  0.
         25    1    1    2    0    0 -0.91821956298E+02 -0.20014625382E+02 -0.13236280096E+03  0.20488232712E+03  0.12500000000E+03 0.  0.
</event>
<event>
 5    0  0.5705185E-005  0.2811522E+03  0.7546771E-02  0.1095061E+00
         21   -1    0    0  502  501  0.00000000000E+00  0.00000000000E+00  0.90828130379E+03  0.90828130379E+03  0.00000000000E+00 0. -1.
         21   -1    0    0  501  502 -0.00000000000E+00 -0.00000000000E+00 -0.87028750408E+02  0.87028750408E+02  0.00000000000E+00 0. -1.
         25    1    1    2    0    0  0.31793766464E+02  0.48599298931E+02  0.47221684418E+03  0.49192121663E+03  0.12500000000E+03 0.  0.
         25    1    1    2    0    0  0.51672911234E+02 -0.95640351888E+02  0.63717049664E+02  0.17748810969E+03  0.12500000000E+03 0.  0.
         25    1    1    2    0    0 -0.83466677697E+02  0.47041052956E+02  0.28531865953E+03  0.32590072787E+03  0.12500000000E+03 0.  0.
</event>
<event>
 5    0  0.5705185E-005  0.2244682E+03  0.7546771E-02  0.1130595E+00
         21   -1    0    0  502  501  0.00000000000E+00  0.00000000000E+00  0.40299356931E+03  0.40299356931E+03  0.00000000000E+00 0.  1.
         21   -1    0    0  501  502 -0.00000000000E+00 -0.00000000000E+00 -0.12502923912E+03  0.12502923912E+03  0.00000000000E+00 0.  1.
         25    1    1    2    0    0  0.83805299809E+02  0.76569351705E+02  0.10392884335E+03  0.19827354432E+03  0.12500000000E+03 0.  0.
         25    1    1    2    0    0 -0.52413013947E+02 -0.58495625383E+02  0.71304016450E+02  0.16394549394E+03  0.12500000000E+03 0.  0.
         25    1    1    2    0    0 -0.31392285863E+02 -0.18073726322E+02  0.10273147040E+03  0.16580377018E+03  0.12500000000E+03 0.  0.
</event>
<event>
 5    0  0.6803861E-005  0.2962924E+03  0.7546771E-02  0.1087109E+00
         21   -1    0    0  502  501  0.00000000000E+00  0.00000000000E+00  0.17058954404E+03  0.17058954404E+03  0.00000000000E+00 0. -1.
         21   -1    0    0  501  502 -0.00000000000E+00 -0.00000000000E+00 -0.51462214552E+03  0.51462214552E+03  0.00000000000E+00 0. -1.
         25    1    1    2    0    0  0.11549862709E+03 -0.76263451415E+01 -0.88638111777E+02  0.19204116449E+03  0.12500000000E+03 0.  0.
         25    1    1    2    0    0 -0.14601427106E+03  0.11558672970E+03 -0.23352570514E+03  0.32378961440E+03  0.12500000000E+03 0.  0.
         25    1    1    2    0    0  0.30515643967E+02 -0.10796038456E+03 -0.21868784562E+02  0.16938091067E+03  0.12500000000E+03 0.  0.
</event>
<event>
 5    0  0.5930825E-005  0.2754619E+03  0.7546771E-02  0.1098194E+00
         21   -1    0    0  502  501  0.00000000000E+00  0.00000000000E+00  0.66650544660E+03  0.66650544660E+03  0.00000000000E+00 0.  1.
         21   -1    0    0  501  502 -0.00000000000E+00 -0.00000000000E+00 -0.11384644840E+03  0.11384644840E+03  0.00000000000E+00 0.  1.
         25    1    1    2    0    0  0.63691176003E+02 -0.38190214899E+02 -0.18812574886E+01  0.14540838196E+03  0.12500000000E+03 0.  0.
         25    1    1    2    0    0 -0.10478534036E+03  0.55491332823E+02  0.26025118850E+03  0.31211365989E+03  0.12500000000E+03 0.  0.
         25    1    1    2    0    0  0.41094164353E+02 -0.17301117925E+02  0.29428906718E+03  0.32282985316E+03  0.12500000000E+03 0.  0.
</event>
<event>
 5    0  0.5705185E-005  0.2439258E+03  0.7546771E-02  0.1117205E+00
         21   -1    0    0  502  501  0.00000000000E+00  0.00000000000E+00  0.37603703232E+03  0.37603703232E+03  0.00000000000E+00 0.  1.
         21   -1    0    0  501  502 -0.00000000000E+00 -0.00000000000E+00 -0.15822850868E+03  0.15822850868E+03  0.00000000000E+00 0.  1.
         25    1    1    2    0    0  0.82972715693E+02 -0.79107287116E+02  0.52619726941E+02  0.17758454349E+03  0.12500000000E+03 0.  0.
         25    1    1    2    0    0 -0.10932986359E+02  0.10652353120E+03  0.56659667964E+02  0.17407501505E+03  0.12500000000E+03 0.  0.
         25    1    1    2    0    0 -0.72039729335E+02 -0.27416244087E+02  0.10852912874E+03  0.18260598245E+03  0.12500000000E+03 0.  0.
</event>
<event>
 5    0  0.5705185E-005  0.3707036E+03  0.7546771E-02  0.1054424E+00
         21   -1    0    0  502  501  0.00000000000E+00  0.00000000000E+00  0.11200995910E+03  0.11200995910E+03  0.00000000000E+00 0.  1.
         21   -1    0    0  501  502 -0.00000000000E+00 -0.00000000000E+00 -0.12268656224E+04  0.12268656224E+04  0.00000000000E+00 0.  1.
         25    1    1    2    0    0 -0.25017906215E+02  0.12640675797E+02 -0.31473012892E+03  0.33980249611E+03  0.12500000000E+03 0.  0.
         25    1    1    2    0    0 -0.17968465245E+03 -0.48251920663E+01 -0.70956802979E+03  0.74257770348E+03  0.12500000000E+03 0.  0.
         25    1    1    2    0    0  0.20470255867E+03 -0.78154837309E+01 -0.90557504638E+02  0.25649538194E+03  0.12500000000E+03 0.  0.
</event>
<event>
 5    0  0.5705185E-005  0.3085695E+03  0.7546771E-02  0.1081034E+00
         21   -1    0    0  502  501  0.00000000000E+00  0.00000000000E+00  0.76394136037E+02  0.76394136037E+02  0.00000000000E+00 0. -1.
         21   -1    0    0  501  502 -0.00000000000E+00 -0.00000000000E+00 -0.12463674420E+04  0.12463674420E+04  0.00000000000E+00 0. -1.
         25    1    1    2    0    0  0.96412851450E+02 -0.10168253247E+03 -0.87654895729E+03  0.89643619397E+03  0.12500000000E+03 0.  0.
         25    1    1    2    0    0 -0.58221458694E+02  0.81496367321E+02 -0.22835566311E+03  0.27893136255E+03  0.12500000000E+03 0.  0.
         25    1    1    2    0    0 -0.38191392756E+02  0.20186165145E+02 -0.65068685599E+02  0.14739402155E+03  0.12500000000E+03 0.  0.
</event>
<event>
 5    0  0.5705185E-005  0.2721075E+03  0.7546771E-02  0.1100079E+00
         21   -1    0    0  502  501  0.00000000000E+00  0.00000000000E+00  0.13328856771E+03  0.13328856771E+03  0.00000000000E+00 0.  1.
         21   -1    0    0  501  502 -0.00000000000E+00 -0.00000000000E+00 -0.55550520647E+03  0.55550520647E+03  0.00000000000E+00 0.  1.
         25    1    1    2    0    0 -0.17996046589E+02 -0.35597325677E+02  0.39868322779E+02  0.13713318508E+03  0.12500000000E+03 0.  0.
         25    1    1    2    0    0  0.60453258753E+02  0.62397054785E+02 -0.32796258514E+03  0.36156942099E+03  0.12500000000E+03 0.  0.
         25    1    1    2    0    0 -0.42457212164E+02 -0.26799729108E+02 -0.13412237639E+03  0.19009116811E+03  0.12500000000E+03 0.  0.
</event>
<event>
 5    0  0.5705185E-005  0.2734209E+03  0.7546771E-02  0.1099338E+00
         21   -1    0    0  502  501  0.00000000000E+00  0.00000000000E+00  0.78526885761E+03  0.78526885761E+03  0.00000000000E+00 0.  1.
         21   -1    0    0  501  502 -0.00000000000E+00 -0.00000000000E+00 -0.95201743319E+02  0.95201743319E+02  0.00000000000E+00 0.  1.
         25    1    1    2    0    0 -0.13291726925E+02 -0.11340166502E+03  0.19473220163E+03  0.25803534251E+03  0.12500000000E+03 0.  0.
         25    1    1    2    0    0 -0.10894729565E+03  0.11353131520E+03  0.24078260044E+03  0.31362419141E+03  0.12500000000E+03 0.  0.
         25    1    1    2    0    0  0.12223902258E+03 -0.12965018728E+00  0.25455231223E+03  0.30881106701E+03  0.12500000000E+03 0.  0.
</event>
<event>
 5    0  0.5705185E-005  0.3516945E+03  0.7546771E-02  0.1061922E+00
         21   -1    0    0  502  501  0.00000000000E+00  0.00000000000E+00  0.17325332670E+04  0.17325332670E+04  0.00000000000E+00 0.  1.
         21   -1    0    0  501  502 -0.00000000000E+00 -0.00000000000E+00 -0.71392015913E+02  0.71392015913E+02  0.00000000000E+00 0.  1.
         25    1    1    2    0    0 -0.17343228014E+03  0.13250539413E+03  0.83761357937E+03  0.87456157223E+03  0.12500000000E+03 0.  0.
         25    1    1    2    0    0  0.62711832670E+02 -0.36113187685E+01  0.62230704805E+03  0.63783765774E+03  0.12500000000E+03 0.  0.
         25    1    1    2    0    0  0.11072044747E+03 -0.12889407536E+03  0.20122062364E+03  0.29152605292E+03  0.12500000000E+03 0.  0.
</event>
<event>
 5    0  0.5705185E-005  0.2710022E+03  0.7546771E-02  0.1100707E+00
         21   -1    0    0  502  501  0.00000000000E+00  0.00000000000E+00  0.31507102961E+03  0.31507102961E+03  0.00000000000E+00 0.  1.
         21   -1    0    0  501  502 -0.00000000000E+00 -0.00000000000E+00 -0.23309717800E+03  0.23309717800E+03  0.00000000000E+00 0.  1.
         25    1    1    2    0    0  0.53485933598E+02 -0.97573588122E+02  0.20250492376E+01  0.16736323078E+03  0.12500000000E+03 0.  0.
         25    1    1    2    0    0 -0.14028783356E+03  0.69765615897E+02  0.10140125208E+03  0.22462219687E+03  0.12500000000E+03 0.  0.
         25    1    1    2    0    0  0.86801899959E+02  0.27807972225E+02 -0.21452449707E+02  0.15618277995E+03  0.12500000000E+03 0.  0.
</event>
<event>
 5    0  0.5705185E-005  0.2764749E+03  0.7546771E-02  0.1097630E+00
         21   -1    0    0  502  501  0.00000000000E+00  0.00000000000E+00  0.10574409575E+04  0.10574409575E+04  0.00000000000E+00 0. -1.
         21   -1    0    0  501  502 -0.00000000000E+00 -0.00000000000E+00 -0.72286161035E+02  0.72286161035E+02  0.00000000000E+00 0. -1.
         25    1    1    2    0    0  0.39230004113E+02  0.14122641064E+03  0.25056140624E+03  0.31605365143E+03  0.12500000000E+03 0.  0.
         25    1    1    2    0    0  0.40747654698E+02 -0.10489357968E+03  0.22028435665E+03  0.27715200199E+03  0.12500000000E+03 0.  0.
         25    1    1    2    0    0 -0.79977658812E+02 -0.36332830958E+02  0.51430903359E+03  0.53652146513E+03  0.12500000000E+03 0.  0.
</event>
<event>
 5    0  0.5705185E-005  0.2822249E+03  0.7546771E-02  0.1094480E+00
         21   -1    0    0  502  501  0.00000000000E+00  0.00000000000E+00  0.65420929027E+02  0.65420929027E+02  0.00000000000E+00 0.  1.
         21   -1    0    0  501  502 -0.00000000000E+00 -0.00000000000E+00 -0.12175140494E+04  0.12175140494E+04  0.00000000000E+00 0.  1.
         25    1    1    2    0    0 -0.80321387034E+02  0.17022047551E+02 -0.87496632944E+03  0.88765553734E+03  0.12500000000E+03 0.  0.
         25    1    1    2    0    0  0.37997838189E+02  0.40935858618E+02 -0.12000664726E+03  0.18206091183E+03  0.12500000000E+03 0.  0.
         25    1    1    2    0    0  0.42323548845E+02 -0.57957906169E+02 -0.15712014369E+03  0.21321852928E+03  0.12500000000E+03 0.  0.
</event>
<event>
 5    0  0.5705185E-005  0.2581443E+03  0.7546771E-02  0.1108263E+00
         21   -1    0    0  502  501  0.00000000000E+00  0.00000000000E+00  0.33675175597E+03  0.33675175597E+03  0.00000000000E+00 0.  1.
         21   -1    0    0  501  502 -0.00000000000E+00 -0.00000000000E+00 -0.19788605118E+03  0.19788605118E+03  0.00000000000E+00 0.  1.
         25    1    1    2    0    0 -0.81400411034E+01 -0.17104601622E+02  0.44714855690E+02  0.13410162559E+03  0.12500000000E+03 0.  0.
         25    1    1    2    0    0 -0.12851128942E+03 -0.59404522927E+02  0.49494405656E+02  0.19524022394E+03  0.12500000000E+03 0.  0.
         25    1    1    2    0    0  0.13665133052E+03  0.76509124549E+02  0.44656443443E+02  0.20529595762E+03  0.12500000000E+03 0.  0.
</event>
<event>
 5    0  0.5705185E-005  0.3420685E+03  0.7546771E-02  0.1065918E+00
         21   -1    0    0  502  501  0.00000000000E+00  0.00000000000E+00  0.10974281255E+04  0.10974281255E+04  0.00000000000E+00 0.  1.
         21   -1    0    0  501  502 -0.00000000000E+00 -0.00000000000E+00 -0.10662278085E+03  0.10662278085E+03  0.00000000000E+00 0.  1.
         25    1    1    2    0    0  0.34851591423E+02 -0.20365569336E+02  0.96663262868E+02  0.16308947307E+03  0.12500000000E+03 0.  0.
         25    1    1    2    0    0  0.31795015272E+02 -0.21515067092E+03  0.34127001741E+03  0.42354569880E+03  0.12500000000E+03 0.  0.
         25    1    1    2    0    0 -0.66646606695E+02  0.23551624025E+03  0.55287206439E+03  0.61741573449E+03  0.12500000000E+03 0.  0.
</event>
<event>
 5    0  0.5705185E-005  0.4007906E+03  0.7546771E-02  0.1043506E+00
         21   -1    0    0  502  501  0.00000000000E+00  0.00000000000E+00  0.31355396851E+03  0.31355396851E+03  0.00000000000E+00 0. -1.
         21   -1    0    0  501  502 -0.00000000000E+00 -0.00000000000E+00 -0.51229819445E+03  0.51229819445E+03  0.00000000000E+00 0. -1.
         25    1    1    2    0    0  0.30147153824E+03  0.14933686767E+03 -0.49427488207E+02  0.36229085692E+03  0.12500000000E+03 0.  0.
         25    1    1    2    0    0 -0.13930513551E+03 -0.91034176848E+02 -0.84808542831E+01  0.20830282529E+03  0.12500000000E+03 0.  0.
         25    1    1    2    0    0 -0.16216640274E+03 -0.58302690824E+02 -0.14083588345E+03  0.25525848076E+03  0.12500000000E+03 0.  0.
</event>
<event>
 5    0  0.5705185E-005  0.3430393E+03  0.7546771E-02  0.1065509E+00
         21   -1    0    0  502  501  0.00000000000E+00  0.00000000000E+00  0.82293986822E+03  0.82293986822E+03  0.00000000000E+00 0. -1.
         21   -1    0    0  501  502 -0.00000000000E+00 -0.00000000000E+00 -0.14299459088E+03  0.14299459088E+03  0.00000000000E+00 0. -1.
         25    1    1    2    0    0  0.11022733596E+02 -0.78353212769E+02  0.27752783891E+03  0.31449551345E+03  0.12500000000E+03 0.  0.
         25    1    1    2    0    0 -0.11975830768E+03  0.18175402187E+03  0.37923120127E+03  0.45477233947E+03  0.12500000000E+03 0.  0.
         25    1    1    2    0    0  0.10873557409E+03 -0.10340080910E+03  0.23186237159E+02  0.19666660618E+03  0.12500000000E+03 0.  0.
</event>
<event>
 5    0  0.5705185E-005  0.2799334E+03  0.7546771E-02  0.1095725E+00
         21   -1    0    0  502  501  0.00000000000E+00  0.00000000000E+00  0.49680045304E+03  0.49680045304E+03  0.00000000000E+00 0. -1.
         21   -1    0    0  501  502 -0.00000000000E+00 -0.00000000000E+00 -0.15773474073E+03  0.15773474073E+03  0.00000000000E+00 0. -1.
         25    1    1    2    0    0 -0.95785304765E+02  0.75428792690E+01  0.26183381261E+03  0.30563649171E+03  0.12500000000E+03 0.  0.
         25    1    1    2    0    0 -0.47220653419E+02 -0.17172088176E+02 -0.18496877898E+02  0.13598457712E+03  0.12500000000E+03 0.  0.
         25    1    1    2    0    0  0.14300595818E+03  0.96292089071E+01  0.95728777591E+02  0.21291412494E+03  0.12500000000E+03 0.  0.
</event>
<event>
 5    0  0.5705185E-005  0.3650868E+03  0.7546771E-02  0.1056588E+00
         21   -1    0    0  502  501  0.00000000000E+00  0.00000000000E+00  0.71925894848E+03  0.71925894848E+03  0.00000000000E+00 0. -1.
         21   -1    0    0  501  502 -0.00000000000E+00 -0.00000000000E+00 -0.18531351066E+03  0.18531351066E+03  0.00000000000E+00 0. -1.
         25    1    1    2    0    0 -0.46484759652E+02 -0.12905760392E+03  0.70632953869E+02  0.19857168021E+03  0.12500000000E+03 0.  0.
         25    1    1    2    0    0  0.14902171742E+03  0.14938554470E+03  0.48316699667E+03  0.54184763531E+03  0.12500000000E+03 0.  0.
         25    1    1    2    0    0 -0.10253695776E+03 -0.20327940778E+02 -0.19854512720E+02  0.16415314362E+03  0.12500000000E+03 0.  0.
</event>
<event>
 5    0  0.5705185E-005  0.3043055E+03  0.7546771E-02  0.1083108E+00
         21   -1    0    0  502  501  0.00000000000E+00  0.00000000000E+00  0.24418312257E+03  0.24418312257E+03  0.00000000000E+00 0.  1.
         21   -1    0    0  501  502 -0.00000000000E+00 -0.00000000000E+00 -0.37923099999E+03  0.37923099999E+03  0.00000000000E+00 0.  1.
         25    1    1    2    0    0 -0.31911560258E+02  0.35187716827E+02 -0.42385778930E+02  0.14027857053E+03  0.12500000000E+03 0.  0.
         25    1    1    2    0    0 -0.14703968240E+03  0.14136956618E+02 -0.15820212306E+03  0.24994686132E+03  0.12500000000E+03 0.  0.
         25    1    1    2    0    0  0.17895124266E+03 -0.49324673445E+02  0.65540024570E+02  0.23318869072E+03  0.12500000000E+03 0.  0.
</event>
<event>
 5    0  0.5705185E-005  0.3404260E+03  0.7546771E-02  0.1066615E+00
         21   -1    0    0  502  501  0.00000000000E+00  0.00000000000E+00  0.46173698653E+03  0.46173698653E+03  0.00000000000E+00 0.  1.
         21   -1    0    0  501  502 -0.00000000000E+00 -0.00000000000E+00 -0.25098676982E+03  0.25098676982E+03  0.00000000000E+00 0.  1.
         25    1    1    2    0    0  0.86171462430E+02 -0.20723836418E+03 -0.48401042726E+02  0.26142096599E+03  0.12500000000E+03 0.  0.
         25    1    1    2    0    0 -0.27692107546E+02  0.18740053883E+03  0.13168979495E+03  0.26239858397E+03  0.12500000000E+03 0.  0.
         25    1    1    2    0    0 -0.58479354885E+02  0.19837825352E+02  0.12746146448E+03  0.18890420639E+03  0.12500000000E+03 0.  0.
</event>
<event>
 5    0  0.5956693E-005  0.3158610E+03  0.7546771E-02  0.1077570E+00
         21   -1    0    0  502  501  0.00000000000E+00  0.00000000000E+00  0.20331723273E+03  0.20331723273E+03  0.00000000000E+00 0.  1.
         21   -1    0    0  501  502 -0.00000000000E+00 -0.00000000000E+00 -0.49070192299E+03  0.49070192299E+03  0.00000000000E+00 0.  1.
         25    1    1    2    0    0  0.10093601437E+02 -0.24708747767E+02  0.10363405528E+03  0.16455218145E+03  0.12500000000E+03 0.  0.
         25    1    1    2    0    0 -0.42372838493E+02  0.13381403998E+03 -0.20467534461E+03  0.27788244175E+03  0.12500000000E+03 0.  0.
         25    1    1    2    0    0  0.32279237057E+02 -0.10910529222E+03 -0.18634340093E+03  0.25158453252E+03  0.12500000000E+03 0.  0.
</event>
<event>
 5    0  0.5705185E-005  0.2856728E+03  0.7546771E-02  0.1092630E+00
         21   -1    0    0  502  501  0.00000000000E+00  0.00000000000E+00  0.30828529864E+03  0.30828529864E+03  0.00000000000E+00 0.  1.
         21   -1    0    0  501  502 -0.00000000000E+00 -0.00000000000E+00 -0.26471886062E+03  0.26471886062E+03  0.00000000000E+00 0.  1.
         25    1    1    2    0    0 -0.92660726307E+02 -0.17094696851E+03  0.17797833152E+02  0.23184184072E+03  0.12500000000E+03 0.  0.
         25    1    1    2    0    0  0.74952549837E+02  0.11763272966E+03  0.65590473562E+02  0.19845012985E+03  0.12500000000E+03 0.  0.
         25    1    1    2    0    0  0.17708176470E+02  0.53314238852E+02 -0.39821868690E+02  0.14271218870E+03  0.12500000000E+03 0.  0.
</event>
<event>
 5    0  0.5705185E-005  0.3555100E+03  0.7546771E-02  0.1060376E+00
         21   -1    0    0  502  501  0.00000000000E+00  0.00000000000E+00  0.43539508105E+03  0.43539508105E+03  0.00000000000E+00 0.  1.
         21   -1    0    0  501  502 -0.00000000000E+00 -0.00000000000E+00 -0.29028201624E+03  0.29028201624E+03  0.00000000000E+00 0.  1.
         25    1    1    2    0    0  0.23184015182E+03  0.12332766975E+03  0.12885684827E+03  0.31810164644E+03  0.12500000000E+03 0.  0.
         25    1    1    2    0    0 -0.17123705310E+03 -0.15296060697E+03  0.36981320615E+02  0.26402972127E+03  0.12500000000E+03 0.  0.
         25    1    1    2    0    0 -0.60603098718E+02  0.29632937222E+02 -0.20725104072E+02  0.14354572958E+03  0.12500000000E+03 0.  0.
</event>
<event>
 5    0  0.5705185E-005  0.2908265E+03  0.7546771E-02  0.1089918E+00
         21   -1    0    0  502  501  0.00000000000E+00  0.00000000000E+00  0.75369555227E+03  0.75369555227E+03  0.00000000000E+00 0.  1.
         21   -1    0    0  501  502 -0.00000000000E+00 -0.00000000000E+00 -0.11222042752E+03  0.11222042752E+03  0.00000000000E+00 0.  1.
         25    1    1    2    0    0  0.20692290562E+02  0.97336165272E+02  0.42658904200E+03  0.45552794724E+03  0.12500000000E+03 0.  0.
         25    1    1    2    0    0  0.83308835948E+02 -0.10865674920E+03  0.97107710675E+02  0.20928821937E+03  0.12500000000E+03 0.  0.
         25    1    1    2    0    0 -0.10400112651E+03  0.11320583924E+02  0.11777837207E+03  0.20109981319E+03  0.12500000000E+03 0.  0.
</event>
<event>
 5    0  0.5705185E-005  0.3453515E+03  0.7546771E-02  0.1064539E+00
         21   -1    0    0  502  501  0.00000000000E+00  0.00000000000E+00  0.13709094289E+03  0.13709094289E+03  0.00000000000E+00 0. -1.
         21   -1    0    0  501  502 -0.00000000000E+00 -0.00000000000E+00 -0.86998939535E+03  0.86998939535E+03  0.00000000000E+00 0. -1.
         25    1    1    2    0    0  0.11300885282E+03 -0.17807367309E+02 -0.29856442044E+03  0.34329843621E+03  0.12500000000E+03 0.  0.
         25    1    1    2    0    0 -0.17891921165E+03  0.57368353580E+02 -0.46225798820E+03  0.51440320756E+03  0.12500000000E+03 0.  0.
         25    1    1    2    0    0  0.65910358821E+02 -0.39560986271E+02  0.27923956188E+02  0.14937869448E+03  0.12500000000E+03 0.  0.
</event>
<event>
 5    0  0.5705185E-005  0.2946786E+03  0.7546771E-02  0.1087931E+00
         21   -1    0    0  502  501  0.00000000000E+00  0.00000000000E+00  0.13575665584E+04  0.13575665584E+04  0.00000000000E+00 0.  1.
         21   -1    0    0  501  502 -0.00000000000E+00 -0.00000000000E+00 -0.63964078414E+02  0.63964078414E+02  0.00000000000E+00 0.  1.
         25    1    1    2    0    0  0.57287450781E+02  0.13237472129E+03  0.60374954455E+03  0.63320094077E+03  0.12500000000E+03 0.  0.
         25    1    1    2    0    0 -0.10796787802E+03 -0.63157973322E+02  0.56469602489E+03  0.59173692871E+03  0.12500000000E+03 0.  0.
         25    1    1    2    0    0  0.50680427239E+02 -0.69216747965E+02  0.12515691053E+03  0.19659276730E+03  0.12500000000E+03 0.  0.
</event>
<event>
 5    0  0.5705185E-005  0.3201196E+03  0.7546771E-02  0.1075594E+00
         21   -1    0    0  502  501  0.00000000000E+00  0.00000000000E+00  0.49178758013E+03  0.49178758013E+03  0.00000000000E+00 0. -1.
         21   -1    0    0  501  502 -0.00000000000E+00 -0.00000000000E+00 -0.20837569882E+03  0.20837569882E+03  0.00000000000E+00 0. -1.
         25    1    1    2    0    0 -0.20786372690E+03 -0.43969340824E+02  0.25078908425E+03  0.35165437104E+03  0.12500000000E+03 0.  0.
         25    1    1    2    0    0  0.12548093070E+03  0.76926451690E+02  0.28239580119E+02  0.19515536586E+03  0.12500000000E+03 0.  0.
         25    1    1    2    0    0  0.82382796206E+02 -0.32957110867E+02  0.43832169441E+01  0.15335354205E+03  0.12500000000E+03 0.  0.
</event>
<event>
 5    0  0.5705185E-005  0.4815812E+03  0.7546771E-02  0.1018702E+00
         21   -1    0    0  502  501  0.00000000000E+00  0.00000000000E+00  0.68319054115E+03  0.68319054115E+03  0.00000000000E+00 0. -1.
         21   -1    0    0  501  502 -0.00000000000E+00 -0.00000000000E+00 -0.33946669085E+03  0.33946669085E+03  0.00000000000E+00 0. -1.
         25    1    1    2    0    0  0.35834884142E+02 -0.22890890181E+03 -0.12750586115E+03  0.29251695486E+03  0.12500000000E+03 0.  0.
         25    1    1    2    0    0 -0.21130331127E+03  0.17853922119E+03  0.39052479258E+03  0.49463113173E+03  0.12500000000E+03 0.  0.
         25    1    1    2    0    0  0.17546842712E+03  0.50369680617E+02  0.80704918867E+02  0.23550914541E+03  0.12500000000E+03 0.  0.
</event>
<event>
 5    0  0.5705185E-005  0.2354669E+03  0.7546771E-02  0.1122850E+00
         21   -1    0    0  502  501  0.00000000000E+00  0.00000000000E+00  0.41815699746E+03  0.41815699746E+03  0.00000000000E+00 0.  1.
         21   -1    0    0  501  502 -0.00000000000E+00 -0.00000000000E+00 -0.13259288804E+03  0.13259288804E+03  0.00000000000E+00 0.  1.
         25    1    1    2    0    0 -0.61187080073E+02 -0.14422476131E+02  0.18069174481E+02  0.14107927435E+03  0.12500000000E+03 0.  0.
         25    1    1    2    0    0 -0.10016575108E+02  0.49554278811E+01  0.25616561546E+02  0.12808628446E+03  0.12500000000E+03 0.  0.
         25    1    1    2    0    0  0.71203655181E+02  0.94670482502E+01  0.24187837340E+03  0.28158432668E+03  0.12500000000E+03 0.  0.
</event>
<event>
 5    0  0.6844362E-005  0.3550872E+03  0.7546771E-02  0.1060546E+00
         21   -1    0    0  502  501  0.00000000000E+00  0.00000000000E+00  0.75678732122E+03  0.75678732122E+03  0.00000000000E+00 0.  1.
         21   -1    0    0  501  502 -0.00000000000E+00 -0.00000000000E+00 -0.16660817419E+03  0.16660817419E+03  0.00000000000E+00 0.  1.
         25    1    1    2    0    0  0.22726066898E+03 -0.40054307361E+02  0.28423437638E+03  0.38686682453E+03  0.12500000000E+03 0.  0.
         25    1    1    2    0    0 -0.12829414718E+03  0.24556263209E+02  0.32829926363E+03  0.37479034775E+03  0.12500000000E+03 0.  0.
         25    1    1    2    0    0 -0.98966521806E+02  0.15498044152E+02 -0.22354492985E+02  0.16173832313E+03  0.12500000000E+03 0.  0.
</event>
<event>
 5    0  0.5705185E-005  0.2696176E+03  0.7546771E-02  0.1101499E+00
         21   -1    0    0  502  501  0.00000000000E+00  0.00000000000E+00  0.35542047403E+03  0.35542047403E+03  0.00000000000E+00 0.  1.
         21   -1    0    0  501  502 -0.00000000000E+00 -0.00000000000E+00 -0.20452853928E+03  0.20452853928E+03  0.00000000000E+00 0.  1.
         25    1    1    2    0    0 -0.34235258459E+02 -0.33001722693E+02  0.59732619176E+02  0.14647236059E+03  0.12500000000E+03 0.  0.
         25    1    1    2    0    0  0.16928991388E+03  0.29434743879E+02  0.86332116083E+02  0.22935499418E+03  0.12500000000E+03 0.  0.
         25    1    1    2    0    0 -0.13505465542E+03  0.35669788142E+01  0.48271994850E+01  0.18412165854E+03  0.12500000000E+03 0.  0.
</event>
<event>
 5    0  0.5705185E-005  0.1249834E+04  0.7546771E-02  0.9070321E-01
         21   -1    0    0  502  501  0.00000000000E+00  0.00000000000E+00  0.15314976393E+04  0.15314976393E+04  0.00000000000E+00 0.  1.
         21   -1    0    0  501  502 -0.00000000000E+00 -0.00000000000E+00 -0.10199721901E+04  0.10199721901E+04  0.00000000000E+00 0.  1.
         25    1    1    2    0    0 -0.77578337029E+03 -0.32853308424E+03 -0.65200144537E+03  0.10726158258E+04  0.12500000000E+03 0.  0.
         25    1    1    2    0    0  0.11013230512E+03  0.46498350860E+02  0.29461542384E+03  0.34163499415E+03  0.12500000000E+03 0.  0.
         25    1    1    2    0    0  0.66565106517E+03  0.28203473338E+03  0.86891147076E+03  0.11372190094E+04  0.12500000000E+03 0.  0.
</event>
<event>
 5    0  0.5705185E-005  0.3999083E+03  0.7546771E-02  0.1043811E+00
         21   -1    0    0  502  501  0.00000000000E+00  0.00000000000E+00  0.11313004394E+04  0.11313004394E+04  0.00000000000E+00 0.  1.
         21   -1    0    0  501  502 -0.00000000000E+00 -0.00000000000E+00 -0.14136534588E+03  0.14136534588E+03  0.00000000000E+00 0.  1.
         25    1    1    2    0    0  0.65847776090E+02 -0.15531777744E+03  0.94035058776E+02  0.23005897914E+03  0.12500000000E+03 0.  0.
         25    1    1    2    0    0  0.16567226901E+03 -0.84470182319E+01  0.48770961932E+03  0.53009841125E+03  0.12500000000E+03 0.  0.
         25    1    1    2    0    0 -0.23152004510E+03  0.16376479567E+03  0.40819041542E+03  0.51250839489E+03  0.12500000000E+03 0.  0.
</event>
<event>
 5    0  0.5705185E-005  0.3672433E+03  0.7546771E-02  0.1055752E+00
         21   -1    0    0  502  501  0.00000000000E+00  0.00000000000E+00  0.13793529514E+03  0.13793529514E+03  0.00000000000E+00 0. -1.
         21   -1    0    0  501  502 -0.00000000000E+00 -0.00000000000E+00 -0.97776044861E+03  0.97776044861E+03  0.00000000000E+00 0. -1.
         25    1    1    2    0    0  0.45152497329E+02  0.26217912353E+01 -0.26369022343E+02  0.13552102104E+03  0.12500000000E+03 0.  0.
         25    1    1    2    0    0  0.86188641380E+02  0.84425481507E+02 -0.74912937615E+03  0.76900973078E+03  0.12500000000E+03 0.  0.
         25    1    1    2    0    0 -0.13134113871E+03 -0.87047272742E+02 -0.64326754981E+02  0.21116499193E+03  0.12500000000E+03 0.  0.
</event>
<event>
 5    0  0.5705185E-005  0.3674645E+03  0.7546771E-02  0.1055667E+00
         21   -1    0    0  502  501  0.00000000000E+00  0.00000000000E+00  0.95199200705E+03  0.95199200705E+03  0.00000000000E+00 0. -1.
         21   -1    0    0  501  502 -0.00000000000E+00 -0.00000000000E+00 -0.14183961456E+03  0.14183961456E+03  0.00000000000E+00 0. -1.
         25    1    1    2    0    0 -0.46895086079E+02 -0.25152960601E+02  0.10067712346E+03  0.16909377196E+03  0.12500000000E+03 0.  0.
         25    1    1    2    0    0  0.23241803169E+03 -0.39428887391E+02  0.12316010931E+03  0.29388125347E+03  0.12500000000E+03 0.  0.
         25    1    1    2    0    0 -0.18552294561E+03  0.64581847992E+02  0.58631515972E+03  0.63085659619E+03  0.12500000000E+03 0.  0.
</event>
<event>
 5    0  0.5705185E-005  0.3460788E+03  0.7546771E-02  0.1064236E+00
         21   -1    0    0  502  501  0.00000000000E+00  0.00000000000E+00  0.74450797347E+03  0.74450797347E+03  0.00000000000E+00 0.  1.
         21   -1    0    0  501  502 -0.00000000000E+00 -0.00000000000E+00 -0.16087203789E+03  0.16087203789E+03  0.00000000000E+00 0.  1.
         25    1    1    2    0    0 -0.80746353448E+02 -0.10451050342E+03  0.50464960681E+02  0.18871706647E+03  0.12500000000E+03 0.  0.
         25    1    1    2    0    0  0.19373895569E+03  0.27447398861E+02  0.46405954819E+03  0.51890693474E+03  0.12500000000E+03 0.  0.
         25    1    1    2    0    0 -0.11299260224E+03  0.77063104562E+02  0.69111426707E+02  0.19775601014E+03  0.12500000000E+03 0.  0.
</event>
<event>
 5    0  0.5705185E-005  0.3235671E+03  0.7546771E-02  0.1074019E+00
         21   -1    0    0  502  501  0.00000000000E+00  0.00000000000E+00  0.17091876541E+03  0.17091876541E+03  0.00000000000E+00 0.  1.
         21   -1    0    0  501  502 -0.00000000000E+00 -0.00000000000E+00 -0.61254638535E+03  0.61254638535E+03  0.00000000000E+00 0.  1.
         25    1    1    2    0    0  0.23946382454E+02 -0.96248662356E+02 -0.26563579068E+03  0.30987837538E+03  0.12500000000E+03 0.  0.
         25    1    1    2    0    0  0.15640645865E+03  0.44345233252E+02 -0.36094757340E+02  0.20822418574E+03  0.12500000000E+03 0.  0.
         25    1    1    2    0    0 -0.18035284110E+03  0.51903429105E+02 -0.13989707193E+03  0.26536258964E+03  0.12500000000E+03 0.  0.
</event>
<event>
 5    0  0.5705185E-005  0.3142928E+03  0.7546771E-02  0.1078306E+00
         21   -1    0    0  502  501  0.00000000000E+00  0.00000000000E+00  0.15382734481E+04  0.15382734481E+04  0.00000000000E+00 0.  1.
         21   -1    0    0  501  502 -0.00000000000E+00 -0.00000000000E+00 -0.64214807188E+02  0.64214807188E+02  0.00000000000E+00 0.  1.
         25    1    1    2    0    0 -0.59663172416E+02  0.17903135017E+03  0.52630971881E+03  0.57292131973E+03  0.12500000000E+03 0.  0.
         25    1    1    2    0    0  0.91305366226E+02 -0.14638365395E+03  0.81212000743E+03  0.83960035166E+03  0.12500000000E+03 0.  0.
         25    1    1    2    0    0 -0.31642193810E+02 -0.32647696217E+02  0.13562891463E+03  0.18996658385E+03  0.12500000000E+03 0.  0.
</event>
<event>
 5    0  0.6691047E-005  0.3734560E+03  0.7546771E-02  0.1053379E+00
         21   -1    0    0  502  501  0.00000000000E+00  0.00000000000E+00  0.17786845910E+03  0.17786845910E+03  0.00000000000E+00 0. -1.
         21   -1    0    0  501  502 -0.00000000000E+00 -0.00000000000E+00 -0.78411544311E+03  0.78411544311E+03  0.00000000000E+00 0. -1.
         25    1    1    2    0    0  0.63172233598E+02  0.23670855730E+03 -0.19310031871E+03  0.33605714586E+03  0.12500000000E+03 0.  0.
         25    1    1    2    0    0 -0.82005953172E+02 -0.52049817985E+02 -0.25666258950E+01  0.15832165827E+03  0.12500000000E+03 0.  0.
         25    1    1    2    0    0  0.18833719574E+02 -0.18465873932E+03 -0.41058003940E+03  0.46760509808E+03  0.12500000000E+03 0.  0.
</event>
<event>
 5    0  0.5705185E-005  0.3660037E+03  0.7546771E-02  0.1056232E+00
         21   -1    0    0  502  501  0.00000000000E+00  0.00000000000E+00  0.27754903546E+03  0.27754903546E+03  0.00000000000E+00 0.  1.
         21   -1    0    0  501  502 -0.00000000000E+00 -0.00000000000E+00 -0.48264878168E+03  0.48264878168E+03  0.00000000000E+00 0.  1.
         25    1    1    2    0    0 -0.99854260212E+02 -0.13133190182E+03 -0.34617339058E+03  0.40333603616E+03  0.12500000000E+03 0.  0.
         25    1    1    2    0    0  0.48376745185E+02  0.11122507960E+03  0.13444927696E+03  0.22002939777E+03  0.12500000000E+03 0.  0.
         25    1    1    2    0    0  0.51477515027E+02  0.20106822223E+02  0.66243673943E+01  0.13683238322E+03  0.12500000000E+03 0.  0.
</event>
<event>
 5    0  0.5705185E-005  0.2445569E+03  0.7546771E-02  0.1116794E+00
         21   -1    0    0  502  501  0.00000000000E+00  0.00000000000E+00  0.37216979348E+03  0.37216979348E+03  0.00000000000E+00 0.  1.
         21   -1    0    0  501  502 -0.00000000000E+00 -0.00000000000E+00 -0.16070099858E+03  0.16070099858E+03  0.00000000000E+00 0.  1.
         25    1    1    2    0    0 -0.29518391337E+02 -0.17806624909E+02  0.16534027196E+03  0.21012095766E+03  0.12500000000E+03 0.  0.
         25    1    1    2    0    0  0.27574705153E+02 -0.82622505681E+02  0.55423910495E+02  0.16212233857E+03  0.12500000000E+03 0.  0.
         25    1    1    2    0    0  0.19436861835E+01  0.10042913059E+03 -0.92953875583E+01  0.16062749583E+03  0.12500000000E+03 0.  0.
</event>
<event>
 5    0  0.5705185E-005  0.2379731E+03  0.7546771E-02  0.1121150E+00
         21   -1    0    0  502  501  0.00000000000E+00  0.00000000000E+00  0.24850687777E+03  0.24850687777E+03  0.00000000000E+00 0.  1.
         21   -1    0    0  501  502 -0.00000000000E+00 -0.00000000000E+00 -0.22788585449E+03  0.22788585449E+03  0.00000000000E+00 0.  1.
         25    1    1    2    0    0  0.29480609447E+01 -0.89365606845E+02  0.93285299474E+02  0.17978334141E+03  0.12500000000E+03 0.  0.
         25    1    1    2    0    0 -0.19308169927E+02 -0.43511448173E+01 -0.56822520847E+02  0.13872828393E+03  0.12500000000E+03 0.  0.
         25    1    1    2    0    0  0.16360108983E+02  0.93716751662E+02 -0.15841755352E+02  0.15788110691E+03  0.12500000000E+03 0.  0.
</event>
<event>
 5    0  0.5705185E-005  0.4025661E+03  0.7546771E-02  0.1042895E+00
         21   -1    0    0  502  501  0.00000000000E+00  0.00000000000E+00  0.64301001033E+02  0.64301001033E+02  0.00000000000E+00 0.  1.
         21   -1    0    0  501  502 -0.00000000000E+00 -0.00000000000E+00 -0.25203256784E+04  0.25203256784E+04  0.00000000000E+00 0.  1.
         25    1    1    2    0    0 -0.21586440263E+03  0.25683247776E+02 -0.71512068202E+03  0.75781241703E+03  0.12500000000E+03 0.  0.
         25    1    1    2    0    0 -0.99613952006E+02 -0.11880238082E+03 -0.54661488275E+03  0.58176436395E+03  0.12500000000E+03 0.  0.
         25    1    1    2    0    0  0.31547835464E+03  0.93119133040E+02 -0.11942891126E+04  0.12450498984E+04  0.12500000000E+03 0.  0.
</event>
<event>
 5    0  0.5705185E-005  0.4324646E+03  0.7546771E-02  0.1033084E+00
         21   -1    0    0  502  501  0.00000000000E+00  0.00000000000E+00  0.11628529555E+04  0.11628529555E+04  0.00000000000E+00 0. -1.
         21   -1    0    0  501  502 -0.00000000000E+00 -0.00000000000E+00 -0.16083339968E+03  0.16083339968E+03  0.00000000000E+00 0. -1.
         25    1    1    2    0    0 -0.84697162223E+02 -0.39527650569E+01  0.91544258138E+02  0.17661988800E+03  0.12500000000E+03 0.  0.
         25    1    1    2    0    0  0.39898488079E+02 -0.13101813204E+03  0.93763143950E+03  0.95579043551E+03  0.12500000000E+03 0.  0.
         25    1    1    2    0    0  0.44798674144E+02  0.13497089710E+03 -0.27156141785E+02  0.19127603170E+03  0.12500000000E+03 0.  0.
</event>
<event>
 5    0  0.5705185E-005  0.4459766E+03  0.7546771E-02  0.1028929E+00
         21   -1    0    0  502  501  0.00000000000E+00  0.00000000000E+00  0.71945232314E+03  0.71945232314E+03  0.00000000000E+00 0.  1.
         21   -1    0    0  501  502 -0.00000000000E+00 -0.00000000000E+00 -0.27645353244E+03  0.27645353244E+03  0.00000000000E+00 0.  1.
         25    1    1    2    0    0  0.88134265136E+02 -0.17021475949E+03  0.31927847870E+03  0.39281606383E+03  0.12500000000E+03 0.  0.
         25    1    1    2    0    0  0.15849733561E+03  0.12128980093E+03  0.20343743090E+03  0.31119834430E+03  0.12500000000E+03 0.  0.
         25    1    1    2    0    0 -0.24663160074E+03  0.48924958551E+02 -0.79717118897E+02  0.29189144746E+03  0.12500000000E+03 0.  0.
</event>
<event>
 5    0  0.5705185E-005  0.2343940E+03  0.7546771E-02  0.1123585E+00
         21   -1    0    0  502  501  0.00000000000E+00  0.00000000000E+00  0.23554760108E+03  0.23554760108E+03  0.00000000000E+00 0. -1.
         21   -1    0    0  501  502 -0.00000000000E+00 -0.00000000000E+00 -0.23324608664E+03  0.23324608664E+03  0.00000000000E+00 0. -1.
         25    1    1    2    0    0 -0.61529326413E+02  0.95491885120E+02  0.42784131996E+02  0.17424132714E+03  0.12500000000E+03 0.  0.
         25    1    1    2    0    0  0.39480577651E+02 -0.96812285079E+02 -0.62505434583E+01  0.16308097328E+03  0.12500000000E+03 0.  0.
         25    1    1    2    0    0  0.22048748762E+02  0.13203999587E+01 -0.34232074098E+02  0.13147138729E+03  0.12500000000E+03 0.  0.
</event>
<event>
 5    0  0.6663993E-005  0.2834080E+03  0.7546771E-02  0.1093842E+00
         21   -1    0    0  502  501  0.00000000000E+00  0.00000000000E+00  0.44408802657E+03  0.44408802657E+03  0.00000000000E+00 0. -1.
         21   -1    0    0  501  502 -0.00000000000E+00 -0.00000000000E+00 -0.18086523038E+03  0.18086523038E+03  0.00000000000E+00 0. -1.
         25    1    1    2    0    0 -0.33080378527E+02 -0.84130401390E+02 -0.47561809348E+01  0.15433683014E+03  0.12500000000E+03 0.  0.
         25    1    1    2    0    0  0.73483894873E+02 -0.39510966107E+02  0.33222589089E+01  0.15032310751E+03  0.12500000000E+03 0.  0.
         25    1    1    2    0    0 -0.40403516346E+02  0.12364136750E+03  0.26465671821E+03  0.32029331929E+03  0.12500000000E+03 0.  0.
</event>
<event>
 5    0  0.5705185E-005  0.2382975E+03  0.7546771E-02  0.1120932E+00
         21   -1    0    0  502  501  0.00000000000E+00  0.00000000000E+00  0.15647112137E+03  0.15647112137E+03  0.00000000000E+00 0.  1.
         21   -1    0    0  501  502 -0.00000000000E+00 -0.00000000000E+00 -0.36291474004E+03  0.36291474004E+03  0.00000000000E+00 0.  1.
         25    1    1    2    0    0 -0.30121934475E+02  0.18252443456E+02  0.31980148626E+02  0.13374682252E+03  0.12500000000E+03 0.  0.
         25    1    1    2    0    0  0.15780855221E+02 -0.91223152663E+02 -0.14582760344E+03  0.21321676505E+03  0.12500000000E+03 0.  0.
         25    1    1    2    0    0  0.14341079254E+02  0.72970709208E+02 -0.92596163859E+02  0.17242227385E+03  0.12500000000E+03 0.  0.
</event>
<event>
 5    0  0.5705185E-005  0.3444629E+03  0.7546771E-02  0.1064911E+00
         21   -1    0    0  502  501  0.00000000000E+00  0.00000000000E+00  0.10969802325E+04  0.10969802325E+04  0.00000000000E+00 0. -1.
         21   -1    0    0  501  502 -0.00000000000E+00 -0.00000000000E+00 -0.10816482645E+03  0.10816482645E+03  0.00000000000E+00 0. -1.
         25    1    1    2    0    0 -0.14410851391E+03  0.77641400295E+02  0.72722270377E+03  0.75582624439E+03  0.12500000000E+03 0.  0.
         25    1    1    2    0    0  0.41210725925E+02 -0.45782425989E+02 -0.79865659000E+00  0.13935563251E+03  0.12500000000E+03 0.  0.
         25    1    1    2    0    0  0.10289778798E+03 -0.31858974306E+02  0.26239135886E+03  0.30996318204E+03  0.12500000000E+03 0.  0.
</event>
<event>
 5    0  0.5705185E-005  0.2420220E+03  0.7546771E-02  0.1118453E+00
         21   -1    0    0  502  501  0.00000000000E+00  0.00000000000E+00  0.11033152583E+04  0.11033152583E+04  0.00000000000E+00 0.  1.
         21   -1    0    0  501  502 -0.00000000000E+00 -0.00000000000E+00 -0.53089658410E+02  0.53089658410E+02  0.00000000000E+00 0.  1.
         25    1    1    2    0    0  0.58601602983E+02 -0.59518633521E+02  0.45551519634E+03  0.47968292622E+03  0.12500000000E+03 0.  0.
         25    1    1    2    0    0 -0.11805059222E+03 -0.54466086839E+00  0.30869071109E+03  0.35334288459E+03  0.12500000000E+03 0.  0.
         25    1    1    2    0    0  0.59448989236E+02  0.60063294390E+02  0.28601969241E+03  0.32337910585E+03  0.12500000000E+03 0.  0.
</event>
<event>
 5    0  0.5705185E-005  0.3406986E+03  0.7546771E-02  0.1066499E+00
         21   -1    0    0  502  501  0.00000000000E+00  0.00000000000E+00  0.78141115811E+03  0.78141115811E+03  0.00000000000E+00 0. -1.
         21   -1    0    0  501  502 -0.00000000000E+00 -0.00000000000E+00 -0.14854608406E+03  0.14854608406E+03  0.00000000000E+00 0. -1.
         25    1    1    2    0    0  0.87123234724E+02  0.20631864375E+03  0.39840253291E+03  0.47382213859E+03  0.12500000000E+03 0.  0.
         25    1    1    2    0    0  0.18754366309E+02  0.13645757228E+01  0.66956604408E+02  0.14304466154E+03  0.12500000000E+03 0.  0.
         25    1    1    2    0    0 -0.10587760103E+03 -0.20768321947E+03  0.16750593674E+03  0.31309044203E+03  0.12500000000E+03 0.  0.
</event>
<event>
 5    0  0.6455999E-005  0.2681662E+03  0.7546771E-02  0.1102334E+00
         21   -1    0    0  502  501  0.00000000000E+00  0.00000000000E+00  0.31334534780E+03  0.31334534780E+03  0.00000000000E+00 0. -1.
         21   -1    0    0  501  502 -0.00000000000E+00 -0.00000000000E+00 -0.22950106959E+03  0.22950106959E+03  0.00000000000E+00 0. -1.
         25    1    1    2    0    0  0.56943539515E+02 -0.39751296764E+02  0.11112918949E+03  0.18110060476E+03  0.12500000000E+03 0.  0.
         25    1    1    2    0    0 -0.10673007880E+03  0.12029487411E+03 -0.21623627689E+02  0.20482858134E+03  0.12500000000E+03 0.  0.
         25    1    1    2    0    0  0.49786539286E+02 -0.80543577344E+02 -0.56612835903E+01  0.15691723130E+03  0.12500000000E+03 0.  0.
</event>
<event>
 5    0  0.5705185E-005  0.3141107E+03  0.7546771E-02  0.1078392E+00
         21   -1    0    0  502  501  0.00000000000E+00  0.00000000000E+00  0.13768142173E+03  0.13768142173E+03  0.00000000000E+00 0.  1.
         21   -1    0    0  501  502 -0.00000000000E+00 -0.00000000000E+00 -0.71662177459E+03  0.71662177459E+03  0.00000000000E+00 0.  1.
         25    1    1    2    0    0 -0.14151197615E+03 -0.11762305238E+03 -0.24424012199E+03  0.33036201210E+03  0.12500000000E+03 0.  0.
         25    1    1    2    0    0 -0.54041591568E+02 -0.65357473023E+01 -0.14805935257E+03  0.20127041883E+03  0.12500000000E+03 0.  0.
         25    1    1    2    0    0  0.19555356772E+03  0.12415879968E+03 -0.18664087830E+03  0.32267076539E+03  0.12500000000E+03 0.  0.
</event>
<event>
 5    0  0.5705185E-005  0.3079374E+03  0.7546771E-02  0.1081339E+00
         21   -1    0    0  502  501  0.00000000000E+00  0.00000000000E+00  0.65802804815E+03  0.65802804815E+03  0.00000000000E+00 0.  1.
         21   -1    0    0  501  502 -0.00000000000E+00 -0.00000000000E+00 -0.14410549865E+03  0.14410549865E+03  0.00000000000E+00 0.  1.
         25    1    1    2    0    0 -0.18982710364E+02 -0.14418898457E+02  0.18283286292E+03  0.22275794865E+03  0.12500000000E+03 0.  0.
         25    1    1    2    0    0  0.17565069268E+03  0.34213129853E+01  0.30260824251E+02  0.21772824508E+03  0.12500000000E+03 0.  0.
         25    1    1    2    0    0 -0.15666798232E+03  0.10997585471E+02  0.30082886233E+03  0.36164735307E+03  0.12500000000E+03 0.  0.
</event>
<event>
 5    0  0.5705185E-005  0.2709295E+03  0.7546771E-02  0.1100749E+00
         21   -1    0    0  502  501  0.00000000000E+00  0.00000000000E+00  0.64493056217E+03  0.64493056217E+03  0.00000000000E+00 0. -1.
         21   -1    0    0  501  502 -0.00000000000E+00 -0.00000000000E+00 -0.11381506443E+03  0.11381506443E+03  0.00000000000E+00 0. -1.
         25    1    1    2    0    0 -0.80928013350E+02 -0.12967817998E+03  0.94433713095E+02  0.21888010388E+03  0.12500000000E+03 0.  0.
         25    1    1    2    0    0  0.83557671403E+02  0.10071460314E+03  0.31345475091E+03  0.36194501876E+03  0.12500000000E+03 0.  0.
         25    1    1    2    0    0 -0.26296580534E+01  0.28963576843E+02  0.12322703374E+03  0.17792050396E+03  0.12500000000E+03 0.  0.
</event>
<event>
 5    0  0.7022159E-005  0.2648849E+03  0.7546771E-02  0.1104243E+00
         21   -1    0    0  502  501  0.00000000000E+00  0.00000000000E+00  0.55208875209E+03  0.55208875209E+03  0.00000000000E+00 0.  1.
         21   -1    0    0  501  502 -0.00000000000E+00 -0.00000000000E+00 -0.12708824992E+03  0.12708824992E+03  0.00000000000E+00 0.  1.
         25    1    1    2    0    0  0.41857887562E+02  0.51519724693E+02  0.13126156942E+03  0.19303099334E+03  0.12500000000E+03 0.  0.
         25    1    1    2    0    0  0.76558852057E+02  0.68897506053E+02  0.19642806422E+03  0.25459204344E+03  0.12500000000E+03 0.  0.
         25    1    1    2    0    0 -0.11841673962E+03 -0.12041723075E+03  0.97310868524E+02  0.23155396523E+03  0.12500000000E+03 0.  0.
</event>
<event>
 5    0  0.5705185E-005  0.4107091E+03  0.7546771E-02  0.1040133E+00
         21   -1    0    0  502  501  0.00000000000E+00  0.00000000000E+00  0.19497457873E+03  0.19497457873E+03  0.00000000000E+00 0.  1.
         21   -1    0    0  501  502 -0.00000000000E+00 -0.00000000000E+00 -0.86514849647E+03  0.86514849647E+03  0.00000000000E+00 0.  1.
         25    1    1    2    0    0 -0.99303201793E+02  0.70508075657E+02 -0.40166930952E+03  0.43794491529E+03  0.12500000000E+03 0.  0.
         25    1    1    2    0    0  0.53106584545E+02  0.18749685797E+03 -0.23495974688E+03  0.32985824792E+03  0.12500000000E+03 0.  0.
         25    1    1    2    0    0  0.46196617248E+02 -0.25800493363E+03 -0.33544861350E+02  0.29231991199E+03  0.12500000000E+03 0.  0.
</event>
<event>
 5    0  0.5705185E-005  0.2805554E+03  0.7546771E-02  0.1095386E+00
         21   -1    0    0  502  501  0.00000000000E+00  0.00000000000E+00  0.89898814071E+02  0.89898814071E+02  0.00000000000E+00 0. -1.
         21   -1    0    0  501  502 -0.00000000000E+00 -0.00000000000E+00 -0.87555460797E+03  0.87555460797E+03  0.00000000000E+00 0. -1.
         25    1    1    2    0    0  0.43629569921E+02 -0.12063430822E+03 -0.28125642480E+03  0.33344617584E+03  0.12500000000E+03 0.  0.
         25    1    1    2    0    0 -0.11443532572E+03  0.15497739502E+03 -0.26452699942E+03  0.35030411097E+03  0.12500000000E+03 0.  0.
         25    1    1    2    0    0  0.70805755800E+02 -0.34343086794E+02 -0.23987236967E+03  0.28170313523E+03  0.12500000000E+03 0.  0.
</event>
<event>
 5    0  0.5705185E-005  0.3176789E+03  0.7546771E-02  0.1076723E+00
         21   -1    0    0  502  501  0.00000000000E+00  0.00000000000E+00  0.67223420864E+02  0.67223420864E+02  0.00000000000E+00 0.  1.
         21   -1    0    0  501  502 -0.00000000000E+00 -0.00000000000E+00 -0.15012611572E+04  0.15012611572E+04  0.00000000000E+00 0.  1.
         25    1    1    2    0    0  0.36080790208E+02  0.14490406954E+02 -0.94489279334E+02  0.16144664513E+03  0.12500000000E+03 0.  0.
         25    1    1    2    0    0 -0.45716398203E+02 -0.17465131412E+03 -0.82569021306E+03  0.85439007399E+03  0.12500000000E+03 0.  0.
         25    1    1    2    0    0  0.96356079950E+01  0.16016090716E+03 -0.51385824391E+03  0.55264785891E+03  0.12500000000E+03 0.  0.
</event>
<event>
 5    0  0.5705185E-005  0.2894609E+03  0.7546771E-02  0.1090631E+00
         21   -1    0    0  502  501  0.00000000000E+00  0.00000000000E+00  0.37915912552E+03  0.37915912552E+03  0.00000000000E+00 0. -1.
         21   -1    0    0  501  502 -0.00000000000E+00 -0.00000000000E+00 -0.22098265570E+03  0.22098265570E+03  0.00000000000E+00 0. -1.
         25    1    1    2    0    0 -0.15468779509E+03 -0.28920767475E+02  0.60188756461E+02  0.20979135146E+03  0.12500000000E+03 0.  0.
         25    1    1    2    0    0  0.14332135107E+03 -0.83816100923E+02  0.37868041197E+02  0.21124662599E+03  0.12500000000E+03 0.  0.
         25    1    1    2    0    0  0.11366444019E+02  0.11273686840E+03  0.60119672156E+02  0.17910380377E+03  0.12500000000E+03 0.  0.
</event>
<event>
 5    0  0.7696865E-005  0.4632016E+03  0.7546771E-02  0.1023857E+00
         21   -1    0    0  502  501  0.00000000000E+00  0.00000000000E+00  0.26827093720E+03  0.26827093720E+03  0.00000000000E+00 0.  1.
         21   -1    0    0  501  502 -0.00000000000E+00 -0.00000000000E+00 -0.79977263819E+03  0.79977263819E+03  0.00000000000E+00 0.  1.
         25    1    1    2    0    0 -0.11956980398E+03  0.12494880026E+03  0.76778379335E+01  0.21352538468E+03  0.12500000000E+03 0.  0.
         25    1    1    2    0    0  0.61122813949E+02  0.19383701281E+03 -0.42759910642E+03  0.48966803218E+03  0.12500000000E+03 0.  0.
         25    1    1    2    0    0  0.58446990027E+02 -0.31878581307E+03 -0.11158043250E+03  0.36485015853E+03  0.12500000000E+03 0.  0.
</event>
<event>
 5    0  0.5705185E-005  0.3044030E+03  0.7546771E-02  0.1083060E+00
         21   -1    0    0  502  501  0.00000000000E+00  0.00000000000E+00  0.38119945314E+03  0.38119945314E+03  0.00000000000E+00 0. -1.
         21   -1    0    0  501  502 -0.00000000000E+00 -0.00000000000E+00 -0.24307790676E+03  0.24307790676E+03  0.00000000000E+00 0. -1.
         25    1    1    2    0    0  0.14323278483E+03 -0.94209979593E+02 -0.55802987851E+02  0.21938578887E+03  0.12500000000E+03 0.  0.
         25    1    1    2    0    0 -0.47632930915E+02 -0.48525550495E+02  0.90091766797E+02  0.16841957013E+03  0.12500000000E+03 0.  0.
         25    1    1    2    0    0 -0.95599853915E+02  0.14273553009E+03  0.10383276744E+03  0.23647200091E+03  0.12500000000E+03 0.  0.
</event>
<event>
 5    0  0.5705185E-005  0.3966713E+03  0.7546771E-02  0.1044938E+00
         21   -1    0    0  502  501  0.00000000000E+00  0.00000000000E+00  0.13316982656E+04  0.13316982656E+04  0.00000000000E+00 0.  1.
         21   -1    0    0  501  502 -0.00000000000E+00 -0.00000000000E+00 -0.11815600157E+03  0.11815600157E+03  0.00000000000E+00 0.  1.
         25    1    1    2    0    0  0.55898821105E+02 -0.17654367601E+02  0.41343190727E+02  0.14412013848E+03  0.12500000000E+03 0.  0.
         25    1    1    2    0    0  0.16398519562E+03 -0.68760674206E+01  0.15710932126E+03  0.25931980933E+03  0.12500000000E+03 0.  0.
         25    1    1    2    0    0 -0.21988401672E+03  0.24530435021E+02  0.10150897520E+04  0.10464143193E+04  0.12500000000E+03 0.  0.
</event>
<event>
 5    0  0.5980711E-005  0.3568942E+03  0.7546771E-02  0.1059820E+00
         21   -1    0    0  502  501  0.00000000000E+00  0.00000000000E+00  0.35344488343E+03  0.35344488343E+03  0.00000000000E+00 0.  1.
         21   -1    0    0  501  502 -0.00000000000E+00 -0.00000000000E+00 -0.36037711403E+03  0.36037711403E+03  0.00000000000E+00 0.  1.
         25    1    1    2    0    0  0.53970187501E+02  0.29217391872E+02  0.23941024889E+03  0.27696336292E+03  0.12500000000E+03 0.  0.
         25    1    1    2    0    0 -0.11585211741E+03 -0.74882716066E+02 -0.51919985740E+02  0.19326101312E+03  0.12500000000E+03 0.  0.
         25    1    1    2    0    0  0.61881929908E+02  0.45665324195E+02 -0.19442249375E+03  0.24359762142E+03  0.12500000000E+03 0.  0.
</event>
<event>
 5    0  0.5705185E-005  0.3308137E+03  0.7546771E-02  0.1070777E+00
         21   -1    0    0  502  501  0.00000000000E+00  0.00000000000E+00  0.25268000645E+04  0.25268000645E+04  0.00000000000E+00 0.  1.
         21   -1    0    0  501  502 -0.00000000000E+00 -0.00000000000E+00 -0.43310788412E+02  0.43310788412E+02  0.00000000000E+00 0.  1.
         25    1    1    2    0    0  0.23843872796E+03 -0.36614064385E+02  0.11008865285E+04  0.11339178830E+04  0.12500000000E+03 0.  0.
         25    1    1    2    0    0 -0.47063361077E+02 -0.36192986733E+01  0.76167302836E+03  0.77330386098E+03  0.12500000000E+03 0.  0.
         25    1    1    2    0    0 -0.19137536689E+03  0.40233363059E+02  0.62092971930E+03  0.66288910902E+03  0.12500000000E+03 0.  0.
</event>
<event>
 5    0  0.5705185E-005  0.2745026E+03  0.7546771E-02  0.1098730E+00
         21   -1    0    0  502  501  0.00000000000E+00  0.00000000000E+00  0.59029637074E+03  0.59029637074E+03  0.00000000000E+00 0. -1.
         21   -1    0    0  501  502 -0.00000000000E+00 -0.00000000000E+00 -0.12765056978E+03  0.12765056978E+03  0.00000000000E+00 0. -1.
         25    1    1    2    0    0 -0.10095834618E+03 -0.33045790278E+02  0.18551821145E+03  0.24764211818E+03  0.12500000000E+03 0.  0.
         25    1    1    2    0    0 -0.11131354796E+02  0.73343075970E+02  0.18611975556E+01  0.14536704547E+03  0.12500000000E+03 0.  0.
         25    1    1    2    0    0  0.11208970097E+03 -0.40297285693E+02  0.27526639196E+03  0.32493777688E+03  0.12500000000E+03 0.  0.
</event>
<event>
 5    0  0.5705185E-005  0.4215034E+03  0.7546771E-02  0.1036578E+00
         21   -1    0    0  502  501  0.00000000000E+00  0.00000000000E+00  0.14162764898E+04  0.14162764898E+04  0.00000000000E+00 0. -1.
         21   -1    0    0  501  502 -0.00000000000E+00 -0.00000000000E+00 -0.12544519906E+03  0.12544519906E+03  0.00000000000E+00 0. -1.
         25    1    1    2    0    0  0.29323691983E+03 -0.91464174373E+02  0.23219530147E+03  0.40483730605E+03  0.12500000000E+03 0.  0.
         25    1    1    2    0    0 -0.58686775156E+02  0.39861256259E+02  0.36319646689E+03  0.39060175484E+03  0.12500000000E+03 0.  0.
         25    1    1    2    0    0 -0.23455014467E+03  0.51602918113E+02  0.69543952241E+03  0.74628262800E+03  0.12500000000E+03 0.  0.
</event>
<event>
 5    0  0.5705185E-005  0.3187814E+03  0.7546771E-02  0.1076212E+00
         21   -1    0    0  502  501  0.00000000000E+00  0.00000000000E+00  0.18418706129E+04  0.18418706129E+04  0.00000000000E+00 0.  1.
         21   -1    0    0  501  502 -0.00000000000E+00 -0.00000000000E+00 -0.55173028788E+02  0.55173028788E+02  0.00000000000E+00 0.  1.
         25    1    1    2    0    0  0.72422331837E+02 -0.46621437971E+02  0.11267974467E+04  0.11369767098E+04  0.12500000000E+03 0.  0.
         25    1    1    2    0    0 -0.15448493298E+03 -0.28920858207E+02  0.43966366185E+03  0.48335405875E+03  0.12500000000E+03 0.  0.
         25    1    1    2    0    0  0.82062601143E+02  0.75542296178E+02  0.22023647554E+03  0.27671287317E+03  0.12500000000E+03 0.  0.
</event>
<event>
 5    0  0.5705185E-005  0.2293355E+03  0.7546771E-02  0.1127108E+00
         21   -1    0    0  502  501  0.00000000000E+00  0.00000000000E+00  0.20058204246E+02  0.20058204246E+02  0.00000000000E+00 0. -1.
         21   -1    0    0  501  502 -0.00000000000E+00 -0.00000000000E+00 -0.26221068469E+04  0.26221068469E+04  0.00000000000E+00 0. -1.
         25    1    1    2    0    0  0.10691355256E+03 -0.43591444178E+02 -0.85649440426E+03  0.87323443945E+03  0.12500000000E+03 0.  0.
         25    1    1    2    0    0 -0.30880033167E+02 -0.37444913442E+01 -0.94527190198E+03  0.95400815843E+03  0.12500000000E+03 0.  0.
         25    1    1    2    0    0 -0.76033519392E+02  0.47335935522E+02 -0.80028233645E+03  0.81492245330E+03  0.12500000000E+03 0.  0.
</event>
<event>
 5    0  0.7238197E-005  0.6206070E+03  0.7546771E-02  0.9863552E-01
         21   -1    0    0  502  501  0.00000000000E+00  0.00000000000E+00  0.13968887009E+04  0.13968887009E+04  0.00000000000E+00 0. -1.
         21   -1    0    0  501  502 -0.00000000000E+00 -0.00000000000E+00 -0.27572203101E+03  0.27572203101E+03  0.00000000000E+00 0. -1.
         25    1    1    2    0    0  0.18285492035E+03 -0.58390757922E+02  0.52455983882E+03  0.57239272096E+03  0.12500000000E+03 0.  0.
         25    1    1    2    0    0 -0.42364084604E+03  0.19411436353E+03  0.63166537113E+03  0.79484469782E+03  0.12500000000E+03 0.  0.
         25    1    1    2    0    0  0.24078592569E+03 -0.13572360561E+03 -0.35058540081E+02  0.30537331311E+03  0.12500000000E+03 0.  0.
</event>
<event>
 5    0  0.5705185E-005  0.4036550E+03  0.7546771E-02  0.1042521E+00
         21   -1    0    0  502  501  0.00000000000E+00  0.00000000000E+00  0.83689756504E+03  0.83689756504E+03  0.00000000000E+00 0.  1.
         21   -1    0    0  501  502 -0.00000000000E+00 -0.00000000000E+00 -0.19469209011E+03  0.19469209011E+03  0.00000000000E+00 0.  1.
         25    1    1    2    0    0 -0.17734498024E+03  0.22011338547E+03  0.20919238055E+03  0.37321253538E+03  0.12500000000E+03 0.  0.
         25    1    1    2    0    0  0.15466854472E+03  0.41358247516E+02  0.20838568515E+03  0.29100250366E+03  0.12500000000E+03 0.  0.
         25    1    1    2    0    0  0.22676435518E+02 -0.26147163299E+03  0.22462740923E+03  0.36737461611E+03  0.12500000000E+03 0.  0.
</event>
<event>
 5    0  0.5705185E-005  0.2395838E+03  0.7546771E-02  0.1120070E+00
         21   -1    0    0  502  501  0.00000000000E+00  0.00000000000E+00  0.17693983278E+03  0.17693983278E+03  0.00000000000E+00 0.  1.
         21   -1    0    0  501  502 -0.00000000000E+00 -0.00000000000E+00 -0.32440639968E+03  0.32440639968E+03  0.00000000000E+00 0.  1.
         25    1    1    2    0    0  0.31383048474E+02 -0.17759939608E+02 -0.13863472352E+03  0.19011811526E+03  0.12500000000E+03 0.  0.
         25    1    1    2    0    0 -0.92352995729E+02  0.55460584605E+01  0.44531964416E+02  0.16176504703E+03  0.12500000000E+03 0.  0.
         25    1    1    2    0    0  0.60969947255E+02  0.12213881147E+02 -0.53363807805E+02  0.14946307017E+03  0.12500000000E+03 0.  0.
</event>
<event>
 5    0  0.5717218E-005  0.3086374E+03  0.7546771E-02  0.1081001E+00
         21   -1    0    0  502  501  0.00000000000E+00  0.00000000000E+00  0.12973607638E+03  0.12973607638E+03  0.00000000000E+00 0.  1.
         21   -1    0    0  501  502 -0.00000000000E+00 -0.00000000000E+00 -0.73423709567E+03  0.73423709567E+03  0.00000000000E+00 0.  1.
         25    1    1    2    0    0 -0.12687879665E+03 -0.85743807699E+02 -0.38105427036E+03  0.42927565335E+03  0.12500000000E+03 0.  0.
         25    1    1    2    0    0  0.12841023642E+03 -0.51244855130E+02 -0.12815005817E+03  0.22619164751E+03  0.12500000000E+03 0.  0.
         25    1    1    2    0    0 -0.15314397715E+01  0.13698866283E+03 -0.95296690757E+02  0.20850587119E+03  0.12500000000E+03 0.  0.
</event>
<event>
 5    0  0.5705185E-005  0.3080823E+03  0.7546771E-02  0.1081269E+00
         21   -1    0    0  502  501  0.00000000000E+00  0.00000000000E+00  0.23857969186E+03  0.23857969186E+03  0.00000000000E+00 0.  1.
         21   -1    0    0  501  502 -0.00000000000E+00 -0.00000000000E+00 -0.39783239082E+03  0.39783239082E+03  0.00000000000E+00 0.  1.
         25    1    1    2    0    0 -0.89900779009E+02 -0.66783608231E+02 -0.74572836321E+02  0.18365268392E+03  0.12500000000E+03 0.  0.
         25    1    1    2    0    0  0.20405011635E+03  0.10807666229E+03 -0.92386212337E+02  0.27834731388E+03  0.12500000000E+03 0.  0.
         25    1    1    2    0    0 -0.11414933734E+03 -0.41293054054E+02  0.77063497015E+01  0.17441208488E+03  0.12500000000E+03 0.  0.
</event>
<event>
 5    0  0.7080631E-005  0.3860154E+03  0.7546771E-02  0.1048733E+00
         21   -1    0    0  502  501  0.00000000000E+00  0.00000000000E+00  0.54436194832E+03  0.54436194832E+03  0.00000000000E+00 0.  1.
         21   -1    0    0  501  502 -0.00000000000E+00 -0.00000000000E+00 -0.27372945967E+03  0.27372945967E+03  0.00000000000E+00 0.  1.
         25    1    1    2    0    0  0.34107274805E+02  0.21226527127E+03  0.17887393185E+03  0.30633435177E+03  0.12500000000E+03 0.  0.
         25    1    1    2    0    0 -0.53310723226E+02 -0.20506139221E+03  0.22106988963E+03  0.33074023627E+03  0.12500000000E+03 0.  0.
         25    1    1    2    0    0  0.19203448421E+02 -0.72038790592E+01 -0.12931133283E+03  0.18101681994E+03  0.12500000000E+03 0.  0.
</event>
<event>
 5    0  0.5705185E-005  0.5454090E+03  0.7546771E-02  0.1002562E+00
         21   -1    0    0  502  501  0.00000000000E+00  0.00000000000E+00  0.77567481886E+03  0.77567481886E+03  0.00000000000E+00 0.  1.
         21   -1    0    0  501  502 -0.00000000000E+00 -0.00000000000E+00 -0.38349953428E+03  0.38349953428E+03  0.00000000000E+00 0.  1.
         25    1    1    2    0    0 -0.32725196909E+03 -0.27103808217E+03 -0.49788882897E+01  0.44295065480E+03  0.12500000000E+03 0.  0.
         25    1    1    2    0    0 -0.11640974597E+02 -0.62281510178E+01  0.25051827573E+02  0.12816745382E+03  0.12500000000E+03 0.  0.
         25    1    1    2    0    0  0.33889294368E+03  0.27726623319E+03  0.37210234530E+03  0.58805624452E+03  0.12500000000E+03 0.  0.
</event>
<event>
 5    0  0.5705185E-005  0.2453828E+03  0.7546771E-02  0.1116258E+00
         21   -1    0    0  502  501  0.00000000000E+00  0.00000000000E+00  0.77327755425E+02  0.77327755425E+02  0.00000000000E+00 0. -1.
         21   -1    0    0  501  502 -0.00000000000E+00 -0.00000000000E+00 -0.77866903888E+03  0.77866903888E+03  0.00000000000E+00 0. -1.
         25    1    1    2    0    0  0.39210744292E+02  0.88555683431E+01 -0.14556230605E+03  0.19603389631E+03  0.12500000000E+03 0.  0.
         25    1    1    2    0    0 -0.10210434643E+03  0.48059123760E+02 -0.43530069866E+03  0.46674047948E+03  0.12500000000E+03 0.  0.
         25    1    1    2    0    0  0.62893602134E+02 -0.56914692103E+02 -0.12047827874E+03  0.19322241851E+03  0.12500000000E+03 0.  0.
</event>
<event>
 5    0  0.5705185E-005  0.4539961E+03  0.7546771E-02  0.1026537E+00
         21   -1    0    0  502  501  0.00000000000E+00  0.00000000000E+00  0.29305529941E+04  0.29305529941E+04  0.00000000000E+00 0.  1.
         21   -1    0    0  501  502 -0.00000000000E+00 -0.00000000000E+00 -0.70332269398E+02  0.70332269398E+02  0.00000000000E+00 0.  1.
         25    1    1    2    0    0  0.11045236144E+03  0.43555927908E+02  0.23167702398E+04  0.23231758838E+04  0.12500000000E+03 0.  0.
         25    1    1    2    0    0 -0.95379210649E+01  0.60299867975E+01  0.48300378626E+03  0.49904407643E+03  0.12500000000E+03 0.  0.
         25    1    1    2    0    0 -0.10091444038E+03 -0.49585914705E+02  0.60446698625E+02  0.17866530326E+03  0.12500000000E+03 0.  0.
</event>
<event>
 5    0  0.5705185E-005  0.3133880E+03  0.7546771E-02  0.1078733E+00
         21   -1    0    0  502  501  0.00000000000E+00  0.00000000000E+00  0.11746634011E+03  0.11746634011E+03  0.00000000000E+00 0. -1.
         21   -1    0    0  501  502 -0.00000000000E+00 -0.00000000000E+00 -0.83608683628E+03  0.83608683628E+03  0.00000000000E+00 0. -1.
         25    1    1    2    0    0 -0.79055445643E+02 -0.10230458263E+03 -0.61211207598E+03  0.63798290312E+03  0.12500000000E+03 0.  0.
         25    1    1    2    0    0  0.78587577137E+02  0.26910909346E+02 -0.66868597552E+02  0.16430646263E+03  0.12500000000E+03 0.  0.
         25    1    1    2    0    0  0.46786850591E+00  0.75393673283E+02 -0.39639822635E+02  0.15126381064E+03  0.12500000000E+03 0.  0.
</event>
<event>
 5    0  0.6200287E-005  0.2894629E+03  0.7546771E-02  0.1090630E+00
         21   -1    0    0  502  501  0.00000000000E+00  0.00000000000E+00  0.13004905260E+03  0.13004905260E+03  0.00000000000E+00 0.  1.
         21   -1    0    0  501  502 -0.00000000000E+00 -0.00000000000E+00 -0.64428596369E+03  0.64428596369E+03  0.00000000000E+00 0.  1.
         25    1    1    2    0    0  0.12166146468E+02  0.33413532327E+02  0.48746728268E+02  0.13880101865E+03  0.12500000000E+03 0.  0.
         25    1    1    2    0    0 -0.27160235487E+02  0.46663275613E+02 -0.34941716716E+03  0.37500999505E+03  0.12500000000E+03 0.  0.
         25    1    1    2    0    0  0.14994089018E+02 -0.80076807941E+02 -0.21356647219E+03  0.26052400258E+03  0.12500000000E+03 0.  0.
</event>
<event>
 5    0  0.5705185E-005  0.3203954E+03  0.7546771E-02  0.1075467E+00
         21   -1    0    0  502  501  0.00000000000E+00  0.00000000000E+00  0.39998719084E+03  0.39998719084E+03  0.00000000000E+00 0. -1.
         21   -1    0    0  501  502 -0.00000000000E+00 -0.00000000000E+00 -0.25664129041E+03  0.25664129041E+03  0.00000000000E+00 0. -1.
         25    1    1    2    0    0 -0.57447603225E+02 -0.67548144674E+02  0.37963305855E+02  0.15788980827E+03  0.12500000000E+03 0.  0.
         25    1    1    2    0    0 -0.16733035502E+02 -0.16799567760E+03  0.58040960374E+02  0.21793644773E+03  0.12500000000E+03 0.  0.
         25    1    1    2    0    0  0.74180638726E+02  0.23554382227E+03  0.47341634204E+02  0.28080222524E+03  0.12500000000E+03 0.  0.
</event>
<event>
 5    0  0.6472852E-005  0.3333123E+03  0.7546771E-02  0.1069681E+00
         21   -1    0    0  502  501  0.00000000000E+00  0.00000000000E+00  0.36413786282E+03  0.36413786282E+03  0.00000000000E+00 0.  1.
         21   -1    0    0  501  502 -0.00000000000E+00 -0.00000000000E+00 -0.30509630839E+03  0.30509630839E+03  0.00000000000E+00 0.  1.
         25    1    1    2    0    0 -0.10146186677E+03 -0.11107208653E+02  0.13544240096E+03  0.21068346985E+03  0.12500000000E+03 0.  0.
         25    1    1    2    0    0  0.23104278256E+02  0.18470265113E+03 -0.42871739185E+02  0.22828022917E+03  0.12500000000E+03 0.  0.
         25    1    1    2    0    0  0.78357588509E+02 -0.17359544248E+03 -0.33529107345E+02  0.23027047220E+03  0.12500000000E+03 0.  0.
</event>
<event>
 5    0  0.5705185E-005  0.2808102E+03  0.7546771E-02  0.1095247E+00
         21   -1    0    0  502  501  0.00000000000E+00  0.00000000000E+00  0.29024853646E+03  0.29024853646E+03  0.00000000000E+00 0.  1.
         21   -1    0    0  501  502 -0.00000000000E+00 -0.00000000000E+00 -0.27167873438E+03  0.27167873438E+03  0.00000000000E+00 0.  1.
         25    1    1    2    0    0  0.87033042568E+02  0.35259179486E+02  0.16167403172E+02  0.15717615965E+03  0.12500000000E+03 0.  0.
         25    1    1    2    0    0  0.70098988708E+02 -0.77781425512E+02 -0.82379715411E+02  0.18268890465E+03  0.12500000000E+03 0.  0.
         25    1    1    2    0    0 -0.15713203128E+03  0.42522246026E+02  0.84782114317E+02  0.22206220653E+03  0.12500000000E+03 0.  0.
</event>
<event>
 5    0  0.5705185E-005  0.4585077E+03  0.7546771E-02  0.1025215E+00
         21   -1    0    0  502  501  0.00000000000E+00  0.00000000000E+00  0.12057594761E+03  0.12057594761E+03  0.00000000000E+00 0.  1.
         21   -1    0    0  501  502 -0.00000000000E+00 -0.00000000000E+00 -0.17435423142E+04  0.17435423142E+04  0.00000000000E+00 0.  1.
         25    1    1    2    0    0 -0.45756398583E+02 -0.17013357591E+03 -0.64665924607E+03  0.68178608243E+03  0.12500000000E+03 0.  0.
         25    1    1    2    0    0  0.16787393356E+02  0.28219096590E+03 -0.96307846427E+03  0.10114636356E+04  0.12500000000E+03 0.  0.
         25    1    1    2    0    0  0.28969005227E+02 -0.11205738999E+03 -0.13228656278E+02  0.17086854380E+03  0.12500000000E+03 0.  0.
</event>
<event>
 5    0  0.5705185E-005  0.3133844E+03  0.7546771E-02  0.1078735E+00
         21   -1    0    0  502  501  0.00000000000E+00  0.00000000000E+00  0.86589852307E+02  0.86589852307E+02  0.00000000000E+00 0. -1.
         21   -1    0    0  501  502 -0.00000000000E+00 -0.00000000000E+00 -0.11341947402E+04  0.11341947402E+04  0.00000000000E+00 0. -1.
         25    1    1    2    0    0 -0.11143542431E+03 -0.63914278264E+01 -0.64160390865E+03  0.66312840366E+03  0.12500000000E+03 0.  0.
         25    1    1    2    0    0 -0.10824032087E+02  0.25588860776E+02 -0.35057705954E+03  0.37323079206E+03  0.12500000000E+03 0.  0.
         25    1    1    2    0    0  0.12225945640E+03 -0.19197432950E+02 -0.55423919726E+02  0.18442539681E+03  0.12500000000E+03 0.  0.
</event>
<event>
 5    0  0.5705185E-005  0.3718440E+03  0.7546771E-02  0.1053990E+00
         21   -1    0    0  502  501  0.00000000000E+00  0.00000000000E+00  0.28031873304E+03  0.28031873304E+03  0.00000000000E+00 0.  1.
         21   -1    0    0  501  502 -0.00000000000E+00 -0.00000000000E+00 -0.49325272608E+03  0.49325272608E+03  0.00000000000E+00 0.  1.
         25    1    1    2    0    0  0.56868774478E+02  0.15776780387E+02 -0.13481984358E+03  0.19309157033E+03  0.12500000000E+03 0.  0.
         25    1    1    2    0    0 -0.61793657535E+02  0.14741510704E+03 -0.24323714087E+03  0.31676328164E+03  0.12500000000E+03 0.  0.
         25    1    1    2    0    0  0.49248830568E+01 -0.16319188742E+03  0.16512299141E+03  0.26371660715E+03  0.12500000000E+03 0.  0.
</event>
<event>
 5    0  0.5705185E-005  0.2907166E+03  0.7546771E-02  0.1089976E+00
         21   -1    0    0  502  501  0.00000000000E+00  0.00000000000E+00  0.60377823384E+02  0.60377823384E+02  0.00000000000E+00 0. -1.
         21   -1    0    0  501  502 -0.00000000000E+00 -0.00000000000E+00 -0.13997877116E+04  0.13997877116E+04  0.00000000000E+00 0. -1.
         25    1    1    2    0    0 -0.19408907660E+01  0.10013535940E+03 -0.52367480768E+03  0.54762319295E+03  0.12500000000E+03 0.  0.
         25    1    1    2    0    0 -0.13360056984E+03  0.19465862200E+02 -0.29993025657E+03  0.35186814414E+03  0.12500000000E+03 0.  0.
         25    1    1    2    0    0  0.13554146061E+03 -0.11960122160E+03 -0.51580482392E+03  0.56067419785E+03  0.12500000000E+03 0.  0.
</event>
<event>
 5    0  0.5705185E-005  0.4789997E+03  0.7546771E-02  0.1019410E+00
         21   -1    0    0  502  501  0.00000000000E+00  0.00000000000E+00  0.16325425133E+03  0.16325425133E+03  0.00000000000E+00 0. -1.
         21   -1    0    0  501  502 -0.00000000000E+00 -0.00000000000E+00 -0.14054193551E+04  0.14054193551E+04  0.00000000000E+00 0. -1.
         25    1    1    2    0    0 -0.40242835722E+02 -0.11455879287E+03  0.19886499957E+01  0.17427609584E+03  0.12500000000E+03 0.  0.
         25    1    1    2    0    0  0.18065986659E+03  0.56574840670E+02 -0.11573346767E+04  0.11793588317E+04  0.12500000000E+03 0.  0.
         25    1    1    2    0    0 -0.14041703087E+03  0.57983952202E+02 -0.86819077039E+02  0.21503867887E+03  0.12500000000E+03 0.  0.
</event>
<event>
 5    0  0.5705185E-005  0.2419058E+03  0.7546771E-02  0.1118530E+00
         21   -1    0    0  502  501  0.00000000000E+00  0.00000000000E+00  0.11392810084E+04  0.11392810084E+04  0.00000000000E+00 0. -1.
         21   -1    0    0  501  502 -0.00000000000E+00 -0.00000000000E+00 -0.51364325479E+02  0.51364325479E+02  0.00000000000E+00 0. -1.
         25    1    1    2    0    0 -0.10037185588E+03 -0.75618657279E+01  0.28744856064E+03  0.32921629103E+03  0.12500000000E+03 0.  0.
         25    1    1    2    0    0  0.73079727955E+02  0.84050560485E+02  0.37743854023E+03  0.41290434123E+03  0.12500000000E+03 0.  0.
         25    1    1    2    0    0  0.27292127927E+02 -0.76488694757E+02  0.42302958209E+03  0.44852470166E+03  0.12500000000E+03 0.  0.
</event>
<event>
 5    0  0.5705185E-005  0.3759965E+03  0.7546771E-02  0.1052423E+00
         21   -1    0    0  502  501  0.00000000000E+00  0.00000000000E+00  0.40409902950E+03  0.40409902950E+03  0.00000000000E+00 0.  1.
         21   -1    0    0  501  502 -0.00000000000E+00 -0.00000000000E+00 -0.34984824489E+03  0.34984824489E+03  0.00000000000E+00 0.  1.
         25    1    1    2    0    0  0.24135844186E+03  0.90054640108E+02  0.30240231936E+02  0.28792917061E+03  0.12500000000E+03 0.  0.
         25    1    1    2    0    0 -0.22022980144E+03  0.53245484986E+02  0.72321737858E+02  0.26868509612E+03  0.12500000000E+03 0.  0.
         25    1    1    2    0    0 -0.21128640421E+02 -0.14330012509E+03 -0.48311185181E+02  0.19733300766E+03  0.12500000000E+03 0.  0.
</event>
<event>
 5    0  0.5705185E-005  0.3180772E+03  0.7546771E-02  0.1076538E+00
         21   -1    0    0  502  501  0.00000000000E+00  0.00000000000E+00  0.34911346740E+03  0.34911346740E+03  0.00000000000E+00 0. -1.
         21   -1    0    0  501  502 -0.00000000000E+00 -0.00000000000E+00 -0.28979998250E+03  0.28979998250E+03  0.00000000000E+00 0. -1.
         25    1    1    2    0    0  0.21872118726E+03 -0.52528484881E+02  0.40022423589E+02  0.26043232109E+03  0.12500000000E+03 0.  0.
         25    1    1    2    0    0 -0.29465217507E+02  0.22478484236E+02 -0.49674479006E+02  0.13952073380E+03  0.12500000000E+03 0.  0.
         25    1    1    2    0    0 -0.18925596975E+03  0.30050000645E+02  0.68965540320E+02  0.23896039500E+03  0.12500000000E+03 0.  0.
</event>
<event>
 5    0  0.5705185E-005  0.3792162E+03  0.7546771E-02  0.1051224E+00
         21   -1    0    0  502  501  0.00000000000E+00  0.00000000000E+00  0.68586663788E+02  0.68586663788E+02  0.00000000000E+00 0.  1.
         21   -1    0    0  501  502 -0.00000000000E+00 -0.00000000000E+00 -0.20966896143E+04  0.20966896143E+04  0.00000000000E+00 0.  1.
         25    1    1    2    0    0 -0.74394126063E+02  0.13894254468E+03 -0.23615372838E+03  0.31021460337E+03  0.12500000000E+03 0.  0.
         25    1    1    2    0    0  0.13130119235E+03  0.92536339509E+02 -0.93234443201E+03  0.95430294831E+03  0.12500000000E+03 0.  0.
         25    1    1    2    0    0 -0.56907066285E+02 -0.23147888419E+03 -0.85960479016E+03  0.90075872646E+03  0.12500000000E+03 0.  0.
</event>
<event>
 5    0  0.5705185E-005  0.3484005E+03  0.7546771E-02  0.1063273E+00
         21   -1    0    0  502  501  0.00000000000E+00  0.00000000000E+00  0.29944310467E+04  0.29944310467E+04  0.00000000000E+00 0.  1.
         21   -1    0    0  501  502 -0.00000000000E+00 -0.00000000000E+00 -0.40536206870E+02  0.40536206870E+02  0.00000000000E+00 0.  1.
         25    1    1    2    0    0 -0.43219404123E+02 -0.38028930792E+00  0.10246061439E+04  0.10331073573E+04  0.12500000000E+03 0.  0.
         25    1    1    2    0    0  0.25666971503E+03 -0.14383103270E+02  0.10753482960E+04  0.11126927581E+04  0.12500000000E+03 0.  0.
         25    1    1    2    0    0 -0.21345031091E+03  0.14763392578E+02  0.85394039992E+03  0.88916713817E+03  0.12500000000E+03 0.  0.
</event>
<event>
 5    0  0.5705185E-005  0.3301220E+03  0.7546771E-02  0.1071083E+00
         21   -1    0    0  502  501  0.00000000000E+00  0.00000000000E+00  0.32202079729E+04  0.32202079729E+04  0.00000000000E+00 0. -1.
         21   -1    0    0  501  502 -0.00000000000E+00 -0.00000000000E+00 -0.33842696350E+02  0.33842696350E+02  0.00000000000E+00 0. -1.
         25    1    1    2    0    0  0.89375451965E+02  0.12446823042E+03  0.11301263351E+04  0.11472971912E+04  0.12500000000E+03 0.  0.
         25    1    1    2    0    0 -0.86167078612E+02 -0.14248575389E+03  0.45315907255E+03  0.49870341941E+03  0.12500000000E+03 0.  0.
         25    1    1    2    0    0 -0.32083733534E+01  0.18017523466E+02  0.16030798689E+04  0.16080500586E+04  0.12500000000E+03 0.  0.
</event>
<event>
 5    0  0.5705185E-005  0.2723081E+03  0.7546771E-02  0.1099966E+00
         21   -1    0    0  502  501  0.00000000000E+00  0.00000000000E+00  0.29497069128E+03  0.29497069128E+03  0.00000000000E+00 0. -1.
         21   -1    0    0  501  502 -0.00000000000E+00 -0.00000000000E+00 -0.25138675497E+03  0.25138675497E+03  0.00000000000E+00 0. -1.
         25    1    1    2    0    0  0.33203743279E+02 -0.10654394365E+03  0.95553633826E+01  0.16784041666E+03  0.12500000000E+03 0.  0.
         25    1    1    2    0    0  0.71519771185E+02  0.99648370288E+02  0.10091981212E+03  0.20212541614E+03  0.12500000000E+03 0.  0.
         25    1    1    2    0    0 -0.10472351446E+03  0.68955733607E+01 -0.66891239189E+02  0.17639161345E+03  0.12500000000E+03 0.  0.
</event>
<event>
 5    0  0.7769641E-005  0.3920778E+03  0.7546771E-02  0.1046558E+00
         21   -1    0    0  502  501  0.00000000000E+00  0.00000000000E+00  0.11062760708E+03  0.11062760708E+03  0.00000000000E+00 0. -1.
         21   -1    0    0  501  502 -0.00000000000E+00 -0.00000000000E+00 -0.13895721359E+04  0.13895721359E+04  0.00000000000E+00 0. -1.
         25    1    1    2    0    0 -0.11160840697E+03  0.90288872245E+02 -0.93193582527E+03  0.95117711252E+03  0.12500000000E+03 0.  0.
         25    1    1    2    0    0 -0.60951340562E+02 -0.54565406175E+02 -0.11321676151E+02  0.14981865644E+03  0.12500000000E+03 0.  0.
         25    1    1    2    0    0  0.17255974753E+03 -0.35723466070E+02 -0.33568702736E+03  0.39920397397E+03  0.12500000000E+03 0.  0.
</event>
<event>
 5    0  0.5705185E-005  0.2837961E+03  0.7546771E-02  0.1093633E+00
         21   -1    0    0  502  501  0.00000000000E+00  0.00000000000E+00  0.25952290229E+04  0.25952290229E+04  0.00000000000E+00 0. -1.
         21   -1    0    0  501  502 -0.00000000000E+00 -0.00000000000E+00 -0.31033949781E+02  0.31033949781E+02  0.00000000000E+00 0. -1.
         25    1    1    2    0    0 -0.15856059596E+02 -0.92745448625E+02  0.85848873040E+03  0.87262880602E+03  0.12500000000E+03 0.  0.
         25    1    1    2    0    0 -0.59475991712E+02  0.15009743052E+03  0.13436921689E+04  0.13591174625E+04  0.12500000000E+03 0.  0.
         25    1    1    2    0    0  0.75332051308E+02 -0.57351981898E+02  0.36201417385E+03  0.39451670414E+03  0.12500000000E+03 0.  0.
</event>
<event>
 5    0  0.5705185E-005  0.2127314E+03  0.7546771E-02  0.1139421E+00
         21   -1    0    0  502  501  0.00000000000E+00  0.00000000000E+00  0.59202302687E+02  0.59202302687E+02  0.00000000000E+00 0. -1.
         21   -1    0    0  501  502 -0.00000000000E+00 -0.00000000000E+00 -0.76440698500E+03  0.76440698500E+03  0.00000000000E+00 0. -1.
         25    1    1    2    0    0  0.71251097525E+01 -0.73365312122E+02 -0.34699428216E+03  0.37611603006E+03  0.12500000000E+03 0.  0.
         25    1    1    2    0    0  0.83067848456E+01  0.19752570103E+02 -0.21328343933E+03  0.24814107316E+03  0.12500000000E+03 0.  0.
         25    1    1    2    0    0 -0.15431894598E+02  0.53612742019E+02 -0.14492696083E+03  0.19935218447E+03  0.12500000000E+03 0.  0.
</event>
<event>
 5    0  0.5705185E-005  0.2995119E+03  0.7546771E-02  0.1085485E+00
         21   -1    0    0  502  501  0.00000000000E+00  0.00000000000E+00  0.19496636476E+03  0.19496636476E+03  0.00000000000E+00 0. -1.
         21   -1    0    0  501  502 -0.00000000000E+00 -0.00000000000E+00 -0.46011715363E+03  0.46011715363E+03  0.00000000000E+00 0. -1.
         25    1    1    2    0    0 -0.48952944192E+02 -0.68888243933E+02 -0.19746333902E+03  0.24851308045E+03  0.12500000000E+03 0.  0.
         25    1    1    2    0    0  0.64985915693E+02 -0.10318168279E+03  0.20394436271E+02  0.17581399812E+03  0.12500000000E+03 0.  0.
         25    1    1    2    0    0 -0.16032971501E+02  0.17206992673E+03 -0.88081886121E+02  0.23075643983E+03  0.12500000000E+03 0.  0.
</event>
<event>
 5    0  0.6178430E-005  0.2975743E+03  0.7546771E-02  0.1086459E+00
         21   -1    0    0  502  501  0.00000000000E+00  0.00000000000E+00  0.11187639847E+03  0.11187639847E+03  0.00000000000E+00 0. -1.
         21   -1    0    0  501  502 -0.00000000000E+00 -0.00000000000E+00 -0.79150281808E+03  0.79150281808E+03  0.00000000000E+00 0. -1.
         25    1    1    2    0    0 -0.21876893495E+02 -0.10460002036E+03 -0.93071120051E+02  0.18896294905E+03  0.12500000000E+03 0.  0.
         25    1    1    2    0    0  0.14708632703E+02 -0.56287912396E+02 -0.44591813160E+03  0.46674688327E+03  0.12500000000E+03 0.  0.
         25    1    1    2    0    0  0.71682607920E+01  0.16088793275E+03 -0.14063716796E+03  0.24766938422E+03  0.12500000000E+03 0.  0.
</event>
<event>
 5    0  0.5705185E-005  0.3893451E+03  0.7546771E-02  0.1047533E+00
         21   -1    0    0  502  501  0.00000000000E+00  0.00000000000E+00  0.18829367104E+03  0.18829367104E+03  0.00000000000E+00 0. -1.
         21   -1    0    0  501  502 -0.00000000000E+00 -0.00000000000E+00 -0.80507027878E+03  0.80507027878E+03  0.00000000000E+00 0. -1.
         25    1    1    2    0    0 -0.18297271999E+03  0.23346741368E+03 -0.27812626377E+03  0.42540012707E+03  0.12500000000E+03 0.  0.
         25    1    1    2    0    0  0.10954727875E+03 -0.23149821206E+03 -0.12841093481E+03  0.31258022434E+03  0.12500000000E+03 0.  0.
         25    1    1    2    0    0  0.73425441240E+02 -0.19692016124E+01 -0.21023940915E+03  0.25538359841E+03  0.12500000000E+03 0.  0.
</event>
<event>
 5    0  0.5705185E-005  0.2636735E+03  0.7546771E-02  0.1104956E+00
         21   -1    0    0  502  501  0.00000000000E+00  0.00000000000E+00  0.18279009678E+03  0.18279009678E+03  0.00000000000E+00 0.  1.
         21   -1    0    0  501  502 -0.00000000000E+00 -0.00000000000E+00 -0.38034737371E+03  0.38034737371E+03  0.00000000000E+00 0.  1.
         25    1    1    2    0    0  0.21375819096E+02 -0.49856746706E+01  0.74548769770E+02  0.14718798072E+03  0.12500000000E+03 0.  0.
         25    1    1    2    0    0 -0.34865949737E+02 -0.89222217441E+02 -0.13463535306E+03  0.20719053267E+03  0.12500000000E+03 0.  0.
         25    1    1    2    0    0  0.13490130642E+02  0.94207892111E+02 -0.13747069364E+03  0.20875895710E+03  0.12500000000E+03 0.  0.
</event>
<event>
 5    0  0.5705185E-005  0.4779186E+03  0.7546771E-02  0.1019709E+00
         21   -1    0    0  502  501  0.00000000000E+00  0.00000000000E+00  0.44601444533E+03  0.44601444533E+03  0.00000000000E+00 0.  1.
         21   -1    0    0  501  502 -0.00000000000E+00 -0.00000000000E+00 -0.51210492845E+03  0.51210492845E+03  0.00000000000E+00 0.  1.
         25    1    1    2    0    0  0.10253070446E+03 -0.59020999659E+02  0.26247062780E+03  0.31386598130E+03  0.12500000000E+03 0.  0.
         25    1    1    2    0    0 -0.22984222393E+02 -0.25537851996E+02 -0.42771944347E+03  0.44693330451E+03  0.12500000000E+03 0.  0.
         25    1    1    2    0    0 -0.79546482069E+02  0.84558851655E+02  0.99158332551E+02  0.19732008797E+03  0.12500000000E+03 0.  0.
</event>
<event>
 5    0  0.5705185E-005  0.3299122E+03  0.7546771E-02  0.1071176E+00
         21   -1    0    0  502  501  0.00000000000E+00  0.00000000000E+00  0.18614410317E+03  0.18614410317E+03  0.00000000000E+00 0. -1.
         21   -1    0    0  501  502 -0.00000000000E+00 -0.00000000000E+00 -0.58471950466E+03  0.58471950466E+03  0.00000000000E+00 0. -1.
         25    1    1    2    0    0  0.85292964173E+02 -0.20847815238E+03 -0.13415838777E+03  0.29045051690E+03  0.12500000000E+03 0.  0.
         25    1    1    2    0    0  0.14405536758E+02 -0.11731186069E+01 -0.14195605136E+03  0.18969822407E+03  0.12500000000E+03 0.  0.
         25    1    1    2    0    0 -0.99698500932E+02  0.20965127099E+03 -0.12246096235E+03  0.29071486686E+03  0.12500000000E+03 0.  0.
</event>
<event>
 5    0  0.5705185E-005  0.8113027E+03  0.7546771E-02  0.9543800E-01
         21   -1    0    0  502  501  0.00000000000E+00  0.00000000000E+00  0.27365799746E+03  0.27365799746E+03  0.00000000000E+00 0.  1.
         21   -1    0    0  501  502 -0.00000000000E+00 -0.00000000000E+00 -0.24052358152E+04  0.24052358152E+04  0.00000000000E+00 0.  1.
         25    1    1    2    0    0  0.21118869800E+03  0.12876112548E+03 -0.18119225323E+04  0.18329943690E+04  0.12500000000E+03 0.  0.
         25    1    1    2    0    0 -0.15317232074E+02 -0.17740260778E+03 -0.50163375956E+03  0.54677941766E+03  0.12500000000E+03 0.  0.
         25    1    1    2    0    0 -0.19587146592E+03  0.48641482294E+02  0.18197847409E+03  0.29912002607E+03  0.12500000000E+03 0.  0.
</event>
<event>
 5    0  0.5705185E-005  0.3982072E+03  0.7546771E-02  0.1044402E+00
         21   -1    0    0  502  501  0.00000000000E+00  0.00000000000E+00  0.27201075970E+03  0.27201075970E+03  0.00000000000E+00 0.  1.
         21   -1    0    0  501  502 -0.00000000000E+00 -0.00000000000E+00 -0.58295113566E+03  0.58295113566E+03  0.00000000000E+00 0.  1.
         25    1    1    2    0    0 -0.13177310966E+03  0.17726469314E+02 -0.36688185812E+03  0.40976295338E+03  0.12500000000E+03 0.  0.
         25    1    1    2    0    0 -0.10979647552E+03 -0.29105450173E+02  0.32109652001E+02  0.17192563223E+03  0.12500000000E+03 0.  0.
         25    1    1    2    0    0  0.24156958518E+03  0.11378980858E+02  0.23831830167E+02  0.27327330975E+03  0.12500000000E+03 0.  0.
</event>
<event>
 5    0  0.5705185E-005  0.2708393E+03  0.7546771E-02  0.1100800E+00
         21   -1    0    0  502  501  0.00000000000E+00  0.00000000000E+00  0.41595476085E+02  0.41595476085E+02  0.00000000000E+00 0. -1.
         21   -1    0    0  501  502 -0.00000000000E+00 -0.00000000000E+00 -0.17635078320E+04  0.17635078320E+04  0.00000000000E+00 0. -1.
         25    1    1    2    0    0  0.38013400014E+02  0.33014077458E+02 -0.14065953513E+03  0.19479489909E+03  0.12500000000E+03 0.  0.
         25    1    1    2    0    0 -0.95525839554E+01  0.66763939883E+02 -0.74967870499E+03  0.76301496463E+03  0.12500000000E+03 0.  0.
         25    1    1    2    0    0 -0.28460816059E+02 -0.99778017341E+02 -0.83157411576E+03  0.84729344433E+03  0.12500000000E+03 0.  0.
</event>
<event>
 5    0  0.5705185E-005  0.4661546E+03  0.7546771E-02  0.1023011E+00
         21   -1    0    0  502  501  0.00000000000E+00  0.00000000000E+00  0.24145931639E+04  0.24145931639E+04  0.00000000000E+00 0.  1.
         21   -1    0    0  501  502 -0.00000000000E+00 -0.00000000000E+00 -0.89994493383E+02  0.89994493383E+02  0.00000000000E+00 0.  1.
         25    1    1    2    0    0 -0.45166412354E+02  0.20470387768E+03  0.19649067313E+04  0.19800068548E+04  0.12500000000E+03 0.  0.
         25    1    1    2    0    0 -0.21601642907E+02  0.69715399878E+01  0.11504553118E+03  0.17139342925E+03  0.12500000000E+03 0.  0.
         25    1    1    2    0    0  0.66768055260E+02 -0.21167541767E+03  0.24464640806E+03  0.35318737326E+03  0.12500000000E+03 0.  0.
</event>
<event>
 5    0  0.5705185E-005  0.2137421E+03  0.7546771E-02  0.1138636E+00
         21   -1    0    0  502  501  0.00000000000E+00  0.00000000000E+00  0.88408588260E+02  0.88408588260E+02  0.00000000000E+00 0.  1.
         21   -1    0    0  501  502 -0.00000000000E+00 -0.00000000000E+00 -0.51675618078E+03  0.51675618078E+03  0.00000000000E+00 0.  1.
         25    1    1    2    0    0  0.56275932673E+02  0.16193253744E+02 -0.18084872539E+03  0.22750926034E+03  0.12500000000E+03 0.  0.
         25    1    1    2    0    0 -0.31561891706E+02  0.20102651512E+02 -0.49785945724E+02  0.13965639977E+03  0.12500000000E+03 0.  0.
         25    1    1    2    0    0 -0.24714040967E+02 -0.36295905256E+02 -0.19771292140E+03  0.23799910893E+03  0.12500000000E+03 0.  0.
</event>
<event>
 5    0  0.5705185E-005  0.2966396E+03  0.7546771E-02  0.1086933E+00
         21   -1    0    0  502  501  0.00000000000E+00  0.00000000000E+00  0.13282658917E+03  0.13282658917E+03  0.00000000000E+00 0. -1.
         21   -1    0    0  501  502 -0.00000000000E+00 -0.00000000000E+00 -0.66248085651E+03  0.66248085651E+03  0.00000000000E+00 0. -1.
         25    1    1    2    0    0  0.57230675518E+02  0.18623277419E+03 -0.14887220285E+03  0.27521978342E+03  0.12500000000E+03 0.  0.
         25    1    1    2    0    0 -0.80708187790E+02 -0.15381749997E+03 -0.17711496313E+03  0.27779190960E+03  0.12500000000E+03 0.  0.
         25    1    1    2    0    0  0.23477512272E+02 -0.32415274221E+02 -0.20366710135E+03  0.24229575266E+03  0.12500000000E+03 0.  0.
</event>
<event>
 5    0  0.5705185E-005  0.3998414E+03  0.7546771E-02  0.1043835E+00
         21   -1    0    0  502  501  0.00000000000E+00  0.00000000000E+00  0.50564932230E+03  0.50564932230E+03  0.00000000000E+00 0. -1.
         21   -1    0    0  501  502 -0.00000000000E+00 -0.00000000000E+00 -0.31617399987E+03  0.31617399987E+03  0.00000000000E+00 0. -1.
         25    1    1    2    0    0  0.10616837522E+03  0.78913511708E+02  0.10968820621E+03  0.21249839719E+03  0.12500000000E+03 0.  0.
         25    1    1    2    0    0  0.33538889943E+02 -0.35059297504E+02  0.29289579307E+03  0.32212878958E+03  0.12500000000E+03 0.  0.
         25    1    1    2    0    0 -0.13970726516E+03 -0.43854214204E+02 -0.21310867684E+03  0.28719613540E+03  0.12500000000E+03 0.  0.
</event>
<event>
 5    0  0.5705185E-005  0.3194820E+03  0.7546771E-02  0.1075888E+00
         21   -1    0    0  502  501  0.00000000000E+00  0.00000000000E+00  0.19800064714E+03  0.19800064714E+03  0.00000000000E+00 0. -1.
         21   -1    0    0  501  502 -0.00000000000E+00 -0.00000000000E+00 -0.51549719450E+03  0.51549719450E+03  0.00000000000E+00 0. -1.
         25    1    1    2    0    0 -0.10173208721E+03 -0.14214456390E+02 -0.75653704805E+01  0.16196821654E+03  0.12500000000E+03 0.  0.
         25    1    1    2    0    0 -0.79409360800E+02  0.10289115130E+03 -0.27102881118E+02  0.18235131413E+03  0.12500000000E+03 0.  0.
         25    1    1    2    0    0  0.18114144801E+03 -0.88676694913E+02 -0.28282829576E+03  0.36917831097E+03  0.12500000000E+03 0.  0.
</event>
<event>
 5    0  0.5705185E-005  0.2876199E+03  0.7546771E-02  0.1091598E+00
         21   -1    0    0  502  501  0.00000000000E+00  0.00000000000E+00  0.10293182510E+04  0.10293182510E+04  0.00000000000E+00 0.  1.
         21   -1    0    0  501  502 -0.00000000000E+00 -0.00000000000E+00 -0.80368937053E+02  0.80368937053E+02  0.00000000000E+00 0.  1.
         25    1    1    2    0    0 -0.82508583187E+02  0.11496159553E+03  0.26043555794E+03  0.32167610198E+03  0.12500000000E+03 0.  0.
         25    1    1    2    0    0  0.87863956201E+02  0.26688456649E+02  0.48981316236E+03  0.51378427627E+03  0.12500000000E+03 0.  0.
         25    1    1    2    0    0 -0.53553730138E+01 -0.14165005218E+03  0.19870059367E+03  0.27422680983E+03  0.12500000000E+03 0.  0.
</event>
<event>
 5    0  0.5705185E-005  0.2318104E+03  0.7546771E-02  0.1125372E+00
         21   -1    0    0  502  501  0.00000000000E+00  0.00000000000E+00  0.11219556876E+03  0.11219556876E+03  0.00000000000E+00 0.  1.
         21   -1    0    0  501  502 -0.00000000000E+00 -0.00000000000E+00 -0.47895004669E+03  0.47895004669E+03  0.00000000000E+00 0.  1.
         25    1    1    2    0    0  0.44901745464E+01  0.55681068835E+02 -0.97062813039E+02  0.16782947527E+03  0.12500000000E+03 0.  0.
         25    1    1    2    0    0 -0.92207821374E+02 -0.16336664573E+02 -0.19205611634E+03  0.24754741113E+03  0.12500000000E+03 0.  0.
         25    1    1    2    0    0  0.87717646828E+02 -0.39344404262E+02 -0.77635548549E+02  0.17576872905E+03  0.12500000000E+03 0.  0.
</event>
<event>
 5    0  0.5705185E-005  0.3685440E+03  0.7546771E-02  0.1055251E+00
         21   -1    0    0  502  501  0.00000000000E+00  0.00000000000E+00  0.35871210086E+03  0.35871210086E+03  0.00000000000E+00 0.  1.
         21   -1    0    0  501  502 -0.00000000000E+00 -0.00000000000E+00 -0.37864532772E+03  0.37864532772E+03  0.00000000000E+00 0.  1.
         25    1    1    2    0    0 -0.17141591678E+03 -0.20617273855E+03  0.14040465345E+03  0.32745851853E+03  0.12500000000E+03 0.  0.
         25    1    1    2    0    0  0.55294041402E+02  0.78759450105E+02 -0.31035183524E+02  0.16077519899E+03  0.12500000000E+03 0.  0.
         25    1    1    2    0    0  0.11612187538E+03  0.12741328844E+03 -0.12930269679E+03  0.24912371106E+03  0.12500000000E+03 0.  0.
</event>
<event>
 5    0  0.5705185E-005  0.3693775E+03  0.7546771E-02  0.1054931E+00
         21   -1    0    0  502  501  0.00000000000E+00  0.00000000000E+00  0.92051405339E+03  0.92051405339E+03  0.00000000000E+00 0.  1.
         21   -1    0    0  501  502 -0.00000000000E+00 -0.00000000000E+00 -0.14822127228E+03  0.14822127228E+03  0.00000000000E+00 0.  1.
         25    1    1    2    0    0  0.44747755799E+02  0.18686260760E+03  0.33995858288E+03  0.41002052856E+03  0.12500000000E+03 0.  0.
         25    1    1    2    0    0 -0.87425439300E+02  0.77751214546E+00 -0.17690842481E+02  0.15356359552E+03  0.12500000000E+03 0.  0.
         25    1    1    2    0    0  0.42677683501E+02 -0.18764011974E+03  0.45002504070E+03  0.50515120159E+03  0.12500000000E+03 0.  0.
</event>
<event>
 5    0  0.5705185E-005  0.2352755E+03  0.7546771E-02  0.1122981E+00
         21   -1    0    0  502  501  0.00000000000E+00  0.00000000000E+00  0.25438213100E+03  0.25438213100E+03  0.00000000000E+00 0. -1.
         21   -1    0    0  501  502 -0.00000000000E+00 -0.00000000000E+00 -0.21760398740E+03  0.21760398740E+03  0.00000000000E+00 0. -1.
         25    1    1    2    0    0  0.39131769777E+02 -0.12397814399E+03  0.32096174019E+02  0.18318580726E+03  0.12500000000E+03 0.  0.
         25    1    1    2    0    0 -0.90145173031E+01  0.62781420027E+02 -0.27424231658E+02  0.14282806694E+03  0.12500000000E+03 0.  0.
         25    1    1    2    0    0 -0.30117252474E+02  0.61196723966E+02  0.32106201237E+02  0.14597224421E+03  0.12500000000E+03 0.  0.
</event>
<event>
 5    0  0.5705185E-005  0.2933711E+03  0.7546771E-02  0.1088602E+00
         21   -1    0    0  502  501  0.00000000000E+00  0.00000000000E+00  0.39642507139E+03  0.39642507139E+03  0.00000000000E+00 0. -1.
         21   -1    0    0  501  502 -0.00000000000E+00 -0.00000000000E+00 -0.21710687702E+03  0.21710687702E+03  0.00000000000E+00 0. -1.
         25    1    1    2    0    0  0.82545650409E+02 -0.32365427768E+02 -0.24634456271E+02  0.15521972089E+03  0.12500000000E+03 0.  0.
         25    1    1    2    0    0 -0.38045936839E+02 -0.19251678612E+02 -0.70071794148E+02  0.14950978822E+03  0.12500000000E+03 0.  0.
         25    1    1    2    0    0 -0.44499713570E+02  0.51617106379E+02  0.27402444479E+03  0.30880243930E+03  0.12500000000E+03 0.  0.
</event>
<event>
 5    0  0.5705185E-005  0.4254821E+03  0.7546771E-02  0.1035297E+00
         21   -1    0    0  502  501  0.00000000000E+00  0.00000000000E+00  0.88585706671E+03  0.88585706671E+03  0.00000000000E+00 0. -1.
         21   -1    0    0  501  502 -0.00000000000E+00 -0.00000000000E+00 -0.20436141422E+03  0.20436141422E+03  0.00000000000E+00 0. -1.
         25    1    1    2    0    0 -0.15210601241E+03 -0.11556958266E+03  0.13474439098E+03  0.26509171686E+03  0.12500000000E+03 0.  0.
         25    1    1    2    0    0 -0.66475967108E+01 -0.19500629937E+03  0.30367699717E+03  0.38199000765E+03  0.12500000000E+03 0.  0.
         25    1    1    2    0    0  0.15875360912E+03  0.31057588203E+03  0.24307426434E+03  0.44313675642E+03  0.12500000000E+03 0.  0.
</event>
<event>
 5    0  0.5705185E-005  0.2774666E+03  0.7546771E-02  0.1097081E+00
         21   -1    0    0  502  501  0.00000000000E+00  0.00000000000E+00  0.33835420775E+03  0.33835420775E+03  0.00000000000E+00 0. -1.
         21   -1    0    0  501  502 -0.00000000000E+00 -0.00000000000E+00 -0.22753583087E+03  0.22753583087E+03  0.00000000000E+00 0. -1.
         25    1    1    2    0    0  0.59755594594E+02  0.97600792534E+02  0.33407406153E+02  0.17273592728E+03  0.12500000000E+03 0.  0.
         25    1    1    2    0    0  0.56215073671E+02 -0.12707198002E+03  0.11029229882E+03  0.21701800338E+03  0.12500000000E+03 0.  0.
         25    1    1    2    0    0 -0.11597066826E+03  0.29471187481E+02 -0.32881328096E+02  0.17613610796E+03  0.12500000000E+03 0.  0.
</event>
<event>
 5    0  0.5705185E-005  0.2809485E+03  0.7546771E-02  0.1095172E+00
         21   -1    0    0  502  501  0.00000000000E+00  0.00000000000E+00  0.27975423620E+03  0.27975423620E+03  0.00000000000E+00 0. -1.
         21   -1    0    0  501  502 -0.00000000000E+00 -0.00000000000E+00 -0.28214781625E+03  0.28214781625E+03  0.00000000000E+00 0. -1.
         25    1    1    2    0    0  0.13685147143E+03 -0.16901169855E+02  0.27773660521E+02  0.18817638266E+03  0.12500000000E+03 0.  0.
         25    1    1    2    0    0 -0.96652934415E+02  0.11531065830E+03 -0.64717820343E+02  0.20603818559E+03  0.12500000000E+03 0.  0.
         25    1    1    2    0    0 -0.40198537012E+02 -0.98409488449E+02  0.34550579777E+02  0.16768748420E+03  0.12500000000E+03 0.  0.
</event>
<event>
 5    0  0.5705185E-005  0.1980924E+03  0.7546771E-02  0.1151358E+00
         21   -1    0    0  502  501  0.00000000000E+00  0.00000000000E+00  0.87478858709E+02  0.87478858709E+02  0.00000000000E+00 0.  1.
         21   -1    0    0  501  502 -0.00000000000E+00 -0.00000000000E+00 -0.44857251519E+03  0.44857251519E+03  0.00000000000E+00 0.  1.
         25    1    1    2    0    0  0.22676335803E+02 -0.19109077443E+02 -0.17617824088E+03  0.21804390752E+03  0.12500000000E+03 0.  0.
         25    1    1    2    0    0  0.97907287306E+01 -0.37894739642E+01 -0.70140017109E+02  0.14371791984E+03  0.12500000000E+03 0.  0.
         25    1    1    2    0    0 -0.32467064534E+02  0.22898551407E+02 -0.11477539849E+03  0.17428954655E+03  0.12500000000E+03 0.  0.
</event>
<event>
 5    0  0.5705185E-005  0.3043406E+03  0.7546771E-02  0.1083091E+00
         21   -1    0    0  502  501  0.00000000000E+00  0.00000000000E+00  0.17086607650E+03  0.17086607650E+03  0.00000000000E+00 0.  1.
         21   -1    0    0  501  502 -0.00000000000E+00 -0.00000000000E+00 -0.54208085625E+03  0.54208085625E+03  0.00000000000E+00 0.  1.
         25    1    1    2    0    0 -0.27381866093E+02 -0.40333703863E+02 -0.11142827104E+03  0.17440709230E+03  0.12500000000E+03 0.  0.
         25    1    1    2    0    0  0.14193105357E+03  0.15126422191E+03 -0.50778180584E+02  0.24744436228E+03  0.12500000000E+03 0.  0.
         25    1    1    2    0    0 -0.11454918748E+03 -0.11093051805E+03 -0.20900832813E+03  0.29109547818E+03  0.12500000000E+03 0.  0.
</event>
<event>
 5    0  0.5705185E-005  0.3296472E+03  0.7546771E-02  0.1071293E+00
         21   -1    0    0  502  501  0.00000000000E+00  0.00000000000E+00  0.31118420373E+03  0.31118420373E+03  0.00000000000E+00 0.  1.
         21   -1    0    0  501  502 -0.00000000000E+00 -0.00000000000E+00 -0.34920569566E+03  0.34920569566E+03  0.00000000000E+00 0.  1.
         25    1    1    2    0    0 -0.10702035092E+03 -0.97919231678E+02 -0.17726840976E+03  0.26094179532E+03  0.12500000000E+03 0.  0.
         25    1    1    2    0    0 -0.71762422019E+01 -0.48195211816E+02 -0.33690446558E+01  0.13420367862E+03  0.12500000000E+03 0.  0.
         25    1    1    2    0    0  0.11419659312E+03  0.14611444349E+03  0.14261596248E+03  0.26524442545E+03  0.12500000000E+03 0.  0.
</event>
<event>
 5    0  0.6647414E-005  0.3034025E+03  0.7546771E-02  0.1083552E+00
         21   -1    0    0  502  501  0.00000000000E+00  0.00000000000E+00  0.45815489812E+03  0.45815489812E+03  0.00000000000E+00 0.  1.
         21   -1    0    0  501  502 -0.00000000000E+00 -0.00000000000E+00 -0.20092130174E+03  0.20092130174E+03  0.00000000000E+00 0.  1.
         25    1    1    2    0    0 -0.13682743264E+03 -0.39531089903E+02  0.55802276681E+02  0.19754328001E+03  0.12500000000E+03 0.  0.
         25    1    1    2    0    0  0.94804187839E+02  0.32818641303E+02 -0.57982508483E+02  0.17044608690E+03  0.12500000000E+03 0.  0.
         25    1    1    2    0    0  0.42023244806E+02  0.67124485994E+01  0.25941382818E+03  0.29108683295E+03  0.12500000000E+03 0.  0.
</event>
<event>
 5    0  0.5705185E-005  0.3243257E+03  0.7546771E-02  0.1073676E+00
         21   -1    0    0  502  501  0.00000000000E+00  0.00000000000E+00  0.35604005895E+03  0.35604005895E+03  0.00000000000E+00 0. -1.
         21   -1    0    0  501  502 -0.00000000000E+00 -0.00000000000E+00 -0.29543621929E+03  0.29543621929E+03  0.00000000000E+00 0. -1.
         25    1    1    2    0    0  0.12840326202E+03  0.11730690754E+02  0.21033675495E+03  0.27657107095E+03  0.12500000000E+03 0.  0.
         25    1    1    2    0    0 -0.81990740810E+02  0.80364820691E+02 -0.12542901673E+03  0.21104128558E+03  0.12500000000E+03 0.  0.
         25    1    1    2    0    0 -0.46412521208E+02 -0.92095511445E+02 -0.24303898556E+02  0.16386392171E+03  0.12500000000E+03 0.  0.
</event>
<event>
 5    0  0.5705185E-005  0.2716846E+03  0.7546771E-02  0.1100319E+00
         21   -1    0    0  502  501  0.00000000000E+00  0.00000000000E+00  0.26399667084E+03  0.26399667084E+03  0.00000000000E+00 0. -1.
         21   -1    0    0  501  502 -0.00000000000E+00 -0.00000000000E+00 -0.27959641925E+03  0.27959641925E+03  0.00000000000E+00 0. -1.
         25    1    1    2    0    0 -0.22650486132E+02 -0.13668470842E+03 -0.30232553076E+02  0.18903640206E+03  0.12500000000E+03 0.  0.
         25    1    1    2    0    0  0.32278716462E+02  0.67872057352E+02  0.10998077028E+03  0.18267266226E+03  0.12500000000E+03 0.  0.
         25    1    1    2    0    0 -0.96282303297E+01  0.68812651071E+02 -0.95347965614E+02  0.17188402577E+03  0.12500000000E+03 0.  0.
</event>
<event>
 5    0  0.5705185E-005  0.4801248E+03  0.7546771E-02  0.1019101E+00
         21   -1    0    0  502  501  0.00000000000E+00  0.00000000000E+00  0.11086243626E+04  0.11086243626E+04  0.00000000000E+00 0. -1.
         21   -1    0    0  501  502 -0.00000000000E+00 -0.00000000000E+00 -0.20793319886E+03  0.20793319886E+03  0.00000000000E+00 0. -1.
         25    1    1    2    0    0  0.12666158930E+03  0.97281839927E+02  0.23215837011E+03  0.30826842750E+03  0.12500000000E+03 0.  0.
         25    1    1    2    0    0 -0.28673009950E+03  0.18117468837E+03  0.51928743589E+03  0.63271072280E+03  0.12500000000E+03 0.  0.
         25    1    1    2    0    0  0.16006851020E+03 -0.27845652829E+03  0.14924535769E+03  0.37557841112E+03  0.12500000000E+03 0.  0.
</event>
<event>
 5    0  0.5705185E-005  0.3436931E+03  0.7546771E-02  0.1065234E+00
         21   -1    0    0  502  501  0.00000000000E+00  0.00000000000E+00  0.20645170436E+03  0.20645170436E+03  0.00000000000E+00 0.  1.
         21   -1    0    0  501  502 -0.00000000000E+00 -0.00000000000E+00 -0.57216748222E+03  0.57216748222E+03  0.00000000000E+00 0.  1.
         25    1    1    2    0    0 -0.13052513345E+03 -0.10088659763E+03 -0.15967341751E+03  0.26141062775E+03  0.12500000000E+03 0.  0.
         25    1    1    2    0    0  0.22331631683E+02  0.22897031885E+03 -0.83482946227E+02  0.27480995433E+03  0.12500000000E+03 0.  0.
         25    1    1    2    0    0  0.10819350176E+03 -0.12808372123E+03 -0.12255941413E+03  0.24239860449E+03  0.12500000000E+03 0.  0.
</event>
<event>
 5    0  0.5705185E-005  0.2143178E+03  0.7546771E-02  0.1138192E+00
         21   -1    0    0  502  501  0.00000000000E+00  0.00000000000E+00  0.21849275973E+03  0.21849275973E+03  0.00000000000E+00 0. -1.
         21   -1    0    0  501  502 -0.00000000000E+00 -0.00000000000E+00 -0.21022253272E+03  0.21022253272E+03  0.00000000000E+00 0. -1.
         25    1    1    2    0    0 -0.22646418579E+01 -0.18046341723E+02  0.69169938857E+02  0.14401485859E+03  0.12500000000E+03 0.  0.
         25    1    1    2    0    0 -0.47630230682E+01 -0.42678859151E+01 -0.90100412373E+02  0.15422057434E+03  0.12500000000E+03 0.  0.
         25    1    1    2    0    0  0.70276649262E+01  0.22314227638E+02  0.29200700527E+02  0.13047985952E+03  0.12500000000E+03 0.  0.
</event>
<event>
 5    0  0.5705185E-005  0.3749293E+03  0.7546771E-02  0.1052824E+00
         21   -1    0    0  502  501  0.00000000000E+00  0.00000000000E+00  0.42260855798E+03  0.42260855798E+03  0.00000000000E+00 0.  1.
         21   -1    0    0  501  502 -0.00000000000E+00 -0.00000000000E+00 -0.33262922003E+03  0.33262922003E+03  0.00000000000E+00 0.  1.
         25    1    1    2    0    0  0.36620562785E+02  0.51252073202E+02  0.14195708312E+02  0.14069242610E+03  0.12500000000E+03 0.  0.
         25    1    1    2    0    0 -0.13379822103E+03  0.18778725750E+03 -0.97168325428E+02  0.27970109313E+03  0.12500000000E+03 0.  0.
         25    1    1    2    0    0  0.97177658248E+02 -0.23903933070E+03  0.17295195506E+03  0.33484425879E+03  0.12500000000E+03 0.  0.
</event>
<event>
 5    0  0.5705185E-005  0.2839443E+03  0.7546771E-02  0.1093554E+00
         21   -1    0    0  502  501  0.00000000000E+00  0.00000000000E+00  0.98585266518E+02  0.98585266518E+02  0.00000000000E+00 0.  1.
         21   -1    0    0  501  502 -0.00000000000E+00 -0.00000000000E+00 -0.81781328810E+03  0.81781328810E+03  0.00000000000E+00 0.  1.
         25    1    1    2    0    0 -0.16904316156E+03  0.54319468384E+02 -0.31835141837E+03  0.38535544721E+03  0.12500000000E+03 0.  0.
         25    1    1    2    0    0  0.76671009949E+02  0.27023732247E+02 -0.90226533505E+02  0.17428296882E+03  0.12500000000E+03 0.  0.
         25    1    1    2    0    0  0.92372151606E+02 -0.81343200631E+02 -0.31065006970E+03  0.35676013859E+03  0.12500000000E+03 0.  0.
</event>
<event>
 5    0  0.5705185E-005  0.2620685E+03  0.7546771E-02  0.1105907E+00
         21   -1    0    0  502  501  0.00000000000E+00  0.00000000000E+00  0.12086821123E+03  0.12086821123E+03  0.00000000000E+00 0.  1.
         21   -1    0    0  501  502 -0.00000000000E+00 -0.00000000000E+00 -0.56822115600E+03  0.56822115600E+03  0.00000000000E+00 0.  1.
         25    1    1    2    0    0 -0.11741273174E+03 -0.24775372152E+02 -0.12221206664E+03  0.21203857638E+03  0.12500000000E+03 0.  0.
         25    1    1    2    0    0  0.15281473343E+03  0.72305496605E+02 -0.18356414358E+03  0.27910790459E+03  0.12500000000E+03 0.  0.
         25    1    1    2    0    0 -0.35402001692E+02 -0.47530124453E+02 -0.14157673455E+03  0.19794288626E+03  0.12500000000E+03 0.  0.
</event>
<event>
 5    0  0.5705185E-005  0.4466188E+03  0.7546771E-02  0.1028735E+00
         21   -1    0    0  502  501  0.00000000000E+00  0.00000000000E+00  0.17724740983E+04  0.17724740983E+04  0.00000000000E+00 0. -1.
         21   -1    0    0  501  502 -0.00000000000E+00 -0.00000000000E+00 -0.11253668594E+03  0.11253668594E+03  0.00000000000E+00 0. -1.
         25    1    1    2    0    0  0.10413912548E+02  0.12067717053E+02 -0.26343237102E+02  0.12873634106E+03  0.12500000000E+03 0.  0.
         25    1    1    2    0    0  0.74166638584E+02  0.12454216092E+03  0.30508383516E+03  0.36015633633E+03  0.12500000000E+03 0.  0.
         25    1    1    2    0    0 -0.84580551132E+02 -0.13660987798E+03  0.13811968143E+04  0.13961181068E+04  0.12500000000E+03 0.  0.
</event>
<event>
 5    0  0.5705185E-005  0.3544843E+03  0.7546771E-02  0.1060789E+00
         21   -1    0    0  502  501  0.00000000000E+00  0.00000000000E+00  0.14754132317E+04  0.14754132317E+04  0.00000000000E+00 0. -1.
         21   -1    0    0  501  502 -0.00000000000E+00 -0.00000000000E+00 -0.85168760320E+02  0.85168760320E+02  0.00000000000E+00 0. -1.
         25    1    1    2    0    0  0.98540740129E+02  0.18592005646E+03  0.25677327134E+03  0.35473096529E+03  0.12500000000E+03 0.  0.
         25    1    1    2    0    0 -0.27744368185E+02 -0.22807340241E+03  0.70197300383E+03  0.74911836512E+03  0.12500000000E+03 0.  0.
         25    1    1    2    0    0 -0.70796371943E+02  0.42153345951E+02  0.43149819621E+03  0.45673266162E+03  0.12500000000E+03 0.  0.
</event>
<event>
 5    0  0.5705185E-005  0.2742685E+03  0.7546771E-02  0.1098861E+00
         21   -1    0    0  502  501  0.00000000000E+00  0.00000000000E+00  0.22733060163E+03  0.22733060163E+03  0.00000000000E+00 0. -1.
         21   -1    0    0  501  502 -0.00000000000E+00 -0.00000000000E+00 -0.33089795073E+03  0.33089795073E+03  0.00000000000E+00 0. -1.
         25    1    1    2    0    0 -0.18240174046E+03  0.56554761024E+01 -0.59713303414E+02  0.22911363542E+03  0.12500000000E+03 0.  0.
         25    1    1    2    0    0  0.11872589566E+03  0.70745478054E+01 -0.69364225300E+02  0.18596312344E+03  0.12500000000E+03 0.  0.
         25    1    1    2    0    0  0.63675844800E+02 -0.12730023908E+02  0.25510179616E+02  0.14315179351E+03  0.12500000000E+03 0.  0.
</event>
<event>
 5    0  0.5705185E-005  0.3903380E+03  0.7546771E-02  0.1047178E+00
         21   -1    0    0  502  501  0.00000000000E+00  0.00000000000E+00  0.20449700902E+03  0.20449700902E+03  0.00000000000E+00 0. -1.
         21   -1    0    0  501  502 -0.00000000000E+00 -0.00000000000E+00 -0.74506591746E+03  0.74506591746E+03  0.00000000000E+00 0. -1.
         25    1    1    2    0    0 -0.14049956576E+03 -0.10880772488E+03 -0.23588387860E+03  0.32069526525E+03  0.12500000000E+03 0.  0.
         25    1    1    2    0    0 -0.14832158653E+03  0.10651726867E+02 -0.20957150078E+03  0.28575858037E+03  0.12500000000E+03 0.  0.
         25    1    1    2    0    0  0.28882115229E+03  0.98155998016E+02 -0.95113529073E+02  0.34310908086E+03  0.12500000000E+03 0.  0.
</event>
<event>
 5    0  0.5705185E-005  0.3446427E+03  0.7546771E-02  0.1064836E+00
         21   -1    0    0  502  501  0.00000000000E+00  0.00000000000E+00  0.74182994973E+03  0.74182994973E+03  0.00000000000E+00 0. -1.
         21   -1    0    0  501  502 -0.00000000000E+00 -0.00000000000E+00 -0.16011566690E+03  0.16011566690E+03  0.00000000000E+00 0. -1.
         25    1    1    2    0    0  0.69498960979E+02 -0.31500129899E+02  0.17968019469E+02  0.14754732625E+03  0.12500000000E+03 0.  0.
         25    1    1    2    0    0  0.92514336460E+01 -0.61203278089E+02  0.56295850230E+03  0.57998164246E+03  0.12500000000E+03 0.  0.
         25    1    1    2    0    0 -0.78750394625E+02  0.92703407988E+02  0.78776105821E+00  0.17441664793E+03  0.12500000000E+03 0.  0.
</event>
<event>
 5    0  0.5705185E-005  0.2791341E+03  0.7546771E-02  0.1096163E+00
         21   -1    0    0  502  501  0.00000000000E+00  0.00000000000E+00  0.62378600603E+02  0.62378600603E+02  0.00000000000E+00 0.  1.
         21   -1    0    0  501  502 -0.00000000000E+00 -0.00000000000E+00 -0.12490801081E+04  0.12490801081E+04  0.00000000000E+00 0.  1.
         25    1    1    2    0    0 -0.53560901291E+02  0.64526939944E+02 -0.20870272308E+03  0.25732143857E+03  0.12500000000E+03 0.  0.
         25    1    1    2    0    0  0.27281810839E+01 -0.16216043259E+02 -0.90638782263E+02  0.15527650138E+03  0.12500000000E+03 0.  0.
         25    1    1    2    0    0  0.50832720207E+02 -0.48310896686E+02 -0.88736000213E+03  0.89886076873E+03  0.12500000000E+03 0.  0.
</event>
<event>
 5    0  0.5705185E-005  0.4924544E+03  0.7546771E-02  0.1015767E+00
         21   -1    0    0  502  501  0.00000000000E+00  0.00000000000E+00  0.29424970614E+03  0.29424970614E+03  0.00000000000E+00 0. -1.
         21   -1    0    0  501  502 -0.00000000000E+00 -0.00000000000E+00 -0.82416851477E+03  0.82416851477E+03  0.00000000000E+00 0. -1.
         25    1    1    2    0    0 -0.77910355942E+02  0.21082304304E+02  0.23657876251E+03  0.27947987046E+03  0.12500000000E+03 0.  0.
         25    1    1    2    0    0 -0.13149720632E+02  0.62740522178E+02 -0.19060628221E+03  0.23678058006E+03  0.12500000000E+03 0.  0.
         25    1    1    2    0    0  0.91060076574E+02 -0.83822826482E+02 -0.57589128893E+03  0.60215777040E+03  0.12500000000E+03 0.  0.
</event>
<event>
 5    0  0.5705185E-005  0.3363908E+03  0.7546771E-02  0.1068344E+00
         21   -1    0    0  502  501  0.00000000000E+00  0.00000000000E+00  0.49291328825E+03  0.49291328825E+03  0.00000000000E+00 0.  1.
         21   -1    0    0  501  502 -0.00000000000E+00 -0.00000000000E+00 -0.22957137206E+03  0.22957137206E+03  0.00000000000E+00 0.  1.
         25    1    1    2    0    0 -0.10443676191E+03 -0.94463149685E+02  0.13601685889E+03  0.23228411437E+03  0.12500000000E+03 0.  0.
         25    1    1    2    0    0  0.12138646652E+02 -0.67116846429E+02 -0.97605782477E+02  0.17263807978E+03  0.12500000000E+03 0.  0.
         25    1    1    2    0    0  0.92298115261E+02  0.16157999611E+03  0.22493083978E+03  0.31756246615E+03  0.12500000000E+03 0.  0.
</event>
<event>
 5    0  0.5705185E-005  0.4805639E+03  0.7546771E-02  0.1018980E+00
         21   -1    0    0  502  501  0.00000000000E+00  0.00000000000E+00  0.53337075905E+03  0.53337075905E+03  0.00000000000E+00 0. -1.
         21   -1    0    0  501  502 -0.00000000000E+00 -0.00000000000E+00 -0.43298518713E+03  0.43298518713E+03  0.00000000000E+00 0. -1.
         25    1    1    2    0    0  0.54814464840E+01 -0.20676210255E+03 -0.73595671514E+02  0.25263003814E+03  0.12500000000E+03 0.  0.
         25    1    1    2    0    0 -0.15694181321E+03  0.30367101708E+03  0.29048401920E+03  0.46567454811E+03  0.12500000000E+03 0.  0.
         25    1    1    2    0    0  0.15146036672E+03 -0.96908914537E+02 -0.11650277576E+03  0.24805135993E+03  0.12500000000E+03 0.  0.
</event>
<event>
 5    0  0.5705185E-005  0.3799189E+03  0.7546771E-02  0.1050964E+00
         21   -1    0    0  502  501  0.00000000000E+00  0.00000000000E+00  0.70306840011E+02  0.70306840011E+02  0.00000000000E+00 0. -1.
         21   -1    0    0  501  502 -0.00000000000E+00 -0.00000000000E+00 -0.20529780276E+04  0.20529780276E+04  0.00000000000E+00 0. -1.
         25    1    1    2    0    0  0.68881590969E+02  0.64035801223E+02 -0.26464740595E+03  0.30742235912E+03  0.12500000000E+03 0.  0.
         25    1    1    2    0    0  0.18883528176E+01 -0.25637708906E+03 -0.51117472943E+03  0.58536944033E+03  0.12500000000E+03 0.  0.
         25    1    1    2    0    0 -0.70769943786E+02  0.19234128784E+03 -0.12068490523E+04  0.12304930682E+04  0.12500000000E+03 0.  0.
</event>
<event>
 5    0  0.5705185E-005  0.4547896E+03  0.7546771E-02  0.1026303E+00
         21   -1    0    0  502  501  0.00000000000E+00  0.00000000000E+00  0.20400245161E+03  0.20400245161E+03  0.00000000000E+00 0. -1.
         21   -1    0    0  501  502 -0.00000000000E+00 -0.00000000000E+00 -0.10138778514E+04  0.10138778514E+04  0.00000000000E+00 0. -1.
         25    1    1    2    0    0  0.31133485366E+03  0.94032938928E+02 -0.41115513835E+03  0.53892961738E+03  0.12500000000E+03 0.  0.
         25    1    1    2    0    0 -0.17366656317E+03 -0.17758604493E+03 -0.61325318421E+02  0.28475019438E+03  0.12500000000E+03 0.  0.
         25    1    1    2    0    0 -0.13766829048E+03  0.83553106001E+02 -0.33739494307E+03  0.39420049129E+03  0.12500000000E+03 0.  0.
</event>
<event>
 5    0  0.5705185E-005  0.2474316E+03  0.7546771E-02  0.1114939E+00
         21   -1    0    0  502  501  0.00000000000E+00  0.00000000000E+00  0.93753792457E+03  0.93753792457E+03  0.00000000000E+00 0. -1.
         21   -1    0    0  501  502 -0.00000000000E+00 -0.00000000000E+00 -0.65301226427E+02  0.65301226427E+02  0.00000000000E+00 0. -1.
         25    1    1    2    0    0  0.95784535546E+02  0.59427243245E+02  0.36064528521E+03  0.39799032179E+03  0.12500000000E+03 0.  0.
         25    1    1    2    0    0 -0.22719892960E+02  0.31221469492E+02  0.11961615340E+03  0.17726815238E+03  0.12500000000E+03 0.  0.
         25    1    1    2    0    0 -0.73064642586E+02 -0.90648712737E+02  0.39197525953E+03  0.42758067683E+03  0.12500000000E+03 0.  0.
</event>
<event>
 5    0  0.5970522E-005  0.2855826E+03  0.7546771E-02  0.1092678E+00
         21   -1    0    0  502  501  0.00000000000E+00  0.00000000000E+00  0.66959325306E+03  0.66959325306E+03  0.00000000000E+00 0.  1.
         21   -1    0    0  501  502 -0.00000000000E+00 -0.00000000000E+00 -0.12180143483E+03  0.12180143483E+03  0.00000000000E+00 0.  1.
         25    1    1    2    0    0  0.10744283693E+02  0.15127172690E+03  0.32788584635E+03  0.38227307416E+03  0.12500000000E+03 0.  0.
         25    1    1    2    0    0  0.84301414700E+02 -0.58443731347E+02  0.88813143960E+02  0.18448624012E+03  0.12500000000E+03 0.  0.
         25    1    1    2    0    0 -0.95045698392E+02 -0.92827995552E+02  0.13109282793E+03  0.22463537361E+03  0.12500000000E+03 0.  0.
</event>
<event>
 5    0  0.5705185E-005  0.3583456E+03  0.7546771E-02  0.1059241E+00
         21   -1    0    0  502  501  0.00000000000E+00  0.00000000000E+00  0.84339141075E+03  0.84339141075E+03  0.00000000000E+00 0.  1.
         21   -1    0    0  501  502 -0.00000000000E+00 -0.00000000000E+00 -0.15225616230E+03  0.15225616230E+03  0.00000000000E+00 0.  1.
         25    1    1    2    0    0 -0.98025746258E+02  0.18709282020E+03  0.49014121618E+02  0.25028015187E+03  0.12500000000E+03 0.  0.
         25    1    1    2    0    0  0.97784714461E+02 -0.17040911784E+02  0.20366126086E+03  0.25875693659E+03  0.12500000000E+03 0.  0.
         25    1    1    2    0    0  0.24103179684E+00 -0.17005190842E+03  0.43845986597E+03  0.48661048460E+03  0.12500000000E+03 0.  0.
</event>
<event>
 5    0  0.5705185E-005  0.3172069E+03  0.7546771E-02  0.1076942E+00
         21   -1    0    0  502  501  0.00000000000E+00  0.00000000000E+00  0.31547202279E+03  0.31547202279E+03  0.00000000000E+00 0. -1.
         21   -1    0    0  501  502 -0.00000000000E+00 -0.00000000000E+00 -0.31895133514E+03  0.31895133514E+03  0.00000000000E+00 0. -1.
         25    1    1    2    0    0  0.87679357564E+02 -0.13969010597E+03 -0.42793795969E+02  0.21132274942E+03  0.12500000000E+03 0.  0.
         25    1    1    2    0    0 -0.36828756979E+02  0.43457255775E+02 -0.12787705760E+03  0.18767640310E+03  0.12500000000E+03 0.  0.
         25    1    1    2    0    0 -0.50850600585E+02  0.96232850197E+02  0.16719154122E+03  0.23542420541E+03  0.12500000000E+03 0.  0.
</event>
<event>
 5    0  0.5705185E-005  0.2354784E+03  0.7546771E-02  0.1122842E+00
         21   -1    0    0  502  501  0.00000000000E+00  0.00000000000E+00  0.41368774833E+03  0.41368774833E+03  0.00000000000E+00 0.  1.
         21   -1    0    0  501  502 -0.00000000000E+00 -0.00000000000E+00 -0.13403849335E+03  0.13403849335E+03  0.00000000000E+00 0.  1.
         25    1    1    2    0    0  0.10968907129E+02 -0.44274097058E+02  0.25238185027E+03  0.28531055175E+03  0.12500000000E+03 0.  0.
         25    1    1    2    0    0 -0.29219038486E+01  0.48994014421E+02  0.27452879622E+02  0.13706790861E+03  0.12500000000E+03 0.  0.
         25    1    1    2    0    0 -0.80470032807E+01 -0.47199173629E+01 -0.18547490987E+00  0.12534778132E+03  0.12500000000E+03 0.  0.
</event>
<event>
 5    0  0.5705185E-005  0.3077923E+03  0.7546771E-02  0.1081409E+00
         21   -1    0    0  502  501  0.00000000000E+00  0.00000000000E+00  0.18337725611E+04  0.18337725611E+04  0.00000000000E+00 0.  1.
         21   -1    0    0  501  502 -0.00000000000E+00 -0.00000000000E+00 -0.51661842920E+02  0.51661842920E+02  0.00000000000E+00 0.  1.
         25    1    1    2    0    0  0.41775275790E+02  0.18741285694E+02  0.20707723222E+03  0.24617552592E+03  0.12500000000E+03 0.  0.
         25    1    1    2    0    0 -0.11372592026E+03  0.14296266187E+03  0.57761174769E+03  0.61857274326E+03  0.12500000000E+03 0.  0.
         25    1    1    2    0    0  0.71950644468E+02 -0.16170394757E+03  0.99742173828E+03  0.10206861349E+04  0.12500000000E+03 0.  0.
</event>
<event>
 5    0  0.5705185E-005  0.3221674E+03  0.7546771E-02  0.1074656E+00
         21   -1    0    0  502  501  0.00000000000E+00  0.00000000000E+00  0.14212492669E+03  0.14212492669E+03  0.00000000000E+00 0. -1.
         21   -1    0    0  501  502 -0.00000000000E+00 -0.00000000000E+00 -0.73028575118E+03  0.73028575118E+03  0.00000000000E+00 0. -1.
         25    1    1    2    0    0  0.97865441563E+02 -0.83394709437E+02 -0.49747244330E+02  0.18609704601E+03  0.12500000000E+03 0.  0.
         25    1    1    2    0    0  0.89094284708E+02  0.10927132445E+03 -0.32230861265E+03  0.37334415183E+03  0.12500000000E+03 0.  0.
         25    1    1    2    0    0 -0.18695972627E+03 -0.25876615014E+02 -0.21610496751E+03  0.31296948004E+03  0.12500000000E+03 0.  0.
</event>
<event>
 5    0  0.5705185E-005  0.3437153E+03  0.7546771E-02  0.1065224E+00
         21   -1    0    0  502  501  0.00000000000E+00  0.00000000000E+00  0.12675768730E+04  0.12675768730E+04  0.00000000000E+00 0.  1.
         21   -1    0    0  501  502 -0.00000000000E+00 -0.00000000000E+00 -0.93201599664E+02  0.93201599664E+02  0.00000000000E+00 0. -1.
         25    1    1    2    0    0  0.17492018195E+03 -0.82910814744E+02  0.27254032132E+03  0.35689564301E+03  0.12500000000E+03 0.  0.
         25    1    1    2    0    0 -0.20441889598E+03  0.12445793152E+03  0.76680461400E+03  0.81295213746E+03  0.12500000000E+03 0.  0.
         25    1    1    2    0    0  0.29498714026E+02 -0.41547116774E+02  0.13503033806E+03  0.19093069224E+03  0.12500000000E+03 0.  0.
</event>
<event>
 5    0  0.6700204E-005  0.2635770E+03  0.7546771E-02  0.1105013E+00
         21   -1    0    0  502  501  0.00000000000E+00  0.00000000000E+00  0.26517134369E+03  0.26517134369E+03  0.00000000000E+00 0.  1.
         21   -1    0    0  501  502 -0.00000000000E+00 -0.00000000000E+00 -0.26199218444E+03  0.26199218444E+03  0.00000000000E+00 0.  1.
         25    1    1    2    0    0 -0.73822712371E+02 -0.73068410964E+02 -0.21930936906E+02  0.16399619366E+03  0.12500000000E+03 0.  0.
         25    1    1    2    0    0  0.23717940877E+01  0.90602253473E+02  0.11500587931E+03  0.19252466340E+03  0.12500000000E+03 0.  0.
         25    1    1    2    0    0  0.71450918284E+02 -0.17533842508E+02 -0.89895783161E+02  0.17064267106E+03  0.12500000000E+03 0.  0.
</event>
<event>
 5    0  0.5705185E-005  0.3474909E+03  0.7546771E-02  0.1063650E+00
         21   -1    0    0  502  501  0.00000000000E+00  0.00000000000E+00  0.22375656307E+03  0.22375656307E+03  0.00000000000E+00 0. -1.
         21   -1    0    0  501  502 -0.00000000000E+00 -0.00000000000E+00 -0.53964876864E+03  0.53964876864E+03  0.00000000000E+00 0. -1.
         25    1    1    2    0    0 -0.10393799674E+03 -0.19280710412E+03 -0.10916919397E+03  0.27481011531E+03  0.12500000000E+03 0.  0.
         25    1    1    2    0    0 -0.24336507322E+02 -0.45483360323E+02 -0.11267028382E+03  0.17601305210E+03  0.12500000000E+03 0.  0.
         25    1    1    2    0    0  0.12827450406E+03  0.23829046444E+03 -0.94052727793E+02  0.31258216430E+03  0.12500000000E+03 0.  0.
</event>
<event>
 5    0  0.5705185E-005  0.2370443E+03  0.7546771E-02  0.1121778E+00
         21   -1    0    0  502  501  0.00000000000E+00  0.00000000000E+00  0.61090195430E+03  0.61090195430E+03  0.00000000000E+00 0.  1.
         21   -1    0    0  501  502 -0.00000000000E+00 -0.00000000000E+00 -0.91978737899E+02  0.91978737899E+02  0.00000000000E+00 0.  1.
         25    1    1    2    0    0  0.58152089771E+01  0.71107149551E+02  0.23576865828E+03  0.27622799207E+03  0.12500000000E+03 0.  0.
         25    1    1    2    0    0  0.37316099499E+02 -0.69636281950E+02  0.24977327026E+03  0.29026434432E+03  0.12500000000E+03 0.  0.
         25    1    1    2    0    0 -0.43131308476E+02 -0.14708676007E+01  0.33381287857E+02  0.13638835581E+03  0.12500000000E+03 0.  0.
</event>
<event>
 5    0  0.5705185E-005  0.2645509E+03  0.7546771E-02  0.1104439E+00
         21   -1    0    0  502  501  0.00000000000E+00  0.00000000000E+00  0.32127452418E+03  0.32127452418E+03  0.00000000000E+00 0.  1.
         21   -1    0    0  501  502 -0.00000000000E+00 -0.00000000000E+00 -0.21784224633E+03  0.21784224633E+03  0.00000000000E+00 0.  1.
         25    1    1    2    0    0 -0.30291189231E+01  0.85613597305E+01  0.11103795136E+03  0.16744222611E+03  0.12500000000E+03 0.  0.
         25    1    1    2    0    0 -0.57843223561E+02 -0.12542111923E+03 -0.29977981185E+02  0.18867955643E+03  0.12500000000E+03 0.  0.
         25    1    1    2    0    0  0.60872342484E+02  0.11685975950E+03  0.22372307663E+02  0.18299498796E+03  0.12500000000E+03 0.  0.
</event>
<event>
 5    0  0.6471877E-005  0.2740368E+03  0.7546771E-02  0.1098991E+00
         21   -1    0    0  502  501  0.00000000000E+00  0.00000000000E+00  0.57633854254E+03  0.57633854254E+03  0.00000000000E+00 0. -1.
         21   -1    0    0  501  502 -0.00000000000E+00 -0.00000000000E+00 -0.13029872979E+03  0.13029872979E+03  0.00000000000E+00 0. -1.
         25    1    1    2    0    0 -0.19404274054E+02  0.89892748593E+02  0.13622310658E+03  0.20649205038E+03  0.12500000000E+03 0.  0.
         25    1    1    2    0    0  0.41990080641E+02  0.49256246868E+02  0.27445494515E+03  0.30844750225E+03  0.12500000000E+03 0.  0.
         25    1    1    2    0    0 -0.22585806587E+02 -0.13914899546E+03  0.35361761027E+02  0.19169771970E+03  0.12500000000E+03 0.  0.
</event>
<event>
 5    0  0.5705185E-005  0.3499338E+03  0.7546771E-02  0.1062642E+00
         21   -1    0    0  502  501  0.00000000000E+00  0.00000000000E+00  0.67320984847E+03  0.67320984847E+03  0.00000000000E+00 0. -1.
         21   -1    0    0  501  502 -0.00000000000E+00 -0.00000000000E+00 -0.18189518482E+03  0.18189518482E+03  0.00000000000E+00 0. -1.
         25    1    1    2    0    0 -0.76704309387E+02  0.77001384497E+02 -0.63131795197E+02  0.17726643184E+03  0.12500000000E+03 0.  0.
         25    1    1    2    0    0  0.25884094230E+02 -0.91245852086E+02  0.64841438021E+02  0.16977986907E+03  0.12500000000E+03 0.  0.
         25    1    1    2    0    0  0.50820215157E+02  0.14244467589E+02  0.48960502083E+03  0.50805873238E+03  0.12500000000E+03 0.  0.
</event>
<event>
 5    0  0.5705185E-005  0.5830246E+03  0.7546771E-02  0.9941264E-01
         21   -1    0    0  502  501  0.00000000000E+00  0.00000000000E+00  0.65882691327E+03  0.65882691327E+03  0.00000000000E+00 0. -1.
         21   -1    0    0  501  502 -0.00000000000E+00 -0.00000000000E+00 -0.51594387777E+03  0.51594387777E+03  0.00000000000E+00 0. -1.
         25    1    1    2    0    0 -0.76611669107E+02 -0.20206974294E+03  0.37957751133E+03  0.45431884835E+03  0.12500000000E+03 0.  0.
         25    1    1    2    0    0  0.23947603492E+03  0.91300600026E+02 -0.35786685083E+03  0.45757868590E+03  0.12500000000E+03 0.  0.
         25    1    1    2    0    0 -0.16286436581E+03  0.11076914292E+03  0.12117237500E+03  0.26287325679E+03  0.12500000000E+03 0.  0.
</event>
<event>
 5    0  0.6313364E-005  0.3487139E+03  0.7546771E-02  0.1063144E+00
         21   -1    0    0  502  501  0.00000000000E+00  0.00000000000E+00  0.13528911954E+03  0.13528911954E+03  0.00000000000E+00 0.  1.
         21   -1    0    0  501  502 -0.00000000000E+00 -0.00000000000E+00 -0.89882627263E+03  0.89882627263E+03  0.00000000000E+00 0.  1.
         25    1    1    2    0    0 -0.16135564161E+02  0.79498698768E+01  0.51538233780E+02  0.13639921702E+03  0.12500000000E+03 0.  0.
         25    1    1    2    0    0 -0.38615684023E+02  0.12831407972E+03 -0.38545261569E+03  0.42679549324E+03  0.12500000000E+03 0.  0.
         25    1    1    2    0    0  0.54751248183E+02 -0.13626394960E+03 -0.42962277119E+03  0.47092068192E+03  0.12500000000E+03 0.  0.
</event>
<event>
 5    0  0.5705185E-005  0.2642778E+03  0.7546771E-02  0.1104600E+00
         21   -1    0    0  502  501  0.00000000000E+00  0.00000000000E+00  0.15432689416E+04  0.15432689416E+04  0.00000000000E+00 0. -1.
         21   -1    0    0  501  502 -0.00000000000E+00 -0.00000000000E+00 -0.45256371158E+02  0.45256371158E+02  0.00000000000E+00 0. -1.
         25    1    1    2    0    0  0.74762470792E+02  0.81971001566E+02  0.10142739782E+04  0.10279520295E+04  0.12500000000E+03 0.  0.
         25    1    1    2    0    0 -0.39111649121E+02 -0.42099929349E+02  0.31602078463E+03  0.34466833545E+03  0.12500000000E+03 0.  0.
         25    1    1    2    0    0 -0.35650821671E+02 -0.39871072217E+02  0.16771780759E+03  0.21590494776E+03  0.12500000000E+03 0.  0.
</event>
<event>
 5    0  0.5705185E-005  0.2549805E+03  0.7546771E-02  0.1110197E+00
         21   -1    0    0  502  501  0.00000000000E+00  0.00000000000E+00  0.43227790997E+03  0.43227790997E+03  0.00000000000E+00 0. -1.
         21   -1    0    0  501  502 -0.00000000000E+00 -0.00000000000E+00 -0.15040108882E+03  0.15040108882E+03  0.00000000000E+00 0. -1.
         25    1    1    2    0    0 -0.50565798964E+02 -0.14727214166E+00  0.83800011773E+02  0.15875882239E+03  0.12500000000E+03 0.  0.
         25    1    1    2    0    0 -0.40204147178E+02 -0.31747295730E+02  0.22641801286E+03  0.26365579983E+03  0.12500000000E+03 0.  0.
         25    1    1    2    0    0  0.90769946142E+02  0.31894567872E+02 -0.28341203476E+02  0.16026437657E+03  0.12500000000E+03 0.  0.
</event>
<event>
 5    0  0.5705185E-005  0.2290501E+03  0.7546771E-02  0.1127310E+00
         21   -1    0    0  502  501  0.00000000000E+00  0.00000000000E+00  0.12582368050E+03  0.12582368050E+03  0.00000000000E+00 0.  1.
         21   -1    0    0  501  502 -0.00000000000E+00 -0.00000000000E+00 -0.41696403022E+03  0.41696403022E+03  0.00000000000E+00 0.  1.
         25    1    1    2    0    0 -0.33251552016E+02  0.17308216853E+02 -0.27843616219E+01  0.13052966234E+03  0.12500000000E+03 0.  0.
         25    1    1    2    0    0  0.44641601321E+02 -0.77601360691E+02 -0.12960599906E+03  0.20109092158E+03  0.12500000000E+03 0.  0.
         25    1    1    2    0    0 -0.11390049304E+02  0.60293143838E+02 -0.15874998904E+03  0.21116712679E+03  0.12500000000E+03 0.  0.
</event>
<event>
 5    0  0.6058011E-005  0.2443570E+03  0.7546771E-02  0.1116924E+00
         21   -1    0    0  502  501  0.00000000000E+00  0.00000000000E+00  0.59458037656E+03  0.59458037656E+03  0.00000000000E+00 0. -1.
         21   -1    0    0  501  502 -0.00000000000E+00 -0.00000000000E+00 -0.10042432818E+03  0.10042432818E+03  0.00000000000E+00 0. -1.
         25    1    1    2    0    0 -0.57968140705E+02 -0.11691418586E+03  0.11900216646E+03  0.21636947062E+03  0.12500000000E+03 0.  0.
         25    1    1    2    0    0  0.54103984595E+02  0.85938408553E+02  0.15482750932E+03  0.22340369034E+03  0.12500000000E+03 0.  0.
         25    1    1    2    0    0  0.38641561095E+01  0.30975777310E+02  0.22032637260E+03  0.25523154379E+03  0.12500000000E+03 0.  0.
</event>
<event>
 5    0  0.5705185E-005  0.4423514E+03  0.7546771E-02  0.1030028E+00
         21   -1    0    0  502  501  0.00000000000E+00  0.00000000000E+00  0.54947185589E+03  0.54947185589E+03  0.00000000000E+00 0. -1.
         21   -1    0    0  501  502 -0.00000000000E+00 -0.00000000000E+00 -0.35611424345E+03  0.35611424345E+03  0.00000000000E+00 0. -1.
         25    1    1    2    0    0  0.53809216897E+02 -0.37152482650E+03  0.10162950109E+03  0.40850909906E+03  0.12500000000E+03 0.  0.
         25    1    1    2    0    0 -0.16193364113E+02  0.32350454904E+03  0.43713885289E+02  0.34993331088E+03  0.12500000000E+03 0.  0.
         25    1    1    2    0    0 -0.37615852785E+02  0.48020277452E+02  0.48014226062E+02  0.14714368940E+03  0.12500000000E+03 0.  0.
</event>
<event>
 5    0  0.7089069E-005  0.4012107E+03  0.7546771E-02  0.1043361E+00
         21   -1    0    0  502  501  0.00000000000E+00  0.00000000000E+00  0.81921769386E+03  0.81921769386E+03  0.00000000000E+00 0. -1.
         21   -1    0    0  501  502 -0.00000000000E+00 -0.00000000000E+00 -0.19649235360E+03  0.19649235360E+03  0.00000000000E+00 0. -1.
         25    1    1    2    0    0 -0.13129273369E+03 -0.45175216756E+02  0.58130827444E+03  0.61059224697E+03  0.12500000000E+03 0.  0.
         25    1    1    2    0    0  0.72503257739E+01 -0.58082299080E+02 -0.87737297234E+02  0.16355107464E+03  0.12500000000E+03 0.  0.
         25    1    1    2    0    0  0.12404240791E+03  0.10325751584E+03  0.12915436305E+03  0.24156672584E+03  0.12500000000E+03 0.  0.
</event>
<event>
 5    0  0.5705185E-005  0.2083669E+03  0.7546771E-02  0.1142866E+00
         21   -1    0    0  502  501  0.00000000000E+00  0.00000000000E+00  0.50919765106E+02  0.50919765106E+02  0.00000000000E+00 0. -1.
         21   -1    0    0  501  502 -0.00000000000E+00 -0.00000000000E+00 -0.85265059915E+03  0.85265059915E+03  0.00000000000E+00 0. -1.
         25    1    1    2    0    0  0.73436957037E+01  0.35947910058E+02 -0.14264204319E+03  0.19317850447E+03  0.12500000000E+03 0.  0.
         25    1    1    2    0    0 -0.40064280192E+02 -0.22140886753E+02 -0.37698618901E+03  0.39979863947E+03  0.12500000000E+03 0.  0.
         25    1    1    2    0    0  0.32720584488E+02 -0.13807023305E+02 -0.28210260184E+03  0.31059322032E+03  0.12500000000E+03 0.  0.
</event>
<event>
 5    0  0.5705185E-005  0.3688782E+03  0.7546771E-02  0.1055123E+00
         21   -1    0    0  502  501  0.00000000000E+00  0.00000000000E+00  0.23536250439E+03  0.23536250439E+03  0.00000000000E+00 0.  1.
         21   -1    0    0  501  502 -0.00000000000E+00 -0.00000000000E+00 -0.57813415653E+03  0.57813415653E+03  0.00000000000E+00 0.  1.
         25    1    1    2    0    0  0.60837341185E+02 -0.43185557729E+02  0.34985557506E+02  0.14971694531E+03  0.12500000000E+03 0.  0.
         25    1    1    2    0    0 -0.67296178418E+02 -0.13710586143E+03  0.31041427131E+02  0.19978829562E+03  0.12500000000E+03 0.  0.
         25    1    1    2    0    0  0.64588372326E+01  0.18029141916E+03 -0.40879863677E+03  0.46399141999E+03  0.12500000000E+03 0.  0.
</event>
<event>
 5    0  0.5705185E-005  0.2959452E+03  0.7546771E-02  0.1087285E+00
         21   -1    0    0  502  501  0.00000000000E+00  0.00000000000E+00  0.11251650449E+03  0.11251650449E+03  0.00000000000E+00 0.  1.
         21   -1    0    0  501  502 -0.00000000000E+00 -0.00000000000E+00 -0.77840632232E+03  0.77840632232E+03  0.00000000000E+00 0.  1.
         25    1    1    2    0    0  0.80772910510E+02 -0.18004102746E+02 -0.25202357776E+03  0.29323931274E+03  0.12500000000E+03 0.  0.
         25    1    1    2    0    0 -0.91729482961E+02 -0.14035891867E+03 -0.30016187024E+03  0.36583749458E+03  0.12500000000E+03 0.  0.
         25    1    1    2    0    0  0.10956572451E+02  0.15836302142E+03 -0.11370436983E+03  0.23184601949E+03  0.12500000000E+03 0.  0.
</event>
<event>
 5    0  0.5705185E-005  0.3042016E+03  0.7546771E-02  0.1083159E+00
         21   -1    0    0  502  501  0.00000000000E+00  0.00000000000E+00  0.38679506554E+03  0.38679506554E+03  0.00000000000E+00 0. -1.
         21   -1    0    0  501  502 -0.00000000000E+00 -0.00000000000E+00 -0.23924460367E+03  0.23924460367E+03  0.00000000000E+00 0. -1.
         25    1    1    2    0    0 -0.24124417627E+02  0.75040170923E+02  0.57934059836E+02  0.15872734505E+03  0.12500000000E+03 0.  0.
         25    1    1    2    0    0 -0.11956770386E+02 -0.18263887262E+03 -0.72550206714E+02  0.23321332432E+03  0.12500000000E+03 0.  0.
         25    1    1    2    0    0  0.36081188013E+02  0.10759870169E+03  0.16216660874E+03  0.23409899984E+03  0.12500000000E+03 0.  0.
</event>
<event>
 5    0  0.6055529E-005  0.2591200E+03  0.7546771E-02  0.1107673E+00
         21   -1    0    0  502  501  0.00000000000E+00  0.00000000000E+00  0.11294992882E+03  0.11294992882E+03  0.00000000000E+00 0.  1.
         21   -1    0    0  501  502 -0.00000000000E+00 -0.00000000000E+00 -0.59445083126E+03  0.59445083126E+03  0.00000000000E+00 0.  1.
         25    1    1    2    0    0 -0.15133357368E+03 -0.24120375391E+02 -0.21505467284E+03  0.29215946903E+03  0.12500000000E+03 0.  0.
         25    1    1    2    0    0  0.74519235398E+02  0.42117079005E+02 -0.63733102633E+02  0.16435897651E+03  0.12500000000E+03 0.  0.
         25    1    1    2    0    0  0.76814338284E+02 -0.17996703614E+02 -0.20271312697E+03  0.25088231455E+03  0.12500000000E+03 0.  0.
</event>
<event>
 5    0  0.5705185E-005  0.2800576E+03  0.7546771E-02  0.1095658E+00
         21   -1    0    0  502  501  0.00000000000E+00  0.00000000000E+00  0.35971889050E+03  0.35971889050E+03  0.00000000000E+00 0.  1.
         21   -1    0    0  501  502 -0.00000000000E+00 -0.00000000000E+00 -0.21803756735E+03  0.21803756735E+03  0.00000000000E+00 0.  1.
         25    1    1    2    0    0  0.13610452269E+03  0.84222653350E+02 -0.17192346907E+02  0.20380989482E+03  0.12500000000E+03 0.  0.
         25    1    1    2    0    0 -0.20059007595E+02  0.33345656427E+02  0.70911289681E+02  0.14888823860E+03  0.12500000000E+03 0.  0.
         25    1    1    2    0    0 -0.11604551510E+03 -0.11756830978E+03  0.87962380374E+02  0.22505832444E+03  0.12500000000E+03 0.  0.
</event>
<event>
 5    0  0.5705185E-005  0.2343268E+03  0.7546771E-02  0.1123631E+00
         21   -1    0    0  502  501  0.00000000000E+00  0.00000000000E+00  0.70635729056E+02  0.70635729056E+02  0.00000000000E+00 0. -1.
         21   -1    0    0  501  502 -0.00000000000E+00 -0.00000000000E+00 -0.77735524094E+03  0.77735524094E+03  0.00000000000E+00 0. -1.
         25    1    1    2    0    0 -0.91570854020E+02 -0.22294971865E+02 -0.18824510012E+03  0.24483362677E+03  0.12500000000E+03 0.  0.
         25    1    1    2    0    0  0.11088091157E+03 -0.86190600511E+01 -0.21126106608E+03  0.26949045027E+03  0.12500000000E+03 0.  0.
         25    1    1    2    0    0 -0.19310057546E+02  0.30914031917E+02 -0.30721334568E+03  0.33366689296E+03  0.12500000000E+03 0.  0.
</event>
<event>
 5    0  0.5705185E-005  0.3588942E+03  0.7546771E-02  0.1059023E+00
         21   -1    0    0  502  501  0.00000000000E+00  0.00000000000E+00  0.22525285609E+03  0.22525285609E+03  0.00000000000E+00 0. -1.
         21   -1    0    0  501  502 -0.00000000000E+00 -0.00000000000E+00 -0.57182436465E+03  0.57182436465E+03  0.00000000000E+00 0. -1.
         25    1    1    2    0    0 -0.33596780494E+02 -0.75822787216E+02 -0.95128869870E+01  0.15031079050E+03  0.12500000000E+03 0.  0.
         25    1    1    2    0    0 -0.19667187320E+03 -0.12969922963E+02 -0.27961137336E+03  0.36421911636E+03  0.12500000000E+03 0.  0.
         25    1    1    2    0    0  0.23026865369E+03  0.88792710179E+02 -0.57447248202E+02  0.28254731388E+03  0.12500000000E+03 0.  0.
</event>
<event>
 5    0  0.5705185E-005  0.4246595E+03  0.7546771E-02  0.1035560E+00
         21   -1    0    0  502  501  0.00000000000E+00  0.00000000000E+00  0.35785762634E+03  0.35785762634E+03  0.00000000000E+00 0.  1.
         21   -1    0    0  501  502 -0.00000000000E+00 -0.00000000000E+00 -0.50393135679E+03  0.50393135679E+03  0.00000000000E+00 0.  1.
         25    1    1    2    0    0 -0.13753775825E+03  0.97277406692E+02  0.10548892037E+03  0.23480298362E+03  0.12500000000E+03 0.  0.
         25    1    1    2    0    0  0.29554569324E+03 -0.65745578292E+02 -0.26683722839E+03  0.42248886886E+03  0.12500000000E+03 0.  0.
         25    1    1    2    0    0 -0.15800793499E+03 -0.31531828401E+02  0.15274577574E+02  0.20449713065E+03  0.12500000000E+03 0.  0.
</event>
<event>
 5    0  0.5705185E-005  0.2171867E+03  0.7546771E-02  0.1135998E+00
         21   -1    0    0  502  501  0.00000000000E+00  0.00000000000E+00  0.31825582674E+03  0.31825582674E+03  0.00000000000E+00 0. -1.
         21   -1    0    0  501  502 -0.00000000000E+00 -0.00000000000E+00 -0.14821435402E+03  0.14821435402E+03  0.00000000000E+00 0. -1.
         25    1    1    2    0    0  0.29426019353E+02 -0.88830152009E+02  0.73465282031E+02  0.17256544899E+03  0.12500000000E+03 0.  0.
         25    1    1    2    0    0 -0.34949322919E+02  0.78542484520E+02  0.45682139245E+02  0.15843684828E+03  0.12500000000E+03 0.  0.
         25    1    1    2    0    0  0.55233035664E+01  0.10287667489E+02  0.50894051440E+02  0.13546788349E+03  0.12500000000E+03 0.  0.
</event>
<event>
 5    0  0.5705185E-005  0.3021810E+03  0.7546771E-02  0.1084155E+00
         21   -1    0    0  502  501  0.00000000000E+00  0.00000000000E+00  0.24343635123E+03  0.24343635123E+03  0.00000000000E+00 0. -1.
         21   -1    0    0  501  502 -0.00000000000E+00 -0.00000000000E+00 -0.37510168425E+03  0.37510168425E+03  0.00000000000E+00 0. -1.
         25    1    1    2    0    0  0.56609021582E+02 -0.16672643139E+02 -0.18227025600E+03  0.22875752354E+03  0.12500000000E+03 0.  0.
         25    1    1    2    0    0 -0.12707365618E+03  0.11227715797E+03  0.21413483791E+01  0.21067382293E+03  0.12500000000E+03 0.  0.
         25    1    1    2    0    0  0.70464634600E+02 -0.95604514828E+02  0.48463574599E+02  0.17910668901E+03  0.12500000000E+03 0.  0.
</event>
<event>
 5    0  0.5705185E-005  0.2876588E+03  0.7546771E-02  0.1091578E+00
         21   -1    0    0  502  501  0.00000000000E+00  0.00000000000E+00  0.30231809662E+03  0.30231809662E+03  0.00000000000E+00 0. -1.
         21   -1    0    0  501  502 -0.00000000000E+00 -0.00000000000E+00 -0.27371041566E+03  0.27371041566E+03  0.00000000000E+00 0. -1.
         25    1    1    2    0    0 -0.49559254577E+02  0.31630695868E+02  0.18255078625E+03  0.22892446395E+03  0.12500000000E+03 0.  0.
         25    1    1    2    0    0 -0.40610466840E+02 -0.32096124948E+02 -0.91041302175E+01  0.13559961814E+03  0.12500000000E+03 0.  0.
         25    1    1    2    0    0  0.90169721417E+02  0.46542908008E+00 -0.14483897508E+03  0.21150443018E+03  0.12500000000E+03 0.  0.
</event>
<event>
 5    0  0.5705185E-005  0.2431283E+03  0.7546771E-02  0.1117726E+00
         21   -1    0    0  502  501  0.00000000000E+00  0.00000000000E+00  0.33125746920E+02  0.33125746920E+02  0.00000000000E+00 0.  1.
         21   -1    0    0  501  502 -0.00000000000E+00 -0.00000000000E+00 -0.17844545084E+04  0.17844545084E+04  0.00000000000E+00 0.  1.
         25    1    1    2    0    0 -0.38377187815E+02  0.29067427115E+02 -0.25909972137E+03  0.29167685797E+03  0.12500000000E+03 0.  0.
         25    1    1    2    0    0  0.63916219520E+02 -0.45940710293E+02 -0.11641782760E+04  0.11735126289E+04  0.12500000000E+03 0.  0.
         25    1    1    2    0    0 -0.25539031705E+02  0.16873283178E+02 -0.32805076420E+03  0.35239076849E+03  0.12500000000E+03 0.  0.
</event>
<event>
 5    0  0.5705185E-005  0.5375832E+03  0.7546771E-02  0.1004409E+00
         21   -1    0    0  502  501  0.00000000000E+00  0.00000000000E+00  0.41464640475E+03  0.41464640475E+03  0.00000000000E+00 0. -1.
         21   -1    0    0  501  502 -0.00000000000E+00 -0.00000000000E+00 -0.69696890819E+03  0.69696890819E+03  0.00000000000E+00 0. -1.
         25    1    1    2    0    0  0.15303019423E+02  0.41018601579E+02  0.68322292590E+02  0.14902900303E+03  0.12500000000E+03 0.  0.
         25    1    1    2    0    0  0.27358652752E+02 -0.37353633709E+03 -0.44264432956E+03  0.59315840507E+03  0.12500000000E+03 0.  0.
         25    1    1    2    0    0 -0.42661672175E+02  0.33251773551E+03  0.91999533528E+02  0.36942790484E+03  0.12500000000E+03 0.  0.
</event>
<event>
 5    0  0.6466422E-005  0.2776010E+03  0.7546771E-02  0.1097006E+00
         21   -1    0    0  502  501  0.00000000000E+00  0.00000000000E+00  0.35733522824E+03  0.35733522824E+03  0.00000000000E+00 0.  1.
         21   -1    0    0  501  502 -0.00000000000E+00 -0.00000000000E+00 -0.21565833311E+03  0.21565833311E+03  0.00000000000E+00 0.  1.
         25    1    1    2    0    0 -0.62256248815E+02 -0.11835979004E+03 -0.41968960073E+02  0.18780648025E+03  0.12500000000E+03 0.  0.
         25    1    1    2    0    0  0.61090048089E+02  0.87375200546E+02  0.42451806156E+01  0.16434549341E+03  0.12500000000E+03 0.  0.
         25    1    1    2    0    0  0.11662007261E+01  0.30984589496E+02  0.17940067459E+03  0.22084158769E+03  0.12500000000E+03 0.  0.
</event>
<event>
 5    0  0.5705185E-005  0.5658405E+03  0.7546771E-02  0.9978925E-01
         21   -1    0    0  502  501  0.00000000000E+00  0.00000000000E+00  0.61067991259E+03  0.61067991259E+03  0.00000000000E+00 0.  1.
         21   -1    0    0  501  502 -0.00000000000E+00 -0.00000000000E+00 -0.52429342607E+03  0.52429342607E+03  0.00000000000E+00 0.  1.
         25    1    1    2    0    0 -0.21249732295E+02  0.32399473432E+03 -0.34481313385E+03  0.48984205236E+03  0.12500000000E+03 0.  0.
         25    1    1    2    0    0  0.75235146199E+02 -0.12151287842E+03  0.33051356105E+03  0.38116914996E+03  0.12500000000E+03 0.  0.
         25    1    1    2    0    0 -0.53985413904E+02 -0.20248185590E+03  0.10068605931E+03  0.26396213634E+03  0.12500000000E+03 0.  0.
</event>
<event>
 5    0  0.5705185E-005  0.3727039E+03  0.7546771E-02  0.1053664E+00
         21   -1    0    0  502  501  0.00000000000E+00  0.00000000000E+00  0.14155372367E+03  0.14155372367E+03  0.00000000000E+00 0. -1.
         21   -1    0    0  501  502 -0.00000000000E+00 -0.00000000000E+00 -0.98131087498E+03  0.98131087498E+03  0.00000000000E+00 0. -1.
         25    1    1    2    0    0  0.36134292232E+02  0.89874892435E+02 -0.10071718597E+03  0.18748902612E+03  0.12500000000E+03 0.  0.
         25    1    1    2    0    0 -0.12403244248E+03 -0.22362445203E+03 -0.65763700719E+03  0.71659149838E+03  0.12500000000E+03 0.  0.
         25    1    1    2    0    0  0.87898150243E+02  0.13374955959E+03 -0.81402958143E+02  0.21878407415E+03  0.12500000000E+03 0.  0.
</event>
<event>
 5    0  0.5705185E-005  0.2328235E+03  0.7546771E-02  0.1124668E+00
         21   -1    0    0  502  501  0.00000000000E+00  0.00000000000E+00  0.45797378322E+03  0.45797378322E+03  0.00000000000E+00 0. -1.
         21   -1    0    0  501  502 -0.00000000000E+00 -0.00000000000E+00 -0.11836217642E+03  0.11836217642E+03  0.00000000000E+00 0. -1.
         25    1    1    2    0    0 -0.16849140562E+02  0.46203606079E+02  0.94137676650E+02  0.16402917093E+03  0.12500000000E+03 0.  0.
         25    1    1    2    0    0  0.62630958786E+02 -0.37056681038E+01  0.12215971030E+02  0.14039444050E+03  0.12500000000E+03 0.  0.
         25    1    1    2    0    0 -0.45781818224E+02 -0.42497937975E+02  0.23325795912E+03  0.27191234820E+03  0.12500000000E+03 0.  0.
</event>
<event>
 5    0  0.5705185E-005  0.4249985E+03  0.7546771E-02  0.1035452E+00
         21   -1    0    0  502  501  0.00000000000E+00  0.00000000000E+00  0.23314966555E+03  0.23314966555E+03  0.00000000000E+00 0.  1.
         21   -1    0    0  501  502 -0.00000000000E+00 -0.00000000000E+00 -0.77471132816E+03  0.77471132816E+03  0.00000000000E+00 0.  1.
         25    1    1    2    0    0  0.60940153432E+02 -0.12017600856E+03  0.40988520314E+01  0.18384171431E+03  0.12500000000E+03 0.  0.
         25    1    1    2    0    0 -0.32906253454E+02 -0.79684930912E+02  0.67749435681E+02  0.16627536127E+03  0.12500000000E+03 0.  0.
         25    1    1    2    0    0 -0.28033899978E+02  0.19986093947E+03 -0.61340995032E+03  0.65774391812E+03  0.12500000000E+03 0.  0.
</event>
<event>
 5    0  0.5728588E-005  0.3237272E+03  0.7546771E-02  0.1073947E+00
         21   -1    0    0  502  501  0.00000000000E+00  0.00000000000E+00  0.64797719477E+03  0.64797719477E+03  0.00000000000E+00 0.  1.
         21   -1    0    0  501  502 -0.00000000000E+00 -0.00000000000E+00 -0.16173300127E+03  0.16173300127E+03  0.00000000000E+00 0.  1.
         25    1    1    2    0    0 -0.93779560480E+02 -0.20139685243E+03  0.65882255432E+02  0.26328837747E+03  0.12500000000E+03 0.  0.
         25    1    1    2    0    0  0.95820618032E+02  0.11322496514E+03  0.26474286159E+03  0.32820004012E+03  0.12500000000E+03 0.  0.
         25    1    1    2    0    0 -0.20410575521E+01  0.88171887285E+02  0.15561907648E+03  0.21822177844E+03  0.12500000000E+03 0.  0.
</event>
<event>
 5    0  0.5705185E-005  0.2542565E+03  0.7546771E-02  0.1110644E+00
         21   -1    0    0  502  501  0.00000000000E+00  0.00000000000E+00  0.12500584334E+04  0.12500584334E+04  0.00000000000E+00 0.  1.
         21   -1    0    0  501  502 -0.00000000000E+00 -0.00000000000E+00 -0.51714687273E+02  0.51714687273E+02  0.00000000000E+00 0.  1.
         25    1    1    2    0    0 -0.99871492991E+02 -0.15327230870E+01  0.27736881531E+03  0.32021106174E+03  0.12500000000E+03 0.  0.
         25    1    1    2    0    0  0.48930299638E+02  0.89610595610E+02  0.61386017937E+03  0.63472320967E+03  0.12500000000E+03 0.  0.
         25    1    1    2    0    0  0.50941193353E+02 -0.88077872523E+02  0.30711475144E+03  0.34683884926E+03  0.12500000000E+03 0.  0.
</event>
<event>
 5    0  0.5705185E-005  0.2568251E+03  0.7546771E-02  0.1109066E+00
         21   -1    0    0  502  501  0.00000000000E+00  0.00000000000E+00  0.56674438318E+03  0.56674438318E+03  0.00000000000E+00 0.  1.
         21   -1    0    0  501  502 -0.00000000000E+00 -0.00000000000E+00 -0.11638251415E+03  0.11638251415E+03  0.00000000000E+00 0.  1.
         25    1    1    2    0    0  0.28984965384E+02 -0.24659252260E+02  0.24491468086E+03  0.27759035978E+03  0.12500000000E+03 0.  0.
         25    1    1    2    0    0  0.10523848266E+03  0.33621708905E+01  0.77414529902E+02  0.18084372222E+03  0.12500000000E+03 0.  0.
         25    1    1    2    0    0 -0.13422344804E+03  0.21297081369E+02  0.12803265827E+03  0.22469281534E+03  0.12500000000E+03 0.  0.
</event>
<event>
 5    0  0.5705185E-005  0.2557836E+03  0.7546771E-02  0.1109703E+00
         21   -1    0    0  502  501  0.00000000000E+00  0.00000000000E+00  0.54593886628E+02  0.54593886628E+02  0.00000000000E+00 0.  1.
         21   -1    0    0  501  502 -0.00000000000E+00 -0.00000000000E+00 -0.11983992890E+04  0.11983992890E+04  0.00000000000E+00 0.  1.
         25    1    1    2    0    0  0.92218915923E+02  0.32164970399E+02 -0.21788041859E+03  0.26951027917E+03  0.12500000000E+03 0.  0.
         25    1    1    2    0    0  0.25449417869E+02 -0.51042624502E+02 -0.24397048879E+03  0.27999932462E+03  0.12500000000E+03 0.  0.
         25    1    1    2    0    0 -0.11766833379E+03  0.18877654103E+02 -0.68195449495E+03  0.70348357179E+03  0.12500000000E+03 0.  0.
</event>
<event>
 5    0  0.5705185E-005  0.2938662E+03  0.7546771E-02  0.1088348E+00
         21   -1    0    0  502  501  0.00000000000E+00  0.00000000000E+00  0.51577388946E+03  0.51577388946E+03  0.00000000000E+00 0.  1.
         21   -1    0    0  501  502 -0.00000000000E+00 -0.00000000000E+00 -0.16743257646E+03  0.16743257646E+03  0.00000000000E+00 0.  1.
         25    1    1    2    0    0  0.82682361118E+02 -0.82074028756E+02  0.33043862812E+03  0.37200430910E+03  0.12500000000E+03 0.  0.
         25    1    1    2    0    0 -0.10616804515E+02  0.67801091209E+02 -0.49983709846E+02  0.15110617379E+03  0.12500000000E+03 0.  0.
         25    1    1    2    0    0 -0.72065556602E+02  0.14272937546E+02  0.67886394719E+02  0.16009598303E+03  0.12500000000E+03 0.  0.
</event>
<event>
 5    0  0.5705185E-005  0.2602570E+03  0.7546771E-02  0.1106989E+00
         21   -1    0    0  502  501  0.00000000000E+00  0.00000000000E+00  0.48725694136E+03  0.48725694136E+03  0.00000000000E+00 0. -1.
         21   -1    0    0  501  502 -0.00000000000E+00 -0.00000000000E+00 -0.13901022969E+03  0.13901022969E+03  0.00000000000E+00 0. -1.
         25    1    1    2    0    0  0.30362726879E+02 -0.50031595741E+00 -0.21951389053E+02  0.13049524505E+03  0.12500000000E+03 0.  0.
         25    1    1    2    0    0 -0.12118552776E+03  0.12550332056E+02  0.18684523982E+03  0.25569432261E+03  0.12500000000E+03 0.  0.
         25    1    1    2    0    0  0.90822800878E+02 -0.12050016098E+02  0.18335286091E+03  0.24007760339E+03  0.12500000000E+03 0.  0.
</event>
<event>
 5    0  0.5705185E-005  0.2530481E+03  0.7546771E-02  0.1111394E+00
         21   -1    0    0  502  501  0.00000000000E+00  0.00000000000E+00  0.22961455486E+03  0.22961455486E+03  0.00000000000E+00 0.  1.
         21   -1    0    0  501  502 -0.00000000000E+00 -0.00000000000E+00 -0.27887310017E+03  0.27887310017E+03  0.00000000000E+00 0.  1.
         25    1    1    2    0    0 -0.96256073508E+02 -0.10459149475E+03  0.24118139656E+02  0.19081744449E+03  0.12500000000E+03 0.  0.
         25    1    1    2    0    0  0.78740704944E+02  0.78365567297E+02 -0.86158570089E+02  0.18812113106E+03  0.12500000000E+03 0.  0.
         25    1    1    2    0    0  0.17515368564E+02  0.26225927449E+02  0.12781885126E+02  0.12954907948E+03  0.12500000000E+03 0.  0.
</event>
<event>
 5    0  0.5705185E-005  0.2597688E+03  0.7546771E-02  0.1107282E+00
         21   -1    0    0  502  501  0.00000000000E+00  0.00000000000E+00  0.43071263048E+03  0.43071263048E+03  0.00000000000E+00 0.  1.
         21   -1    0    0  501  502 -0.00000000000E+00 -0.00000000000E+00 -0.15667023833E+03  0.15667023833E+03  0.00000000000E+00 0.  1.
         25    1    1    2    0    0 -0.81207707877E+02  0.17095169048E+02  0.52587695461E+01  0.15013191293E+03  0.12500000000E+03 0.  0.
         25    1    1    2    0    0  0.21930647619E+02  0.10127707184E+03  0.13776800221E+03  0.21293900775E+03  0.12500000000E+03 0.  0.
         25    1    1    2    0    0  0.59277060259E+02 -0.11837224089E+03  0.13101562039E+03  0.22431194813E+03  0.12500000000E+03 0.  0.
</event>
<event>
 5    0  0.5705185E-005  0.2571928E+03  0.7546771E-02  0.1108842E+00
         21   -1    0    0  502  501  0.00000000000E+00  0.00000000000E+00  0.41091739330E+03  0.41091739330E+03  0.00000000000E+00 0. -1.
         21   -1    0    0  501  502 -0.00000000000E+00 -0.00000000000E+00 -0.16097678649E+03  0.16097678649E+03  0.00000000000E+00 0. -1.
         25    1    1    2    0    0  0.34881714199E+02  0.31517969965E+02  0.75635580255E+01  0.13376219132E+03  0.12500000000E+03 0.  0.
         25    1    1    2    0    0  0.99247314389E+02 -0.30628065997E+02  0.44785286465E+02  0.16857885313E+03  0.12500000000E+03 0.  0.
         25    1    1    2    0    0 -0.13412902859E+03 -0.88990396828E+00  0.19759176232E+03  0.26955313534E+03  0.12500000000E+03 0.  0.
</event>
<event>
 5    0  0.5705185E-005  0.4594547E+03  0.7546771E-02  0.1024939E+00
         21   -1    0    0  502  501  0.00000000000E+00  0.00000000000E+00  0.72422736744E+03  0.72422736744E+03  0.00000000000E+00 0.  1.
         21   -1    0    0  501  502 -0.00000000000E+00 -0.00000000000E+00 -0.29148111694E+03  0.29148111694E+03  0.00000000000E+00 0.  1.
         25    1    1    2    0    0  0.25525179726E+02  0.76182548252E+02  0.19941778967E+03  0.24869211949E+03  0.12500000000E+03 0.  0.
         25    1    1    2    0    0 -0.20167151364E+03 -0.15491497966E+03  0.39488391275E+03  0.48603328578E+03  0.12500000000E+03 0.  0.
         25    1    1    2    0    0  0.17614633391E+03  0.78732431413E+02 -0.16155545192E+03  0.28098307912E+03  0.12500000000E+03 0.  0.
</event>
<event>
 5    0  0.5705185E-005  0.3281087E+03  0.7546771E-02  0.1071977E+00
         21   -1    0    0  502  501  0.00000000000E+00  0.00000000000E+00  0.10827413478E+04  0.10827413478E+04  0.00000000000E+00 0. -1.
         21   -1    0    0  501  502 -0.00000000000E+00 -0.00000000000E+00 -0.99428480018E+02  0.99428480018E+02  0.00000000000E+00 0. -1.
         25    1    1    2    0    0 -0.23893518270E+02 -0.19770462854E+03  0.37309371057E+03  0.44100106262E+03  0.12500000000E+03 0.  0.
         25    1    1    2    0    0  0.58180272624E+02  0.24609745006E+03  0.42071316751E+03  0.50653081679E+03  0.12500000000E+03 0.  0.
         25    1    1    2    0    0 -0.34286754354E+02 -0.48392821516E+02  0.18950598970E+03  0.23463794841E+03  0.12500000000E+03 0.  0.
</event>
<event>
 5    0  0.5705185E-005  0.4297015E+03  0.7546771E-02  0.1033954E+00
         21   -1    0    0  502  501  0.00000000000E+00  0.00000000000E+00  0.31411529365E+04  0.31411529365E+04  0.00000000000E+00 0.  1.
         21   -1    0    0  501  502 -0.00000000000E+00 -0.00000000000E+00 -0.58782053725E+02  0.58782053725E+02  0.00000000000E+00 0.  1.
         25    1    1    2    0    0  0.22323206319E+03  0.13675102799E+03  0.10134704892E+04  0.10541730552E+04  0.12500000000E+03 0.  0.
         25    1    1    2    0    0 -0.21390219972E+03 -0.53493643179E+02  0.19106516373E+04  0.19273895300E+04  0.12500000000E+03 0.  0.
         25    1    1    2    0    0 -0.93298634712E+01 -0.83257384809E+02  0.15824875625E+03  0.21837240515E+03  0.12500000000E+03 0.  0.
</event>
<event>
 5    0  0.5705185E-005  0.2575655E+03  0.7546771E-02  0.1108615E+00
         21   -1    0    0  502  501  0.00000000000E+00  0.00000000000E+00  0.40710514883E+02  0.40710514883E+02  0.00000000000E+00 0. -1.
         21   -1    0    0  501  502 -0.00000000000E+00 -0.00000000000E+00 -0.16295536066E+04  0.16295536066E+04  0.00000000000E+00 0. -1.
         25    1    1    2    0    0  0.43068729064E+02  0.39133249999E+02 -0.53129111308E+03  0.54889122194E+03  0.12500000000E+03 0.  0.
         25    1    1    2    0    0  0.93365614080E+02 -0.76757215248E+02 -0.63832948187E+03  0.66158773826E+03  0.12500000000E+03 0.  0.
         25    1    1    2    0    0 -0.13643434314E+03  0.37623965249E+02 -0.41922249676E+03  0.45978516129E+03  0.12500000000E+03 0.  0.
</event>
<event>
 5    0  0.5705185E-005  0.2595331E+03  0.7546771E-02  0.1107424E+00
         21   -1    0    0  502  501  0.00000000000E+00  0.00000000000E+00  0.32693482052E+02  0.32693482052E+02  0.00000000000E+00 0. -1.
         21   -1    0    0  501  502 -0.00000000000E+00 -0.00000000000E+00 -0.20602708396E+04  0.20602708396E+04  0.00000000000E+00 0. -1.
         25    1    1    2    0    0 -0.11828377733E+02  0.59550151779E+02 -0.11658838878E+04  0.11741364362E+04  0.12500000000E+03 0.  0.
         25    1    1    2    0    0  0.41973573700E+02  0.50252100857E+02 -0.28761305959E+03  0.32036436533E+03  0.12500000000E+03 0.  0.
         25    1    1    2    0    0 -0.30145195967E+02 -0.10980225264E+03 -0.57408041016E+03  0.59846352007E+03  0.12500000000E+03 0.  0.
</event>
<event>
 5    0  0.5705185E-005  0.6264579E+03  0.7546771E-02  0.9851985E-01
         21   -1    0    0  502  501  0.00000000000E+00  0.00000000000E+00  0.27520103344E+03  0.27520103344E+03  0.00000000000E+00 0.  1.
         21   -1    0    0  501  502 -0.00000000000E+00 -0.00000000000E+00 -0.14260464411E+04  0.14260464411E+04  0.00000000000E+00 0. -1.
         25    1    1    2    0    0  0.11490751112E+03  0.94453868275E+02 -0.56717277684E+02  0.20240335702E+03  0.12500000000E+03 0.  0.
         25    1    1    2    0    0  0.98243004127E+02 -0.23033147738E+03 -0.11730813650E+04  0.12060054586E+04  0.12500000000E+03 0.  0.
         25    1    1    2    0    0 -0.21315051525E+03  0.13587760911E+03  0.78953235049E+02  0.29283865887E+03  0.12500000000E+03 0.  0.
</event>
<event>
 5    0  0.5705185E-005  0.2527647E+03  0.7546771E-02  0.1111570E+00
         21   -1    0    0  502  501  0.00000000000E+00  0.00000000000E+00  0.96060302546E+03  0.96060302546E+03  0.00000000000E+00 0. -1.
         21   -1    0    0  501  502 -0.00000000000E+00 -0.00000000000E+00 -0.66510304463E+02  0.66510304463E+02  0.00000000000E+00 0. -1.
         25    1    1    2    0    0  0.20299881787E+02 -0.78857182439E+02  0.15058573876E+03  0.21197076483E+03  0.12500000000E+03 0.  0.
         25    1    1    2    0    0  0.10178946581E+02  0.39305685449E+02  0.61554894251E+03  0.62942358431E+03  0.12500000000E+03 0.  0.
         25    1    1    2    0    0 -0.30478828368E+02  0.39551496990E+02  0.12795803972E+03  0.18571898078E+03  0.12500000000E+03 0.  0.
</event>
<event>
 5    0  0.5705185E-005  0.3431772E+03  0.7546771E-02  0.1065451E+00
         21   -1    0    0  502  501  0.00000000000E+00  0.00000000000E+00  0.11725972279E+04  0.11725972279E+04  0.00000000000E+00 0.  1.
         21   -1    0    0  501  502 -0.00000000000E+00 -0.00000000000E+00 -0.10043569070E+03  0.10043569070E+03  0.00000000000E+00 0.  1.
         25    1    1    2    0    0 -0.10108860489E+03 -0.13589016247E+03  0.42354866397E+03  0.47297305742E+03  0.12500000000E+03 0.  0.
         25    1    1    2    0    0  0.37237145147E+02  0.25341698731E+03  0.38048420649E+03  0.47539457909E+03  0.12500000000E+03 0.  0.
         25    1    1    2    0    0  0.63851459747E+02 -0.11752682484E+03  0.26812866677E+03  0.32466528212E+03  0.12500000000E+03 0.  0.
</event>
<event>
 5    0  0.5705185E-005  0.4869605E+03  0.7546771E-02  0.1017240E+00
         21   -1    0    0  502  501  0.00000000000E+00  0.00000000000E+00  0.76240327000E+03  0.76240327000E+03  0.00000000000E+00 0. -1.
         21   -1    0    0  501  502 -0.00000000000E+00 -0.00000000000E+00 -0.31103035599E+03  0.31103035599E+03  0.00000000000E+00 0. -1.
         25    1    1    2    0    0 -0.11230374575E+03 -0.73937849936E+02  0.24589415502E+03  0.30686784197E+03  0.12500000000E+03 0.  0.
         25    1    1    2    0    0  0.55555514351E+02 -0.41049772496E+02 -0.24400277965E+03  0.28272576019E+03  0.12500000000E+03 0.  0.
         25    1    1    2    0    0  0.56748231403E+02  0.11498762243E+03  0.44948153864E+03  0.48384002383E+03  0.12500000000E+03 0.  0.
</event>
<event>
 5    0  0.5705185E-005  0.3055210E+03  0.7546771E-02  0.1082513E+00
         21   -1    0    0  502  501  0.00000000000E+00  0.00000000000E+00  0.47287876091E+03  0.47287876091E+03  0.00000000000E+00 0. -1.
         21   -1    0    0  501  502 -0.00000000000E+00 -0.00000000000E+00 -0.19739325921E+03  0.19739325921E+03  0.00000000000E+00 0. -1.
         25    1    1    2    0    0 -0.15198532172E+03 -0.14002758002E+03  0.12634700792E+03  0.27257260977E+03  0.12500000000E+03 0.  0.
         25    1    1    2    0    0  0.13207142170E+03  0.59355238453E+02  0.15689522502E+03  0.24740051818E+03  0.12500000000E+03 0.  0.
         25    1    1    2    0    0  0.19913900025E+02  0.80672341569E+02 -0.77567312504E+01  0.15029889217E+03  0.12500000000E+03 0.  0.
</event>
<event>
 5    0  0.5705185E-005  0.2856856E+03  0.7546771E-02  0.1092623E+00
         21   -1    0    0  502  501  0.00000000000E+00  0.00000000000E+00  0.55704331199E+03  0.55704331199E+03  0.00000000000E+00 0. -1.
         21   -1    0    0  501  502 -0.00000000000E+00 -0.00000000000E+00 -0.14651694489E+03  0.14651694489E+03  0.00000000000E+00 0. -1.
         25    1    1    2    0    0  0.20982362784E+02  0.98522534943E+02  0.24823888475E+03  0.29562559656E+03  0.12500000000E+03 0.  0.
         25    1    1    2    0    0 -0.13557032328E+03 -0.51342242617E+02  0.45660519035E+02  0.19678724915E+03  0.12500000000E+03 0.  0.
         25    1    1    2    0    0  0.11458796049E+03 -0.47180292326E+02  0.11662696331E+03  0.21114741117E+03  0.12500000000E+03 0.  0.
</event>
<event>
 5    0  0.5705185E-005  0.4457703E+03  0.7546771E-02  0.1028991E+00
         21   -1    0    0  502  501  0.00000000000E+00  0.00000000000E+00  0.56499339780E+02  0.56499339780E+02  0.00000000000E+00 0. -1.
         21   -1    0    0  501  502 -0.00000000000E+00 -0.00000000000E+00 -0.35170525250E+04  0.35170525250E+04  0.00000000000E+00 0. -1.
         25    1    1    2    0    0  0.27470617566E+02 -0.89655430297E+02 -0.16801557030E+04  0.16874065655E+04  0.12500000000E+03 0.  0.
         25    1    1    2    0    0 -0.66688147718E+02  0.30751054298E+03 -0.71901010815E+03  0.79473931494E+03  0.12500000000E+03 0.  0.
         25    1    1    2    0    0  0.39217530151E+02 -0.21785511268E+03 -0.10613873741E+04  0.10914059844E+04  0.12500000000E+03 0.  0.
</event>
<event>
 5    0  0.5705185E-005  0.3803177E+03  0.7546771E-02  0.1050816E+00
         21   -1    0    0  502  501  0.00000000000E+00  0.00000000000E+00  0.30450860485E+03  0.30450860485E+03  0.00000000000E+00 0. -1.
         21   -1    0    0  501  502 -0.00000000000E+00 -0.00000000000E+00 -0.47499984476E+03  0.47499984476E+03  0.00000000000E+00 0. -1.
         25    1    1    2    0    0  0.38345418627E+02 -0.88375821645E+02 -0.36700824080E+03  0.39950057046E+03  0.12500000000E+03 0.  0.
         25    1    1    2    0    0 -0.95893622942E+02  0.56044633521E+02  0.45805051107E+02  0.17337730698E+03  0.12500000000E+03 0.  0.
         25    1    1    2    0    0  0.57548204315E+02  0.32331188124E+02  0.15071194979E+03  0.20663057217E+03  0.12500000000E+03 0.  0.
</event>
<event>
 5    0  0.5705185E-005  0.4179774E+03  0.7546771E-02  0.1037727E+00
         21   -1    0    0  502  501  0.00000000000E+00  0.00000000000E+00  0.26715203889E+03  0.26715203889E+03  0.00000000000E+00 0. -1.
         21   -1    0    0  501  502 -0.00000000000E+00 -0.00000000000E+00 -0.65395370381E+03  0.65395370381E+03  0.00000000000E+00 0. -1.
         25    1    1    2    0    0  0.46120629501E+02  0.22408213281E+03  0.46879455687E+02  0.26488223435E+03  0.12500000000E+03 0.  0.
         25    1    1    2    0    0 -0.13968943928E+03 -0.23264680812E+03 -0.39476489667E+03  0.49507777209E+03  0.12500000000E+03 0.  0.
         25    1    1    2    0    0  0.93568809781E+02  0.85646753059E+01 -0.38916223944E+02  0.16114573625E+03  0.12500000000E+03 0.  0.
</event>
<event>
 5    0  0.5705185E-005  0.2724232E+03  0.7546771E-02  0.1099901E+00
         21   -1    0    0  502  501  0.00000000000E+00  0.00000000000E+00  0.11313997666E+03  0.11313997666E+03  0.00000000000E+00 0.  1.
         21   -1    0    0  501  502 -0.00000000000E+00 -0.00000000000E+00 -0.65595206536E+03  0.65595206536E+03  0.00000000000E+00 0.  1.
         25    1    1    2    0    0 -0.60621130414E+01  0.76656892790E+02 -0.34450506306E+03  0.37446196990E+03  0.12500000000E+03 0.  0.
         25    1    1    2    0    0  0.10670974992E+03 -0.74206239693E+02 -0.11387863037E+03  0.21327653221E+03  0.12500000000E+03 0.  0.
         25    1    1    2    0    0 -0.10064763688E+03 -0.24506530969E+01 -0.84428395274E+02  0.18135353991E+03  0.12500000000E+03 0.  0.
</event>
<event>
 5    0  0.5705185E-005  0.4039417E+03  0.7546771E-02  0.1042423E+00
         21   -1    0    0  502  501  0.00000000000E+00  0.00000000000E+00  0.26849476334E+03  0.26849476334E+03  0.00000000000E+00 0.  1.
         21   -1    0    0  501  502 -0.00000000000E+00 -0.00000000000E+00 -0.60771734680E+03  0.60771734680E+03  0.00000000000E+00 0.  1.
         25    1    1    2    0    0  0.68457347386E+01 -0.28062144994E+03 -0.13981182441E+03  0.33759088924E+03  0.12500000000E+03 0.  0.
         25    1    1    2    0    0 -0.80210899836E+02  0.16132105137E+03 -0.26115342025E+03  0.34100495447E+03  0.12500000000E+03 0.  0.
         25    1    1    2    0    0  0.73365165097E+02  0.11930039857E+03  0.61742661195E+02  0.19761626644E+03  0.12500000000E+03 0.  0.
</event>
<event>
 5    0  0.5705185E-005  0.4936019E+03  0.7546771E-02  0.1015463E+00
         21   -1    0    0  502  501  0.00000000000E+00  0.00000000000E+00  0.71309166098E+03  0.71309166098E+03  0.00000000000E+00 0.  1.
         21   -1    0    0  501  502 -0.00000000000E+00 -0.00000000000E+00 -0.34167113967E+03  0.34167113967E+03  0.00000000000E+00 0.  1.
         25    1    1    2    0    0 -0.10934535725E+03 -0.20620738253E+03  0.13391175512E+03  0.29670734726E+03  0.12500000000E+03 0.  0.
         25    1    1    2    0    0  0.19158308246E+02  0.42995159662E+03  0.15093703179E+03  0.47289787880E+03  0.12500000000E+03 0.  0.
         25    1    1    2    0    0  0.90187049003E+02 -0.22374421409E+03  0.86571734408E+02  0.28515757459E+03  0.12500000000E+03 0.  0.
</event>
<event>
 5    0  0.5705185E-005  0.3047645E+03  0.7546771E-02  0.1082883E+00
         21   -1    0    0  502  501  0.00000000000E+00  0.00000000000E+00  0.40423845722E+03  0.40423845722E+03  0.00000000000E+00 0.  1.
         21   -1    0    0  501  502 -0.00000000000E+00 -0.00000000000E+00 -0.22976887979E+03  0.22976887979E+03  0.00000000000E+00 0.  1.
         25    1    1    2    0    0  0.85662888493E+02 -0.11660350394E+03  0.40295784179E+02  0.19540536794E+03  0.12500000000E+03 0.  0.
         25    1    1    2    0    0  0.44066400274E+01  0.13597804477E+02  0.20472609039E+03  0.24029584027E+03  0.12500000000E+03 0.  0.
         25    1    1    2    0    0 -0.90069528521E+02  0.10300569947E+03 -0.70552297132E+02  0.19830612880E+03  0.12500000000E+03 0.  0.
</event>
<event>
 5    0  0.5705185E-005  0.6468351E+03  0.7546771E-02  0.9812736E-01
         21   -1    0    0  502  501  0.00000000000E+00  0.00000000000E+00  0.29871540917E+03  0.29871540917E+03  0.00000000000E+00 0.  1.
         21   -1    0    0  501  502 -0.00000000000E+00 -0.00000000000E+00 -0.14006496316E+04  0.14006496316E+04  0.00000000000E+00 0.  1.
         25    1    1    2    0    0 -0.13368476871E+03  0.19003537090E+03 -0.21568811698E+03  0.34078060888E+03  0.12500000000E+03 0.  0.
         25    1    1    2    0    0  0.21152183014E+03  0.36365827721E+03 -0.51147006538E+03  0.67395508380E+03  0.12500000000E+03 0.  0.
         25    1    1    2    0    0 -0.77837061428E+02 -0.55369364811E+03 -0.37477604012E+03  0.68462934814E+03  0.12500000000E+03 0.  0.
</event>
<event>
 5    0  0.5876512E-005  0.6234368E+03  0.7546771E-02  0.9857941E-01
         21   -1    0    0  502  501  0.00000000000E+00  0.00000000000E+00  0.18940091443E+04  0.18940091443E+04  0.00000000000E+00 0. -1.
         21   -1    0    0  501  502 -0.00000000000E+00 -0.00000000000E+00 -0.20521203770E+03  0.20521203770E+03  0.00000000000E+00 0. -1.
         25    1    1    2    0    0  0.18891988298E+03  0.61544417744E+02  0.10574063174E+04  0.10831489083E+04  0.12500000000E+03 0.  0.
         25    1    1    2    0    0 -0.33146499358E+03  0.16496521454E+03  0.60404225686E+03  0.71942658558E+03  0.12500000000E+03 0.  0.
         25    1    1    2    0    0  0.14254511059E+03 -0.22650963228E+03  0.27348532402E+02  0.29664568814E+03  0.12500000000E+03 0.  0.
</event>
<event>
 5    0  0.5705185E-005  0.2979985E+03  0.7546771E-02  0.1086245E+00
         21   -1    0    0  502  501  0.00000000000E+00  0.00000000000E+00  0.36126145082E+03  0.36126145082E+03  0.00000000000E+00 0.  1.
         21   -1    0    0  501  502 -0.00000000000E+00 -0.00000000000E+00 -0.24581401736E+03  0.24581401736E+03  0.00000000000E+00 0.  1.
         25    1    1    2    0    0  0.14970217869E+02 -0.17561413385E+03  0.93992978567E+01  0.21628171034E+03  0.12500000000E+03 0.  0.
         25    1    1    2    0    0 -0.68972267641E+02  0.16747558311E+03  0.34301437109E+01  0.22009545776E+03  0.12500000000E+03 0.  0.
         25    1    1    2    0    0  0.54002049772E+02  0.81385507339E+01  0.10261799189E+03  0.17069830007E+03  0.12500000000E+03 0.  0.
</event>
<event>
 5    0  0.5705185E-005  0.2472417E+03  0.7546771E-02  0.1115060E+00
         21   -1    0    0  502  501  0.00000000000E+00  0.00000000000E+00  0.28527873862E+02  0.28527873862E+02  0.00000000000E+00 0.  1.
         21   -1    0    0  501  502 -0.00000000000E+00 -0.00000000000E+00 -0.21427630875E+04  0.21427630875E+04  0.00000000000E+00 0.  1.
         25    1    1    2    0    0  0.62273406035E+02 -0.80906224155E+02 -0.46671790771E+03  0.49383640974E+03  0.12500000000E+03 0.  0.
         25    1    1    2    0    0 -0.23732772780E+02 -0.44000953822E+02 -0.69688387365E+03  0.70976859735E+03  0.12500000000E+03 0.  0.
         25    1    1    2    0    0 -0.38540633255E+02  0.12490717798E+03 -0.95063343232E+03  0.96768595431E+03  0.12500000000E+03 0.  0.
</event>
<event>
 5    0  0.5705185E-005  0.4659281E+03  0.7546771E-02  0.1023076E+00
         21   -1    0    0  502  501  0.00000000000E+00  0.00000000000E+00  0.20142275630E+03  0.20142275630E+03  0.00000000000E+00 0. -1.
         21   -1    0    0  501  502 -0.00000000000E+00 -0.00000000000E+00 -0.10777778475E+04  0.10777778475E+04  0.00000000000E+00 0. -1.
         25    1    1    2    0    0 -0.83384372711E+02 -0.28724293523E+03 -0.66364421458E+03  0.73858655620E+03  0.12500000000E+03 0.  0.
         25    1    1    2    0    0  0.21863214511E+02 -0.22395961019E+02 -0.14573474476E+03  0.19453327492E+03  0.12500000000E+03 0.  0.
         25    1    1    2    0    0  0.61521158201E+02  0.30963889625E+03 -0.66976131857E+02  0.34608077268E+03  0.12500000000E+03 0.  0.
</event>
<event>
 5    0  0.5705185E-005  0.4138494E+03  0.7546771E-02  0.1039087E+00
         21   -1    0    0  502  501  0.00000000000E+00  0.00000000000E+00  0.54214771013E+03  0.54214771013E+03  0.00000000000E+00 0.  1.
         21   -1    0    0  501  502 -0.00000000000E+00 -0.00000000000E+00 -0.31591263133E+03  0.31591263133E+03  0.00000000000E+00 0.  1.
         25    1    1    2    0    0  0.28235807418E+03  0.94758131864E+02  0.60670850669E+01  0.32305881064E+03  0.12500000000E+03 0.  0.
         25    1    1    2    0    0 -0.18050397835E+01  0.62640510721E+02  0.89239305101E+02  0.16587870667E+03  0.12500000000E+03 0.  0.
         25    1    1    2    0    0 -0.28055303440E+03 -0.15739864259E+03  0.13092868864E+03  0.36912282415E+03  0.12500000000E+03 0.  0.
</event>
<event>
 5    0  0.5705185E-005  0.2260576E+03  0.7546771E-02  0.1129446E+00
         21   -1    0    0  502  501  0.00000000000E+00  0.00000000000E+00  0.26362033805E+02  0.26362033805E+02  0.00000000000E+00 0.  1.
         21   -1    0    0  501  502 -0.00000000000E+00 -0.00000000000E+00 -0.19384710142E+04  0.19384710142E+04  0.00000000000E+00 0.  1.
         25    1    1    2    0    0  0.82224562679E+02 -0.32464766619E+02 -0.43452957675E+03  0.46071226688E+03  0.12500000000E+03 0.  0.
         25    1    1    2    0    0 -0.16958409989E+02  0.52982791280E+01 -0.90708336629E+03  0.91582798212E+03  0.12500000000E+03 0.  0.
         25    1    1    2    0    0 -0.65266152690E+02  0.27166487491E+02 -0.57049603732E+03  0.58829279898E+03  0.12500000000E+03 0.  0.
</event>
<event>
 5    0  0.5705185E-005  0.2467873E+03  0.7546771E-02  0.1115352E+00
         21   -1    0    0  502  501  0.00000000000E+00  0.00000000000E+00  0.87516153487E+03  0.87516153487E+03  0.00000000000E+00 0. -1.
         21   -1    0    0  501  502 -0.00000000000E+00 -0.00000000000E+00 -0.69591708125E+02  0.69591708125E+02  0.00000000000E+00 0. -1.
         25    1    1    2    0    0  0.11530907618E+02  0.51577629381E+02  0.39495025272E+03  0.41761694866E+03  0.12500000000E+03 0.  0.
         25    1    1    2    0    0  0.18154783065E+02  0.81363819559E+01  0.43848837514E+02  0.13395341508E+03  0.12500000000E+03 0.  0.
         25    1    1    2    0    0 -0.29685690683E+02 -0.59714011337E+02  0.36677073651E+03  0.39318287926E+03  0.12500000000E+03 0.  0.
</event>
<event>
 5    0  0.5705185E-005  0.4897643E+03  0.7546771E-02  0.1016486E+00
         21   -1    0    0  502  501  0.00000000000E+00  0.00000000000E+00  0.11501118469E+04  0.11501118469E+04  0.00000000000E+00 0. -1.
         21   -1    0    0  501  502 -0.00000000000E+00 -0.00000000000E+00 -0.20856149126E+03  0.20856149126E+03  0.00000000000E+00 0. -1.
         25    1    1    2    0    0  0.11483834574E+03  0.13960567336E+03  0.38057606707E+03  0.43947779524E+03  0.12500000000E+03 0.  0.
         25    1    1    2    0    0 -0.32802364254E+03 -0.26131174249E+03  0.43235954773E+03  0.61517730399E+03  0.12500000000E+03 0.  0.
         25    1    1    2    0    0  0.21318529680E+03  0.12170606913E+03  0.12861474083E+03  0.30401823892E+03  0.12500000000E+03 0.  0.
</event>
<event>
 5    0  0.5705185E-005  0.3839164E+03  0.7546771E-02  0.1049496E+00
         21   -1    0    0  502  501  0.00000000000E+00  0.00000000000E+00  0.65291353623E+03  0.65291353623E+03  0.00000000000E+00 0.  1.
         21   -1    0    0  501  502 -0.00000000000E+00 -0.00000000000E+00 -0.22574477712E+03  0.22574477712E+03  0.00000000000E+00 0.  1.
         25    1    1    2    0    0  0.17036478520E+03 -0.14907539800E+03 -0.59497324822E+02  0.26535366209E+03  0.12500000000E+03 0.  0.
         25    1    1    2    0    0 -0.13755464349E+03  0.19326014210E+02  0.28600147964E+03  0.34163814355E+03  0.12500000000E+03 0.  0.
         25    1    1    2    0    0 -0.32810141707E+02  0.12974938379E+03  0.20066460430E+03  0.27166650771E+03  0.12500000000E+03 0.  0.
</event>
<event>
 5    0  0.5705185E-005  0.3324167E+03  0.7546771E-02  0.1070073E+00
         21   -1    0    0  502  501  0.00000000000E+00  0.00000000000E+00  0.31334664136E+03  0.31334664136E+03  0.00000000000E+00 0. -1.
         21   -1    0    0  501  502 -0.00000000000E+00 -0.00000000000E+00 -0.35264739490E+03  0.35264739490E+03  0.00000000000E+00 0. -1.
         25    1    1    2    0    0  0.11564162397E+03 -0.10302512853E+03 -0.59630027908E+02  0.20776886805E+03  0.12500000000E+03 0.  0.
         25    1    1    2    0    0 -0.73235069203E+02 -0.29269682022E+02 -0.14621302765E+03  0.20790223448E+03  0.12500000000E+03 0.  0.
         25    1    1    2    0    0 -0.42406554768E+02  0.13229481055E+03  0.16654230202E+03  0.25032293373E+03  0.12500000000E+03 0.  0.
</event>
<event>
 5    0  0.5705185E-005  0.2831031E+03  0.7546771E-02  0.1094006E+00
         21   -1    0    0  502  501  0.00000000000E+00  0.00000000000E+00  0.60289575038E+03  0.60289575038E+03  0.00000000000E+00 0. -1.
         21   -1    0    0  501  502 -0.00000000000E+00 -0.00000000000E+00 -0.13293738425E+03  0.13293738425E+03  0.00000000000E+00 0. -1.
         25    1    1    2    0    0 -0.54693865213E+02  0.64968758119E+02  0.11639601634E+03  0.19074955057E+03  0.12500000000E+03 0.  0.
         25    1    1    2    0    0  0.19978907941E+02  0.28101849564E+02  0.36267732941E+03  0.38516063659E+03  0.12500000000E+03 0.  0.
         25    1    1    2    0    0  0.34714957272E+02 -0.93070607682E+02 -0.91149796312E+01  0.15992294747E+03  0.12500000000E+03 0.  0.
</event>
<event>
 5    0  0.5705185E-005  0.2494002E+03  0.7546771E-02  0.1113684E+00
         21   -1    0    0  502  501  0.00000000000E+00  0.00000000000E+00  0.10019282533E+03  0.10019282533E+03  0.00000000000E+00 0. -1.
         21   -1    0    0  501  502 -0.00000000000E+00 -0.00000000000E+00 -0.62080745096E+03  0.62080745096E+03  0.00000000000E+00 0. -1.
         25    1    1    2    0    0  0.84407634230E+01 -0.78471275300E+02 -0.22782660305E+03  0.27158598747E+03  0.12500000000E+03 0.  0.
         25    1    1    2    0    0 -0.16434933193E+02  0.14734803512E+03 -0.20230826217E+03  0.28024129501E+03  0.12500000000E+03 0.  0.
         25    1    1    2    0    0  0.79941697698E+01 -0.68876759822E+02 -0.90479760411E+02  0.16917299382E+03  0.12500000000E+03 0.  0.
</event>
<event>
 5    0  0.5705185E-005  0.3921398E+03  0.7546771E-02  0.1046536E+00
         21   -1    0    0  502  501  0.00000000000E+00  0.00000000000E+00  0.25232462427E+03  0.25232462427E+03  0.00000000000E+00 0. -1.
         21   -1    0    0  501  502 -0.00000000000E+00 -0.00000000000E+00 -0.60942778762E+03  0.60942778762E+03  0.00000000000E+00 0. -1.
         25    1    1    2    0    0  0.96047324334E+02  0.21029080827E+02 -0.21662336883E+03  0.26873405939E+03  0.12500000000E+03 0.  0.
         25    1    1    2    0    0 -0.25818172319E+03  0.71112042579E+02  0.48595560963E+02  0.29950167501E+03  0.12500000000E+03 0.  0.
         25    1    1    2    0    0  0.16213439886E+03 -0.92141123406E+02 -0.18907535548E+03  0.29351667749E+03  0.12500000000E+03 0.  0.
</event>
<event>
 5    0  0.5705185E-005  0.2859308E+03  0.7546771E-02  0.1092493E+00
         21   -1    0    0  502  501  0.00000000000E+00  0.00000000000E+00  0.48334852712E+03  0.48334852712E+03  0.00000000000E+00 0.  1.
         21   -1    0    0  501  502 -0.00000000000E+00 -0.00000000000E+00 -0.16914584615E+03  0.16914584615E+03  0.00000000000E+00 0. -1.
         25    1    1    2    0    0 -0.13217030891E+03  0.34489094221E+02  0.26543194963E+01  0.18517703310E+03  0.12500000000E+03 0.  0.
         25    1    1    2    0    0  0.15779418737E+02  0.27406800142E+02  0.23926958161E+03  0.27179966048E+03  0.12500000000E+03 0.  0.
         25    1    1    2    0    0  0.11639089017E+03 -0.61895894364E+02  0.72278779856E+02  0.19551767969E+03  0.12500000000E+03 0.  0.
</event>
<event>
 5    0  0.5796400E-005  0.3302396E+03  0.7546771E-02  0.1071031E+00
         21   -1    0    0  502  501  0.00000000000E+00  0.00000000000E+00  0.79252585105E+03  0.79252585105E+03  0.00000000000E+00 0. -1.
         21   -1    0    0  501  502 -0.00000000000E+00 -0.00000000000E+00 -0.13760840652E+03  0.13760840652E+03  0.00000000000E+00 0. -1.
         25    1    1    2    0    0 -0.56808434781E+02 -0.11044599064E+03 -0.16900610530E+02  0.17702018457E+03  0.12500000000E+03 0.  0.
         25    1    1    2    0    0  0.74912197418E+02 -0.13273005883E+02  0.42514255196E+03  0.44962117332E+03  0.12500000000E+03 0.  0.
         25    1    1    2    0    0 -0.18103762636E+02  0.12371899652E+03  0.24667550310E+03  0.30349289968E+03  0.12500000000E+03 0.  0.
</event>
<event>
 5    0  0.5705185E-005  0.2768842E+03  0.7546771E-02  0.1097403E+00
         21   -1    0    0  502  501  0.00000000000E+00  0.00000000000E+00  0.51242663772E+03  0.51242663772E+03  0.00000000000E+00 0. -1.
         21   -1    0    0  501  502 -0.00000000000E+00 -0.00000000000E+00 -0.14961137410E+03  0.14961137410E+03  0.00000000000E+00 0. -1.
         25    1    1    2    0    0 -0.16106033356E+02 -0.30789802478E+02  0.18082575361E+03  0.22255419434E+03  0.12500000000E+03 0.  0.
         25    1    1    2    0    0 -0.98205374550E+02  0.92125941644E+02  0.18301840356E+03  0.25933033135E+03  0.12500000000E+03 0.  0.
         25    1    1    2    0    0  0.11431140791E+03 -0.61336139166E+02 -0.10288935617E+01  0.18015348614E+03  0.12500000000E+03 0.  0.
</event>
<event>
 5    0  0.5705185E-005  0.2528714E+03  0.7546771E-02  0.1111503E+00
         21   -1    0    0  502  501  0.00000000000E+00  0.00000000000E+00  0.34701374241E+03  0.34701374241E+03  0.00000000000E+00 0.  1.
         21   -1    0    0  501  502 -0.00000000000E+00 -0.00000000000E+00 -0.18426921754E+03  0.18426921754E+03  0.00000000000E+00 0.  1.
         25    1    1    2    0    0  0.11538959366E+03 -0.72174931894E+02  0.38994400913E+02  0.18886381978E+03  0.12500000000E+03 0.  0.
         25    1    1    2    0    0 -0.74118286328E+02  0.78505547389E+02  0.53543434386E+01  0.16525831396E+03  0.12500000000E+03 0.  0.
         25    1    1    2    0    0 -0.41271307333E+02 -0.63306154955E+01  0.11839578051E+03  0.17716082621E+03  0.12500000000E+03 0.  0.
</event>
<event>
 5    0  0.5705185E-005  0.2454658E+03  0.7546771E-02  0.1116204E+00
         21   -1    0    0  502  501  0.00000000000E+00  0.00000000000E+00  0.18609068883E+03  0.18609068883E+03  0.00000000000E+00 0. -1.
         21   -1    0    0  501  502 -0.00000000000E+00 -0.00000000000E+00 -0.32378548020E+03  0.32378548020E+03  0.00000000000E+00 0. -1.
         25    1    1    2    0    0  0.89928433636E+01 -0.86776995914E+01 -0.67172353825E+02  0.14245455002E+03  0.12500000000E+03 0.  0.
         25    1    1    2    0    0 -0.84585434441E+02 -0.68592304634E+02  0.37523688605E+02  0.16997831386E+03  0.12500000000E+03 0.  0.
         25    1    1    2    0    0  0.75592591077E+02  0.77270004225E+02 -0.10804612615E+03  0.19744330516E+03  0.12500000000E+03 0.  0.
</event>
<event>
 5    0  0.5705185E-005  0.2661187E+03  0.7546771E-02  0.1103522E+00
         21   -1    0    0  502  501  0.00000000000E+00  0.00000000000E+00  0.32184607470E+03  0.32184607470E+03  0.00000000000E+00 0. -1.
         21   -1    0    0  501  502 -0.00000000000E+00 -0.00000000000E+00 -0.22004044139E+03  0.22004044139E+03  0.00000000000E+00 0. -1.
         25    1    1    2    0    0 -0.15064236505E+03 -0.38374938369E+02  0.30125545750E+02  0.20173821291E+03  0.12500000000E+03 0.  0.
         25    1    1    2    0    0  0.96065540242E+02  0.94502972457E+02  0.54162445157E+02  0.19161933694E+03  0.12500000000E+03 0.  0.
         25    1    1    2    0    0  0.54576824805E+02 -0.56128034088E+02  0.17517642404E+02  0.14852896624E+03  0.12500000000E+03 0.  0.
</event>
<event>
 5    0  0.5705185E-005  0.3449360E+03  0.7546771E-02  0.1064713E+00
         21   -1    0    0  502  501  0.00000000000E+00  0.00000000000E+00  0.65868558137E+03  0.65868558137E+03  0.00000000000E+00 0. -1.
         21   -1    0    0  501  502 -0.00000000000E+00 -0.00000000000E+00 -0.18063378575E+03  0.18063378575E+03  0.00000000000E+00 0. -1.
         25    1    1    2    0    0  0.11590978628E+03  0.64662464185E+02  0.12692713803E+00  0.18232204733E+03  0.12500000000E+03 0.  0.
         25    1    1    2    0    0 -0.31164529042E+02 -0.19803718361E+03  0.33517588404E+03  0.41007051492E+03  0.12500000000E+03 0.  0.
         25    1    1    2    0    0 -0.84745257239E+02  0.13337471943E+03  0.14274898444E+03  0.24692680488E+03  0.12500000000E+03 0.  0.
</event>
<event>
 5    0  0.5705185E-005  0.2833833E+03  0.7546771E-02  0.1093855E+00
         21   -1    0    0  502  501  0.00000000000E+00  0.00000000000E+00  0.14364103525E+03  0.14364103525E+03  0.00000000000E+00 0. -1.
         21   -1    0    0  501  502 -0.00000000000E+00 -0.00000000000E+00 -0.55907479882E+03  0.55907479882E+03  0.00000000000E+00 0. -1.
         25    1    1    2    0    0  0.41489902345E+01  0.12777953360E+02 -0.17168217184E+03  0.21279158428E+03  0.12500000000E+03 0.  0.
         25    1    1    2    0    0  0.10829857878E+03 -0.88026953003E+02 -0.37668484790E+01  0.18739401209E+03  0.12500000000E+03 0.  0.
         25    1    1    2    0    0 -0.11244756902E+03  0.75248999642E+02 -0.23998474326E+03  0.30253023770E+03  0.12500000000E+03 0.  0.
</event>
<event>
 5    0  0.5705185E-005  0.3331997E+03  0.7546771E-02  0.1069730E+00
         21   -1    0    0  502  501  0.00000000000E+00  0.00000000000E+00  0.69196164014E+02  0.69196164014E+02  0.00000000000E+00 0. -1.
         21   -1    0    0  501  502 -0.00000000000E+00 -0.00000000000E+00 -0.16044540157E+04  0.16044540157E+04  0.00000000000E+00 0. -1.
         25    1    1    2    0    0 -0.18913001848E+02  0.46280004877E+02 -0.66612362034E+03  0.67959194967E+03  0.12500000000E+03 0.  0.
         25    1    1    2    0    0  0.21346796933E+02  0.10718794236E+03 -0.87376714973E+02  0.18762897177E+03  0.12500000000E+03 0.  0.
         25    1    1    2    0    0 -0.24337950848E+01 -0.15346794724E+03 -0.78175751636E+03  0.80642925825E+03  0.12500000000E+03 0.  0.
</event>
<event>
 5    0  0.5705185E-005  0.2683510E+03  0.7546771E-02  0.1102227E+00
         21   -1    0    0  502  501  0.00000000000E+00  0.00000000000E+00  0.45453275165E+03  0.45453275165E+03  0.00000000000E+00 0.  1.
         21   -1    0    0  501  502 -0.00000000000E+00 -0.00000000000E+00 -0.15843145165E+03  0.15843145165E+03  0.00000000000E+00 0.  1.
         25    1    1    2    0    0 -0.95098121812E+01 -0.19051549947E+02 -0.48129188480E+02  0.13562749303E+03  0.12500000000E+03 0.  0.
         25    1    1    2    0    0  0.61558898182E+02  0.64958962615E+02  0.71813629196E+02  0.16968017594E+03  0.12500000000E+03 0.  0.
         25    1    1    2    0    0 -0.52049086001E+02 -0.45907412668E+02  0.27241685928E+03  0.30765653432E+03  0.12500000000E+03 0.  0.
</event>
<event>
 5    0  0.5705185E-005  0.3551369E+03  0.7546771E-02  0.1060526E+00
         21   -1    0    0  502  501  0.00000000000E+00  0.00000000000E+00  0.19273015324E+03  0.19273015324E+03  0.00000000000E+00 0. -1.
         21   -1    0    0  501  502 -0.00000000000E+00 -0.00000000000E+00 -0.65439804288E+03  0.65439804288E+03  0.00000000000E+00 0. -1.
         25    1    1    2    0    0 -0.11862066361E+03  0.15057871646E+03 -0.49273078484E+02  0.23408897443E+03  0.12500000000E+03 0.  0.
         25    1    1    2    0    0  0.38199717020E+02 -0.24463885202E+03 -0.24089697049E+03  0.36737410999E+03  0.12500000000E+03 0.  0.
         25    1    1    2    0    0  0.80420946594E+02  0.94060135562E+02 -0.17149784066E+03  0.24566511169E+03  0.12500000000E+03 0.  0.
</event>
<event>
 5    0  0.5705185E-005  0.2951215E+03  0.7546771E-02  0.1087705E+00
         21   -1    0    0  502  501  0.00000000000E+00  0.00000000000E+00  0.56129599467E+02  0.56129599467E+02  0.00000000000E+00 0. -1.
         21   -1    0    0  501  502 -0.00000000000E+00 -0.00000000000E+00 -0.15517066174E+04  0.15517066174E+04  0.00000000000E+00 0. -1.
         25    1    1    2    0    0  0.60029074349E+02  0.22595357063E+02 -0.53206393758E+03  0.55030089370E+03  0.12500000000E+03 0.  0.
         25    1    1    2    0    0  0.13614402389E+01 -0.89007693861E+02 -0.85560419039E+03  0.86925701245E+03  0.12500000000E+03 0.  0.
         25    1    1    2    0    0 -0.61390514588E+02  0.66412336798E+02 -0.10790889000E+03  0.18827831076E+03  0.12500000000E+03 0.  0.
</event>
<event>
 5    0  0.5705185E-005  0.2769150E+03  0.7546771E-02  0.1097386E+00
         21   -1    0    0  502  501  0.00000000000E+00  0.00000000000E+00  0.83474068222E+03  0.83474068222E+03  0.00000000000E+00 0. -1.
         21   -1    0    0  501  502 -0.00000000000E+00 -0.00000000000E+00 -0.91863149038E+02  0.91863149038E+02  0.00000000000E+00 0. -1.
         25    1    1    2    0    0 -0.10705483851E+03 -0.22156800612E+02  0.43034157857E+02  0.17154766395E+03  0.12500000000E+03 0.  0.
         25    1    1    2    0    0  0.64874663137E+02  0.42031069266E+02  0.42156161177E+03  0.44644655359E+03  0.12500000000E+03 0.  0.
         25    1    1    2    0    0  0.42180175377E+02 -0.19874268654E+02  0.27828176356E+03  0.30860961372E+03  0.12500000000E+03 0.  0.
</event>
<event>
 5    0  0.5705185E-005  0.2962958E+03  0.7546771E-02  0.1087107E+00
         21   -1    0    0  502  501  0.00000000000E+00  0.00000000000E+00  0.77114832574E+03  0.77114832574E+03  0.00000000000E+00 0.  1.
         21   -1    0    0  501  502 -0.00000000000E+00 -0.00000000000E+00 -0.11384478070E+03  0.11384478070E+03  0.00000000000E+00 0.  1.
         25    1    1    2    0    0  0.49951714900E+02 -0.38169630611E+02  0.20062392572E+03  0.24459569517E+03  0.12500000000E+03 0.  0.
         25    1    1    2    0    0  0.87042299617E+02 -0.11045429592E+03  0.10361503686E+03  0.21479662305E+03  0.12500000000E+03 0.  0.
         25    1    1    2    0    0 -0.13699401452E+03  0.14862392653E+03  0.35306458245E+03  0.42560078822E+03  0.12500000000E+03 0.  0.
</event>
<event>
 5    0  0.5705185E-005  0.2802453E+03  0.7546771E-02  0.1095555E+00
         21   -1    0    0  502  501  0.00000000000E+00  0.00000000000E+00  0.15268740781E+03  0.15268740781E+03  0.00000000000E+00 0.  1.
         21   -1    0    0  501  502 -0.00000000000E+00 -0.00000000000E+00 -0.51436759079E+03  0.51436759079E+03  0.00000000000E+00 0.  1.
         25    1    1    2    0    0 -0.25089515491E+02 -0.59431209199E+02 -0.23164645527E+03  0.27101039215E+03  0.12500000000E+03 0.  0.
         25    1    1    2    0    0  0.13506116508E+03 -0.17805581481E+02 -0.99589663975E+02  0.21000394809E+03  0.12500000000E+03 0.  0.
         25    1    1    2    0    0 -0.10997164959E+03  0.77236790680E+02 -0.30444063739E+02  0.18604065836E+03  0.12500000000E+03 0.  0.
</event>
<event>
 5    0  0.5705185E-005  0.3683786E+03  0.7546771E-02  0.1055315E+00
         21   -1    0    0  502  501  0.00000000000E+00  0.00000000000E+00  0.82994059012E+03  0.82994059012E+03  0.00000000000E+00 0. -1.
         21   -1    0    0  501  502 -0.00000000000E+00 -0.00000000000E+00 -0.16350904287E+03  0.16350904287E+03  0.00000000000E+00 0. -1.
         25    1    1    2    0    0  0.88980151703E+02  0.72929025559E+02  0.84660510201E+02  0.18981178086E+03  0.12500000000E+03 0.  0.
         25    1    1    2    0    0  0.16106958670E+03 -0.15768503517E+03  0.22172211953E+03  0.33999070629E+03  0.12500000000E+03 0.  0.
         25    1    1    2    0    0 -0.25004973841E+03  0.84756009607E+02  0.36004891752E+03  0.46364714585E+03  0.12500000000E+03 0.  0.
</event>
<event>
 5    0  0.5705185E-005  0.2417509E+03  0.7546771E-02  0.1118632E+00
         21   -1    0    0  502  501  0.00000000000E+00  0.00000000000E+00  0.25034870727E+03  0.25034870727E+03  0.00000000000E+00 0.  1.
         21   -1    0    0  501  502 -0.00000000000E+00 -0.00000000000E+00 -0.23344845609E+03  0.23344845609E+03  0.00000000000E+00 0.  1.
         25    1    1    2    0    0  0.26732266370E+01 -0.46419923819E+02 -0.71868815600E+02  0.15149944595E+03  0.12500000000E+03 0.  0.
         25    1    1    2    0    0  0.27347432091E+02  0.61978556324E+02 -0.42012307363E+02  0.14825403015E+03  0.12500000000E+03 0.  0.
         25    1    1    2    0    0 -0.30020658728E+02 -0.15558632505E+02  0.13078137414E+03  0.18404368725E+03  0.12500000000E+03 0.  0.
</event>
<event>
 5    0  0.5705185E-005  0.4267914E+03  0.7546771E-02  0.1034878E+00
         21   -1    0    0  502  501  0.00000000000E+00  0.00000000000E+00  0.13828314472E+03  0.13828314472E+03  0.00000000000E+00 0. -1.
         21   -1    0    0  501  502 -0.00000000000E+00 -0.00000000000E+00 -0.13172312802E+04  0.13172312802E+04  0.00000000000E+00 0. -1.
         25    1    1    2    0    0  0.33361003354E+02 -0.11538393756E+03 -0.86201352552E+03  0.87927170304E+03  0.12500000000E+03 0.  0.
         25    1    1    2    0    0  0.45921757469E+02  0.45950672438E+02 -0.37668754558E+03  0.40216760076E+03  0.12500000000E+03 0.  0.
         25    1    1    2    0    0 -0.79282760823E+02  0.69433265123E+02  0.59752935640E+02  0.17407512110E+03  0.12500000000E+03 0.  0.
</event>
<event>
 5    0  0.5705185E-005  0.3462147E+03  0.7546771E-02  0.1064179E+00
         21   -1    0    0  502  501  0.00000000000E+00  0.00000000000E+00  0.24214453322E+03  0.24214453322E+03  0.00000000000E+00 0. -1.
         21   -1    0    0  501  502 -0.00000000000E+00 -0.00000000000E+00 -0.49501264941E+03  0.49501264941E+03  0.00000000000E+00 0. -1.
         25    1    1    2    0    0  0.35197992315E+02  0.87325789109E+02 -0.45204414910E+02  0.16288993595E+03  0.12500000000E+03 0.  0.
         25    1    1    2    0    0 -0.12906763917E+03 -0.25298908568E+02  0.11188058564E+03  0.21316837406E+03  0.12500000000E+03 0.  0.
         25    1    1    2    0    0  0.93869646852E+02 -0.62026880540E+02 -0.31954428692E+03  0.36109887263E+03  0.12500000000E+03 0.  0.
</event>
<event>
 5    0  0.5705185E-005  0.3011852E+03  0.7546771E-02  0.1084650E+00
         21   -1    0    0  502  501  0.00000000000E+00  0.00000000000E+00  0.49998461347E+03  0.49998461347E+03  0.00000000000E+00 0.  1.
         21   -1    0    0  501  502 -0.00000000000E+00 -0.00000000000E+00 -0.18143061065E+03  0.18143061065E+03  0.00000000000E+00 0.  1.
         25    1    1    2    0    0 -0.13022208425E+03 -0.71851166396E+01  0.23381738845E+03  0.29547417530E+03  0.12500000000E+03 0.  0.
         25    1    1    2    0    0 -0.38327164853E+02  0.77827270896E+02  0.58353576446E+02  0.16296071780E+03  0.12500000000E+03 0.  0.
         25    1    1    2    0    0  0.16854924911E+03 -0.70642154256E+02  0.26383037921E+02  0.22298033102E+03  0.12500000000E+03 0.  0.
</event>
<event>
 5    0  0.5705185E-005  0.2720298E+03  0.7546771E-02  0.1100123E+00
         21   -1    0    0  502  501  0.00000000000E+00  0.00000000000E+00  0.98321120405E+02  0.98321120405E+02  0.00000000000E+00 0.  1.
         21   -1    0    0  501  502 -0.00000000000E+00 -0.00000000000E+00 -0.75263825726E+03  0.75263825726E+03  0.00000000000E+00 0.  1.
         25    1    1    2    0    0  0.11332801346E+03 -0.98292816937E+02 -0.26937677839E+03  0.33270642499E+03  0.12500000000E+03 0.  0.
         25    1    1    2    0    0 -0.12717712679E+03  0.59925670440E+02 -0.12185657269E+03  0.22414087504E+03  0.12500000000E+03 0.  0.
         25    1    1    2    0    0  0.13849113337E+02  0.38367146497E+02 -0.26308378577E+03  0.29411207763E+03  0.12500000000E+03 0.  0.
</event>
<event>
 5    0  0.5705185E-005  0.2354918E+03  0.7546771E-02  0.1122833E+00
         21   -1    0    0  502  501  0.00000000000E+00  0.00000000000E+00  0.10360394885E+03  0.10360394885E+03  0.00000000000E+00 0. -1.
         21   -1    0    0  501  502 -0.00000000000E+00 -0.00000000000E+00 -0.53527300357E+03  0.53527300357E+03  0.00000000000E+00 0. -1.
         25    1    1    2    0    0  0.31367029057E+02  0.63818787548E+02 -0.85551579649E+02  0.16733439854E+03  0.12500000000E+03 0.  0.
         25    1    1    2    0    0  0.70840172069E+02 -0.66169599317E+02 -0.15714041865E+03  0.22296828704E+03  0.12500000000E+03 0.  0.
         25    1    1    2    0    0 -0.10220720113E+03  0.23508117697E+01 -0.18897705642E+03  0.24857426683E+03  0.12500000000E+03 0.  0.
</event>
<event>
 5    0  0.5705185E-005  0.4091804E+03  0.7546771E-02  0.1040646E+00
         21   -1    0    0  502  501  0.00000000000E+00  0.00000000000E+00  0.11132776570E+04  0.11132776570E+04  0.00000000000E+00 0. -1.
         21   -1    0    0  501  502 -0.00000000000E+00 -0.00000000000E+00 -0.15039250393E+03  0.15039250393E+03  0.00000000000E+00 0. -1.
         25    1    1    2    0    0  0.20548516024E+02  0.79739607204E+02  0.43640069722E+02  0.15591697199E+03  0.12500000000E+03 0.  0.
         25    1    1    2    0    0 -0.15177764292E+03 -0.70366513780E+02  0.90154287645E+03  0.92541474876E+03  0.12500000000E+03 0.  0.
         25    1    1    2    0    0  0.13122912690E+03 -0.93730934237E+01  0.17702206869E+02  0.18233844015E+03  0.12500000000E+03 0.  0.
</event>
<event>
 5    0  0.6586254E-005  0.2803856E+03  0.7546771E-02  0.1095479E+00
         21   -1    0    0  502  501  0.00000000000E+00  0.00000000000E+00  0.14885176118E+03  0.14885176118E+03  0.00000000000E+00 0. -1.
         21   -1    0    0  501  502 -0.00000000000E+00 -0.00000000000E+00 -0.52815024372E+03  0.52815024372E+03  0.00000000000E+00 0. -1.
         25    1    1    2    0    0  0.67425364238E+02  0.87006314809E+02 -0.19086173767E+03  0.25331695850E+03  0.12500000000E+03 0.  0.
         25    1    1    2    0    0 -0.11598129764E+03 -0.51601321268E+02  0.13544440259E+02  0.17866955426E+03  0.12500000000E+03 0.  0.
         25    1    1    2    0    0  0.48555933403E+02 -0.35404993541E+02 -0.20198118513E+03  0.24501549213E+03  0.12500000000E+03 0.  0.
</event>
<event>
 5    0  0.5705185E-005  0.3877740E+03  0.7546771E-02  0.1048097E+00
         21   -1    0    0  502  501  0.00000000000E+00  0.00000000000E+00  0.17006312933E+03  0.17006312933E+03  0.00000000000E+00 0. -1.
         21   -1    0    0  501  502 -0.00000000000E+00 -0.00000000000E+00 -0.88419346359E+03  0.88419346359E+03  0.00000000000E+00 0. -1.
         25    1    1    2    0    0 -0.13368294906E+02  0.30628349148E+02 -0.36361148160E+03  0.38594703863E+03  0.12500000000E+03 0.  0.
         25    1    1    2    0    0 -0.95050176866E+02 -0.14516047590E+03 -0.40659599315E+03  0.45940331032E+03  0.12500000000E+03 0.  0.
         25    1    1    2    0    0  0.10841847177E+03  0.11453212676E+03  0.56077140491E+02  0.20890624396E+03  0.12500000000E+03 0.  0.
</event>
<event>
 5    0  0.5705185E-005  0.3557794E+03  0.7546771E-02  0.1060268E+00
         21   -1    0    0  502  501  0.00000000000E+00  0.00000000000E+00  0.18949307313E+03  0.18949307313E+03  0.00000000000E+00 0. -1.
         21   -1    0    0  501  502 -0.00000000000E+00 -0.00000000000E+00 -0.66798743708E+03  0.66798743708E+03  0.00000000000E+00 0. -1.
         25    1    1    2    0    0  0.34152699790E+02  0.28137717841E+02  0.17684974732E+02  0.13377554485E+03  0.12500000000E+03 0.  0.
         25    1    1    2    0    0 -0.23142512455E+03 -0.90283835805E+02 -0.20604000187E+03  0.34610149039E+03  0.12500000000E+03 0.  0.
         25    1    1    2    0    0  0.19727242476E+03  0.62146117964E+02 -0.29013933681E+03  0.37760347498E+03  0.12500000000E+03 0.  0.
</event>
<event>
 5    0  0.5705185E-005  0.2879552E+03  0.7546771E-02  0.1091422E+00
         21   -1    0    0  502  501  0.00000000000E+00  0.00000000000E+00  0.16724527682E+03  0.16724527682E+03  0.00000000000E+00 0.  1.
         21   -1    0    0  501  502 -0.00000000000E+00 -0.00000000000E+00 -0.49578800495E+03  0.49578800495E+03  0.00000000000E+00 0.  1.
         25    1    1    2    0    0  0.35912379801E+02 -0.40470533614E+02 -0.23864977637E+03  0.27478405863E+03  0.12500000000E+03 0.  0.
         25    1    1    2    0    0  0.11888931852E+03  0.42922939072E+02 -0.28721179635E+02  0.18007485920E+03  0.12500000000E+03 0.  0.
         25    1    1    2    0    0 -0.15480169832E+03 -0.24524054581E+01 -0.61171772130E+02  0.20817436394E+03  0.12500000000E+03 0.  0.
</event>
<event>
 5    0  0.5705185E-005  0.4137122E+03  0.7546771E-02  0.1039132E+00
         21   -1    0    0  502  501  0.00000000000E+00  0.00000000000E+00  0.13602359575E+03  0.13602359575E+03  0.00000000000E+00 0. -1.
         21   -1    0    0  501  502 -0.00000000000E+00 -0.00000000000E+00 -0.12582947387E+04  0.12582947387E+04  0.00000000000E+00 0. -1.
         25    1    1    2    0    0 -0.13188766182E+03 -0.23349359641E+03 -0.46344662670E+03  0.54983760394E+03  0.12500000000E+03 0.  0.
         25    1    1    2    0    0  0.36376876335E+02 -0.87628824209E+02 -0.29619784602E+03  0.33520180779E+03  0.12500000000E+03 0.  0.
         25    1    1    2    0    0  0.95510785486E+02  0.32112242062E+03 -0.36262667023E+03  0.50927892272E+03  0.12500000000E+03 0.  0.
</event>
<event>
 5    0  0.5705185E-005  0.3125476E+03  0.7546771E-02  0.1079131E+00
         21   -1    0    0  502  501  0.00000000000E+00  0.00000000000E+00  0.30161066481E+03  0.30161066481E+03  0.00000000000E+00 0. -1.
         21   -1    0    0  501  502 -0.00000000000E+00 -0.00000000000E+00 -0.32388113270E+03  0.32388113270E+03  0.00000000000E+00 0. -1.
         25    1    1    2    0    0 -0.17316576499E+02  0.71712594279E+02 -0.15951340450E+03  0.21566660895E+03  0.12500000000E+03 0.  0.
         25    1    1    2    0    0  0.87859401805E+02  0.23488535514E+02  0.17500407753E+03  0.23350034891E+03  0.12500000000E+03 0.  0.
         25    1    1    2    0    0 -0.70542825306E+02 -0.95201129794E+02 -0.37761140930E+02  0.17632483966E+03  0.12500000000E+03 0.  0.
</event>
<event>
 5    0  0.5705185E-005  0.2347307E+03  0.7546771E-02  0.1123354E+00
         21   -1    0    0  502  501  0.00000000000E+00  0.00000000000E+00  0.33926135347E+03  0.33926135347E+03  0.00000000000E+00 0. -1.
         21   -1    0    0  501  502 -0.00000000000E+00 -0.00000000000E+00 -0.16240719754E+03  0.16240719754E+03  0.00000000000E+00 0. -1.
         25    1    1    2    0    0  0.25132893544E+02  0.45610284672E+02  0.11630301025E+03  0.17850308288E+03  0.12500000000E+03 0.  0.
         25    1    1    2    0    0  0.53710832085E+02 -0.41948817235E+02 -0.35675552701E+02  0.14677296008E+03  0.12500000000E+03 0.  0.
         25    1    1    2    0    0 -0.78843725629E+02 -0.36614674365E+01  0.96226698376E+02  0.17639250805E+03  0.12500000000E+03 0.  0.
</event>
<event>
 5    0  0.6390173E-005  0.2901711E+03  0.7546771E-02  0.1090260E+00
         21   -1    0    0  502  501  0.00000000000E+00  0.00000000000E+00  0.41493940892E+03  0.41493940892E+03  0.00000000000E+00 0. -1.
         21   -1    0    0  501  502 -0.00000000000E+00 -0.00000000000E+00 -0.20291945418E+03  0.20291945418E+03  0.00000000000E+00 0. -1.
         25    1    1    2    0    0  0.10363709782E+03  0.83375992939E+02  0.15719650929E+03  0.24088990592E+03  0.12500000000E+03 0.  0.
         25    1    1    2    0    0 -0.12617536848E+03 -0.14422931010E+03  0.58222624707E+02  0.23608725407E+03  0.12500000000E+03 0.  0.
         25    1    1    2    0    0  0.22538270667E+02  0.60853317163E+02 -0.33991792543E+01  0.14088170312E+03  0.12500000000E+03 0.  0.
</event>
<event>
 5    0  0.5705185E-005  0.2237340E+03  0.7546771E-02  0.1131129E+00
         21   -1    0    0  502  501  0.00000000000E+00  0.00000000000E+00  0.24225407256E+03  0.24225407256E+03  0.00000000000E+00 0.  1.
         21   -1    0    0  501  502 -0.00000000000E+00 -0.00000000000E+00 -0.20662970882E+03  0.20662970882E+03  0.00000000000E+00 0.  1.
         25    1    1    2    0    0 -0.16968484010E+02 -0.11238946533E+02  0.23318129259E+02  0.12877491418E+03  0.12500000000E+03 0.  0.
         25    1    1    2    0    0 -0.13502157252E+02  0.68102547905E+02  0.80169803935E+02  0.16392822437E+03  0.12500000000E+03 0.  0.
         25    1    1    2    0    0  0.30470641261E+02 -0.56863601372E+02 -0.67863569451E+02  0.15618064284E+03  0.12500000000E+03 0.  0.
</event>
<event>
 5    0  0.5738464E-005  0.2927770E+03  0.7546771E-02  0.1088908E+00
         21   -1    0    0  502  501  0.00000000000E+00  0.00000000000E+00  0.16645861310E+03  0.16645861310E+03  0.00000000000E+00 0.  1.
         21   -1    0    0  501  502 -0.00000000000E+00 -0.00000000000E+00 -0.51495321642E+03  0.51495321642E+03  0.00000000000E+00 0.  1.
         25    1    1    2    0    0  0.54388434179E+02 -0.18278135963E+02 -0.55116564044E+02  0.14817229046E+03  0.12500000000E+03 0.  0.
         25    1    1    2    0    0  0.82576430031E+02 -0.13664251243E+03 -0.15061667692E+03  0.25258746280E+03  0.12500000000E+03 0.  0.
         25    1    1    2    0    0 -0.13696486421E+03  0.15492064840E+03 -0.14276136236E+03  0.28065207626E+03  0.12500000000E+03 0.  0.
</event>
<event>
 5    0  0.5705185E-005  0.3172055E+03  0.7546771E-02  0.1076943E+00
         21   -1    0    0  502  501  0.00000000000E+00  0.00000000000E+00  0.11173171484E+04  0.11173171484E+04  0.00000000000E+00 0.  1.
         21   -1    0    0  501  502 -0.00000000000E+00 -0.00000000000E+00 -0.90054413169E+02  0.90054413169E+02  0.00000000000E+00 0.  1.
         25    1    1    2    0    0 -0.11366275282E+03  0.64937747187E+02  0.55105997859E+03  0.58002433776E+03  0.12500000000E+03 0.  0.
         25    1    1    2    0    0  0.11196035515E+03  0.10336542615E+03  0.25908187956E+03  0.32552719205E+03  0.12500000000E+03 0.  0.
         25    1    1    2    0    0  0.17023976737E+01 -0.16830317334E+03  0.21712087712E+03  0.30182003180E+03  0.12500000000E+03 0.  0.
</event>
<event>
 5    0  0.5705185E-005  0.2750556E+03  0.7546771E-02  0.1098420E+00
         21   -1    0    0  502  501  0.00000000000E+00  0.00000000000E+00  0.12635344512E+03  0.12635344512E+03  0.00000000000E+00 0. -1.
         21   -1    0    0  501  502 -0.00000000000E+00 -0.00000000000E+00 -0.59876174873E+03  0.59876174873E+03  0.00000000000E+00 0. -1.
         25    1    1    2    0    0  0.13627304741E+03 -0.57797055895E+02 -0.76270359727E+02  0.20821385855E+03  0.12500000000E+03 0.  0.
         25    1    1    2    0    0 -0.48261775939E+02  0.40565049117E+02 -0.31102924521E+03  0.34108490674E+03  0.12500000000E+03 0.  0.
         25    1    1    2    0    0 -0.88011271466E+02  0.17232006778E+02 -0.85108698669E+02  0.17581642856E+03  0.12500000000E+03 0.  0.
</event>
<event>
 5    0  0.5705185E-005  0.6591034E+03  0.7546771E-02  0.9789846E-01
         21   -1    0    0  502  501  0.00000000000E+00  0.00000000000E+00  0.37235376502E+03  0.37235376502E+03  0.00000000000E+00 0. -1.
         21   -1    0    0  501  502 -0.00000000000E+00 -0.00000000000E+00 -0.11666787904E+04  0.11666787904E+04  0.00000000000E+00 0. -1.
         25    1    1    2    0    0  0.95592957490E+02  0.19158858511E+02  0.68622420178E+02  0.17274001254E+03  0.12500000000E+03 0.  0.
         25    1    1    2    0    0 -0.24025710906E+03 -0.26033260490E+03  0.71555715667E+02  0.38241569538E+03  0.12500000000E+03 0.  0.
         25    1    1    2    0    0  0.14466415157E+03  0.24117374639E+03 -0.93450316120E+03  0.98387684747E+03  0.12500000000E+03 0.  0.
</event>
<event>
 5    0  0.5705185E-005  0.3126475E+03  0.7546771E-02  0.1079084E+00
         21   -1    0    0  502  501  0.00000000000E+00  0.00000000000E+00  0.37037516672E+02  0.37037516672E+02  0.00000000000E+00 0. -1.
         21   -1    0    0  501  502 -0.00000000000E+00 -0.00000000000E+00 -0.26391740848E+04  0.26391740848E+04  0.00000000000E+00 0. -1.
         25    1    1    2    0    0 -0.20319193881E+02 -0.16615113701E+03 -0.10291461205E+04  0.10501360899E+04  0.12500000000E+03 0.  0.
         25    1    1    2    0    0  0.23389986710E+02  0.98136438494E+02 -0.13627398597E+04  0.13721744704E+04  0.12500000000E+03 0.  0.
         25    1    1    2    0    0 -0.30707928286E+01  0.68014698520E+02 -0.21025058800E+03  0.25390104123E+03  0.12500000000E+03 0.  0.
</event>
<event>
 5    0  0.5705185E-005  0.3947350E+03  0.7546771E-02  0.1045618E+00
         21   -1    0    0  502  501  0.00000000000E+00  0.00000000000E+00  0.53854861432E+03  0.53854861432E+03  0.00000000000E+00 0.  1.
         21   -1    0    0  501  502 -0.00000000000E+00 -0.00000000000E+00 -0.28932527388E+03  0.28932527388E+03  0.00000000000E+00 0.  1.
         25    1    1    2    0    0 -0.10779406892E+03  0.18782045529E+03 -0.88476816437E+01  0.25019865345E+03  0.12500000000E+03 0.  0.
         25    1    1    2    0    0  0.10048288727E+03  0.99416480930E+02  0.16538068909E+03  0.25091078023E+03  0.12500000000E+03 0.  0.
         25    1    1    2    0    0  0.73111816474E+01 -0.28723693622E+03  0.92690332997E+02  0.32676445452E+03  0.12500000000E+03 0.  0.
</event>
<event>
 5    0  0.5705185E-005  0.2832582E+03  0.7546771E-02  0.1093923E+00
         21   -1    0    0  502  501  0.00000000000E+00  0.00000000000E+00  0.97424711644E+02  0.97424711644E+02  0.00000000000E+00 0.  1.
         21   -1    0    0  501  502 -0.00000000000E+00 -0.00000000000E+00 -0.82356143959E+03  0.82356143959E+03  0.00000000000E+00 0.  1.
         25    1    1    2    0    0 -0.39102064428E+02  0.37821345787E+02 -0.51622058601E+02  0.14577126800E+03  0.12500000000E+03 0.  0.
         25    1    1    2    0    0 -0.11962136750E+03  0.58222983560E+01 -0.34986787076E+03  0.39035329858E+03  0.12500000000E+03 0.  0.
         25    1    1    2    0    0  0.15872343192E+03 -0.43643644143E+02 -0.32464679859E+03  0.38486158467E+03  0.12500000000E+03 0.  0.
</event>
<event>
 5    0  0.5705185E-005  0.4660889E+03  0.7546771E-02  0.1023030E+00
         21   -1    0    0  502  501  0.00000000000E+00  0.00000000000E+00  0.27089769411E+03  0.27089769411E+03  0.00000000000E+00 0. -1.
         21   -1    0    0  501  502 -0.00000000000E+00 -0.00000000000E+00 -0.80192201821E+03  0.80192201821E+03  0.00000000000E+00 0. -1.
         25    1    1    2    0    0 -0.22236963533E+03 -0.85203430436E+02 -0.42454880267E+02  0.27227797585E+03  0.12500000000E+03 0.  0.
         25    1    1    2    0    0 -0.38867536011E+02  0.18370472206E+03 -0.17335397648E+01  0.22557951020E+03  0.12500000000E+03 0.  0.
         25    1    1    2    0    0  0.26123717134E+03 -0.98501291623E+02 -0.48683590407E+03  0.57496222627E+03  0.12500000000E+03 0.  0.
</event>
<event>
 5    0  0.5705185E-005  0.2731465E+03  0.7546771E-02  0.1099492E+00
         21   -1    0    0  502  501  0.00000000000E+00  0.00000000000E+00  0.20760061040E+03  0.20760061040E+03  0.00000000000E+00 0. -1.
         21   -1    0    0  501  502 -0.00000000000E+00 -0.00000000000E+00 -0.35938725510E+03  0.35938725510E+03  0.00000000000E+00 0. -1.
         25    1    1    2    0    0  0.70864677265E+02  0.81412619196E+02 -0.17225577500E+03  0.23863543130E+03  0.12500000000E+03 0.  0.
         25    1    1    2    0    0 -0.10254435044E+02 -0.53952083853E+02 -0.76711129302E+02  0.15660644351E+03  0.12500000000E+03 0.  0.
         25    1    1    2    0    0 -0.60610242221E+02 -0.27460535343E+02  0.97180259598E+02  0.17174599069E+03  0.12500000000E+03 0.  0.
</event>
<event>
 5    0  0.5705185E-005  0.4181617E+03  0.7546771E-02  0.1037666E+00
         21   -1    0    0  502  501  0.00000000000E+00  0.00000000000E+00  0.66512367152E+03  0.66512367152E+03  0.00000000000E+00 0.  1.
         21   -1    0    0  501  502 -0.00000000000E+00 -0.00000000000E+00 -0.26289723048E+03  0.26289723048E+03  0.00000000000E+00 0.  1.
         25    1    1    2    0    0  0.89765374911E+02  0.33596848242E+03  0.15911368666E+03  0.40233668611E+03  0.12500000000E+03 0.  0.
         25    1    1    2    0    0 -0.13983666158E+03 -0.20745870231E+03  0.13704616077E+03  0.31144831877E+03  0.12500000000E+03 0.  0.
         25    1    1    2    0    0  0.50071286666E+02 -0.12850978011E+03  0.10606659361E+03  0.21423589711E+03  0.12500000000E+03 0.  0.
</event>
<event>
 5    0  0.5920590E-005  0.2989863E+03  0.7546771E-02  0.1085748E+00
         21   -1    0    0  502  501  0.00000000000E+00  0.00000000000E+00  0.53004246973E+02  0.53004246973E+02  0.00000000000E+00 0. -1.
         21   -1    0    0  501  502 -0.00000000000E+00 -0.00000000000E+00 -0.16865214655E+04  0.16865214655E+04  0.00000000000E+00 0. -1.
         25    1    1    2    0    0  0.14391041484E+03  0.27647228335E+02 -0.59946133701E+03  0.62964551241E+03  0.12500000000E+03 0.  0.
         25    1    1    2    0    0 -0.20321971834E+01 -0.12785363632E+03 -0.34847921627E+03  0.39168028585E+03  0.12500000000E+03 0.  0.
         25    1    1    2    0    0 -0.14187821765E+03  0.10020640799E+03 -0.68557666522E+03  0.71819991419E+03  0.12500000000E+03 0.  0.
</event>
<event>
 5    0  0.5705185E-005  0.2298663E+03  0.7546771E-02  0.1126734E+00
         21   -1    0    0  502  501  0.00000000000E+00  0.00000000000E+00  0.98377856485E+03  0.98377856485E+03  0.00000000000E+00 0.  1.
         21   -1    0    0  501  502 -0.00000000000E+00 -0.00000000000E+00 -0.53709755451E+02  0.53709755451E+02  0.00000000000E+00 0.  1.
         25    1    1    2    0    0 -0.19004697791E+02 -0.52617753980E+02  0.33725406127E+03  0.36399877530E+03  0.12500000000E+03 0.  0.
         25    1    1    2    0    0  0.58599134812E+02  0.10328086461E+03  0.39328204543E+03  0.42941420896E+03  0.12500000000E+03 0.  0.
         25    1    1    2    0    0 -0.39594437021E+02 -0.50663110632E+02  0.19953270270E+03  0.24407533605E+03  0.12500000000E+03 0.  0.
</event>
<event>
 5    0  0.5705185E-005  0.2213183E+03  0.7546771E-02  0.1132904E+00
         21   -1    0    0  502  501  0.00000000000E+00  0.00000000000E+00  0.10808614327E+03  0.10808614327E+03  0.00000000000E+00 0. -1.
         21   -1    0    0  501  502 -0.00000000000E+00 -0.00000000000E+00 -0.45317349409E+03  0.45317349409E+03  0.00000000000E+00 0. -1.
         25    1    1    2    0    0  0.53523099266E+02 -0.56561717949E+01 -0.49455062488E+02  0.14480164930E+03  0.12500000000E+03 0.  0.
         25    1    1    2    0    0 -0.20917395290E+02  0.34212398792E+02 -0.55980301494E+02  0.14271236741E+03  0.12500000000E+03 0.  0.
         25    1    1    2    0    0 -0.32605703976E+02 -0.28556226997E+02 -0.23965198684E+03  0.27374562065E+03  0.12500000000E+03 0.  0.
</event>
<event>
 5    0  0.5705185E-005  0.2296405E+03  0.7546771E-02  0.1126893E+00
         21   -1    0    0  502  501  0.00000000000E+00  0.00000000000E+00  0.22319416714E+03  0.22319416714E+03  0.00000000000E+00 0. -1.
         21   -1    0    0  501  502 -0.00000000000E+00 -0.00000000000E+00 -0.23627309957E+03  0.23627309957E+03  0.00000000000E+00 0. -1.
         25    1    1    2    0    0 -0.36763971527E+01 -0.11195913371E+03  0.53485781828E+02  0.17616495785E+03  0.12500000000E+03 0.  0.
         25    1    1    2    0    0  0.23197486496E+01  0.44742093720E+02 -0.22444037923E+02  0.13466985937E+03  0.12500000000E+03 0.  0.
         25    1    1    2    0    0  0.13566485031E+01  0.67217039990E+02 -0.44120676340E+02  0.14863244949E+03  0.12500000000E+03 0.  0.
</event>
<event>
 5    0  0.5705185E-005  0.2603248E+03  0.7546771E-02  0.1106948E+00
         21   -1    0    0  502  501  0.00000000000E+00  0.00000000000E+00  0.14682496101E+03  0.14682496101E+03  0.00000000000E+00 0.  1.
         21   -1    0    0  501  502 -0.00000000000E+00 -0.00000000000E+00 -0.46156313951E+03  0.46156313951E+03  0.00000000000E+00 0.  1.
         25    1    1    2    0    0  0.61473636528E+02 -0.73447202106E+02 -0.24463292562E+03  0.29093602009E+03  0.12500000000E+03 0.  0.
         25    1    1    2    0    0 -0.65716743006E+02 -0.48185533434E+01  0.22748586181E+02  0.14312374695E+03  0.12500000000E+03 0.  0.
         25    1    1    2    0    0  0.42431064776E+01  0.78265755449E+02 -0.92853839056E+02  0.17432833349E+03  0.12500000000E+03 0.  0.
</event>
<event>
 5    0  0.5705185E-005  0.2215299E+03  0.7546771E-02  0.1132748E+00
         21   -1    0    0  502  501  0.00000000000E+00  0.00000000000E+00  0.91671668604E+02  0.91671668604E+02  0.00000000000E+00 0. -1.
         21   -1    0    0  501  502 -0.00000000000E+00 -0.00000000000E+00 -0.53533988340E+03  0.53533988340E+03  0.00000000000E+00 0. -1.
         25    1    1    2    0    0  0.54847421689E+02 -0.42490420383E+02 -0.17681714805E+03  0.22738289147E+03  0.12500000000E+03 0.  0.
         25    1    1    2    0    0 -0.44004370233E+01  0.78655904557E+02 -0.18873431807E+03  0.23969096350E+03  0.12500000000E+03 0.  0.
         25    1    1    2    0    0 -0.50446984665E+02 -0.36165484174E+02 -0.78116748681E+02  0.15993769703E+03  0.12500000000E+03 0.  0.
</event>
<event>
 5    0  0.5705185E-005  0.2173753E+03  0.7546771E-02  0.1135855E+00
         21   -1    0    0  502  501  0.00000000000E+00  0.00000000000E+00  0.20696091288E+03  0.20696091288E+03  0.00000000000E+00 0.  1.
         21   -1    0    0  501  502 -0.00000000000E+00 -0.00000000000E+00 -0.22831365913E+03  0.22831365913E+03  0.00000000000E+00 0.  1.
         25    1    1    2    0    0 -0.23292083941E+02  0.28319736185E+01  0.65483344144E+02  0.14305107343E+03  0.12500000000E+03 0.  0.
         25    1    1    2    0    0 -0.27316054449E+01 -0.54644123913E+02 -0.70146309188E+02  0.15342407451E+03  0.12500000000E+03 0.  0.
         25    1    1    2    0    0  0.26023689385E+02  0.51812150294E+02 -0.16689781204E+02  0.13879942408E+03  0.12500000000E+03 0.  0.
</event>
<event>
 5    0  0.5705185E-005  0.3273376E+03  0.7546771E-02  0.1072321E+00
         21   -1    0    0  502  501  0.00000000000E+00  0.00000000000E+00  0.61446192145E+03  0.61446192145E+03  0.00000000000E+00 0.  1.
         21   -1    0    0  501  502 -0.00000000000E+00 -0.00000000000E+00 -0.17438000465E+03  0.17438000465E+03  0.00000000000E+00 0.  1.
         25    1    1    2    0    0  0.10930524098E+03  0.40198980865E+02  0.37146726144E+02  0.17483841978E+03  0.12500000000E+03 0.  0.
         25    1    1    2    0    0 -0.57657505087E+02 -0.19176316833E+03  0.31252641135E+03  0.39165706736E+03  0.12500000000E+03 0.  0.
         25    1    1    2    0    0 -0.51647735891E+02  0.15156418747E+03  0.90408779303E+02  0.22234643897E+03  0.12500000000E+03 0.  0.
</event>
<event>
 5    0  0.5705185E-005  0.2763076E+03  0.7546771E-02  0.1097723E+00
         21   -1    0    0  502  501  0.00000000000E+00  0.00000000000E+00  0.10936709026E+03  0.10936709026E+03  0.00000000000E+00 0.  1.
         21   -1    0    0  501  502 -0.00000000000E+00 -0.00000000000E+00 -0.69807002763E+03  0.69807002763E+03  0.00000000000E+00 0.  1.
         25    1    1    2    0    0 -0.99259478872E+02  0.67595902993E+02 -0.48501246735E+02  0.17999728104E+03  0.12500000000E+03 0.  0.
         25    1    1    2    0    0  0.89958015355E+01  0.28240058390E+02 -0.15291699584E+03  0.19971738272E+03  0.12500000000E+03 0.  0.
         25    1    1    2    0    0  0.90263677337E+02 -0.95835961383E+02 -0.38728469480E+03  0.42772245413E+03  0.12500000000E+03 0.  0.
</event>
<event>
 5    0  0.5705185E-005  0.3271642E+03  0.7546771E-02  0.1072399E+00
         21   -1    0    0  502  501  0.00000000000E+00  0.00000000000E+00  0.78068913498E+02  0.78068913498E+02  0.00000000000E+00 0.  1.
         21   -1    0    0  501  502 -0.00000000000E+00 -0.00000000000E+00 -0.13710500615E+04  0.13710500615E+04  0.00000000000E+00 0.  1.
         25    1    1    2    0    0 -0.17003939945E+03 -0.42685833993E+02 -0.72248675446E+03  0.75388831279E+03  0.12500000000E+03 0.  0.
         25    1    1    2    0    0  0.63762029980E+02 -0.10163580410E+03 -0.31081399856E+03  0.35584515571E+03  0.12500000000E+03 0.  0.
         25    1    1    2    0    0  0.10627736947E+03  0.14432163809E+03 -0.25968039498E+03  0.33938550649E+03  0.12500000000E+03 0.  0.
</event>
<event>
 5    0  0.5705185E-005  0.3151909E+03  0.7546771E-02  0.1077884E+00
         21   -1    0    0  502  501  0.00000000000E+00  0.00000000000E+00  0.85581547533E+02  0.85581547533E+02  0.00000000000E+00 0. -1.
         21   -1    0    0  501  502 -0.00000000000E+00 -0.00000000000E+00 -0.11608260062E+04  0.11608260062E+04  0.00000000000E+00 0. -1.
         25    1    1    2    0    0 -0.93102861001E+02 -0.79264340156E+02 -0.39236255291E+03  0.42956297708E+03  0.12500000000E+03 0.  0.
         25    1    1    2    0    0  0.17551145132E+03 -0.33853561322E+02 -0.53556503802E+03  0.57827782519E+03  0.12500000000E+03 0.  0.
         25    1    1    2    0    0 -0.82408590317E+02  0.11311790148E+03 -0.14731686777E+03  0.23856675150E+03  0.12500000000E+03 0.  0.
</event>
<event>
 5    0  0.5705185E-005  0.4086751E+03  0.7546771E-02  0.1040817E+00
         21   -1    0    0  502  501  0.00000000000E+00  0.00000000000E+00  0.62807569673E+03  0.62807569673E+03  0.00000000000E+00 0.  1.
         21   -1    0    0  501  502 -0.00000000000E+00 -0.00000000000E+00 -0.26591596925E+03  0.26591596925E+03  0.00000000000E+00 0.  1.
         25    1    1    2    0    0 -0.20452957426E+03 -0.15533173137E+02  0.54303864619E+02  0.24626720432E+03  0.12500000000E+03 0.  0.
         25    1    1    2    0    0  0.96859537350E+01  0.21546859930E+03  0.21179975896E+03  0.32711568730E+03  0.12500000000E+03 0.  0.
         25    1    1    2    0    0  0.19484362052E+03 -0.19993542616E+03  0.96056103903E+02  0.32060877435E+03  0.12500000000E+03 0.  0.
</event>
<event>
 5    0  0.5705185E-005  0.2072253E+03  0.7546771E-02  0.1143782E+00
         21   -1    0    0  502  501  0.00000000000E+00  0.00000000000E+00  0.12117208385E+03  0.12117208385E+03  0.00000000000E+00 0. -1.
         21   -1    0    0  501  502 -0.00000000000E+00 -0.00000000000E+00 -0.35439138973E+03  0.35439138973E+03  0.00000000000E+00 0. -1.
         25    1    1    2    0    0 -0.32953150781E+01  0.28862821705E+02 -0.64279788719E+02  0.14352983249E+03  0.12500000000E+03 0.  0.
         25    1    1    2    0    0  0.17621722387E+02 -0.70826954873E+02 -0.47883476788E+02  0.15246248714E+03  0.12500000000E+03 0.  0.
         25    1    1    2    0    0 -0.14326407309E+02  0.41964133167E+02 -0.12105604037E+03  0.17957115395E+03  0.12500000000E+03 0.  0.
</event>
<event>
 5    0  0.9350051E-005  0.1110665E+04  0.7546771E-02  0.9194859E-01
         21   -1    0    0  502  501  0.00000000000E+00  0.00000000000E+00  0.76505125790E+03  0.76505125790E+03  0.00000000000E+00 0. -1.
         21   -1    0    0  501  502 -0.00000000000E+00 -0.00000000000E+00 -0.16124103683E+04  0.16124103683E+04  0.00000000000E+00 0. -1.
         25    1    1    2    0    0  0.22715810802E+03 -0.76388015430E+02 -0.95972689018E+03  0.99706400932E+03  0.12500000000E+03 0.  0.
         25    1    1    2    0    0 -0.39701952417E+03 -0.53809351323E+03  0.23406734644E+03  0.71943147986E+03  0.12500000000E+03 0.  0.
         25    1    1    2    0    0  0.16986141615E+03  0.61448152866E+03 -0.12169956666E+03  0.66096613702E+03  0.12500000000E+03 0.  0.
</event>
<event>
 5    0  0.6301828E-005  0.3030117E+03  0.7546771E-02  0.1083745E+00
         21   -1    0    0  502  501  0.00000000000E+00  0.00000000000E+00  0.23451442570E+03  0.23451442570E+03  0.00000000000E+00 0. -1.
         21   -1    0    0  501  502 -0.00000000000E+00 -0.00000000000E+00 -0.39151578040E+03  0.39151578040E+03  0.00000000000E+00 0. -1.
         25    1    1    2    0    0 -0.60859053456E+02 -0.88873026420E+02  0.95597538806E+02  0.19069905254E+03  0.12500000000E+03 0.  0.
         25    1    1    2    0    0  0.80169650993E+02 -0.56711607565E+02 -0.14119004498E+03  0.21260999077E+03  0.12500000000E+03 0.  0.
         25    1    1    2    0    0 -0.19310597537E+02  0.14558463399E+03 -0.11140884852E+03  0.22272116280E+03  0.12500000000E+03 0.  0.
</event>
<event>
 5    0  0.5705185E-005  0.4224248E+03  0.7546771E-02  0.1036280E+00
         21   -1    0    0  502  501  0.00000000000E+00  0.00000000000E+00  0.33654092060E+03  0.33654092060E+03  0.00000000000E+00 0.  1.
         21   -1    0    0  501  502 -0.00000000000E+00 -0.00000000000E+00 -0.53022593084E+03  0.53022593084E+03  0.00000000000E+00 0.  1.
         25    1    1    2    0    0 -0.76707203498E+02  0.55159975116E+02 -0.71294833438E+02  0.17214694653E+03  0.12500000000E+03 0.  0.
         25    1    1    2    0    0  0.22182870139E+03 -0.26420720383E+03  0.37965666491E+02  0.36888997160E+03  0.12500000000E+03 0.  0.
         25    1    1    2    0    0 -0.14512149790E+03  0.20904722871E+03 -0.16035584329E+03  0.32572993332E+03  0.12500000000E+03 0.  0.
</event>
<event>
 5    0  0.5705185E-005  0.3350898E+03  0.7546771E-02  0.1068907E+00
         21   -1    0    0  502  501  0.00000000000E+00  0.00000000000E+00  0.33964002430E+03  0.33964002430E+03  0.00000000000E+00 0. -1.
         21   -1    0    0  501  502 -0.00000000000E+00 -0.00000000000E+00 -0.33060057810E+03  0.33060057810E+03  0.00000000000E+00 0. -1.
         25    1    1    2    0    0 -0.76539024247E+02  0.65026795887E+02 -0.15253133628E+02  0.16107254422E+03  0.12500000000E+03 0.  0.
         25    1    1    2    0    0 -0.89587012587E+02 -0.20620380440E+03  0.15751441764E+02  0.25771874145E+03  0.12500000000E+03 0.  0.
         25    1    1    2    0    0  0.16612603683E+03  0.14117700852E+03  0.85411380577E+01  0.25144931674E+03  0.12500000000E+03 0.  0.
</event>
<event>
 5    0  0.5705185E-005  0.2520691E+03  0.7546771E-02  0.1112004E+00
         21   -1    0    0  502  501  0.00000000000E+00  0.00000000000E+00  0.45924322009E+03  0.45924322009E+03  0.00000000000E+00 0. -1.
         21   -1    0    0  501  502 -0.00000000000E+00 -0.00000000000E+00 -0.13835549122E+03  0.13835549122E+03  0.00000000000E+00 0. -1.
         25    1    1    2    0    0 -0.33179481227E+02 -0.27215123070E+02  0.13187435703E+03  0.18670133085E+03  0.12500000000E+03 0.  0.
         25    1    1    2    0    0 -0.15917652326E+02 -0.82524082480E+02 -0.49454620070E+01  0.15070850487E+03  0.12500000000E+03 0.  0.
         25    1    1    2    0    0  0.49097133554E+02  0.10973920555E+03  0.19395883384E+03  0.26018887559E+03  0.12500000000E+03 0.  0.
</event>
<event>
 5    0  0.5705185E-005  0.3160992E+03  0.7546771E-02  0.1077459E+00
         21   -1    0    0  502  501  0.00000000000E+00  0.00000000000E+00  0.14743215793E+04  0.14743215793E+04  0.00000000000E+00 0. -1.
         21   -1    0    0  501  502 -0.00000000000E+00 -0.00000000000E+00 -0.67772686079E+02  0.67772686079E+02  0.00000000000E+00 0. -1.
         25    1    1    2    0    0  0.69990616126E+02  0.14397536841E+03  0.44704869619E+03  0.49102457150E+03  0.12500000000E+03 0.  0.
         25    1    1    2    0    0  0.83738580411E+02 -0.98247211100E+02  0.69261604578E+03  0.71554640046E+03  0.12500000000E+03 0.  0.
         25    1    1    2    0    0 -0.15372919654E+03 -0.45728157315E+02  0.26688415129E+03  0.33552329345E+03  0.12500000000E+03 0.  0.
</event>
<event>
 5    0  0.5705185E-005  0.3305219E+03  0.7546771E-02  0.1070906E+00
         21   -1    0    0  502  501  0.00000000000E+00  0.00000000000E+00  0.93390955869E+03  0.93390955869E+03  0.00000000000E+00 0.  1.
         21   -1    0    0  501  502 -0.00000000000E+00 -0.00000000000E+00 -0.11697572646E+03  0.11697572646E+03  0.00000000000E+00 0.  1.
         25    1    1    2    0    0  0.18768733606E+03  0.66209393204E+02  0.23384181245E+03  0.33153764962E+03  0.12500000000E+03 0.  0.
         25    1    1    2    0    0  0.36843558872E+02 -0.70171689586E+01  0.84977000511E+02  0.15573303794E+03  0.12500000000E+03 0.  0.
         25    1    1    2    0    0 -0.22453089493E+03 -0.59192224245E+02  0.49811501927E+03  0.56361459759E+03  0.12500000000E+03 0.  0.
</event>
<event>
 5    0  0.5705185E-005  0.6520568E+03  0.7546771E-02  0.9802927E-01
         21   -1    0    0  502  501  0.00000000000E+00  0.00000000000E+00  0.37594891406E+03  0.37594891406E+03  0.00000000000E+00 0.  1.
         21   -1    0    0  501  502 -0.00000000000E+00 -0.00000000000E+00 -0.11309462500E+04  0.11309462500E+04  0.00000000000E+00 0.  1.
         25    1    1    2    0    0 -0.70183935123E+02 -0.36011614790E+03 -0.43057866118E+02  0.38998513377E+03  0.12500000000E+03 0.  0.
         25    1    1    2    0    0  0.13685977881E+02  0.33204660939E+03 -0.84944408672E+03  0.92066416964E+03  0.12500000000E+03 0.  0.
         25    1    1    2    0    0  0.56497957241E+02  0.28069538504E+02  0.13750461689E+03  0.19624586067E+03  0.12500000000E+03 0.  0.
</event>
<event>
 5    0  0.5705185E-005  0.3296996E+03  0.7546771E-02  0.1071270E+00
         21   -1    0    0  502  501  0.00000000000E+00  0.00000000000E+00  0.14469282021E+04  0.14469282021E+04  0.00000000000E+00 0. -1.
         21   -1    0    0  501  502 -0.00000000000E+00 -0.00000000000E+00 -0.75125920555E+02  0.75125920555E+02  0.00000000000E+00 0. -1.
         25    1    1    2    0    0 -0.26624400086E+02 -0.44690620343E+02  0.71620438872E+03  0.72888945434E+03  0.12500000000E+03 0.  0.
         25    1    1    2    0    0  0.12103140391E+03  0.16376233661E+03  0.27198228891E+03  0.36203048091E+03  0.12500000000E+03 0.  0.
         25    1    1    2    0    0 -0.94407003821E+02 -0.11907171626E+03  0.38361560387E+03  0.43113418737E+03  0.12500000000E+03 0.  0.
</event>
<event>
 5    0  0.5705185E-005  0.2919283E+03  0.7546771E-02  0.1089347E+00
         21   -1    0    0  502  501  0.00000000000E+00  0.00000000000E+00  0.28060680033E+03  0.28060680033E+03  0.00000000000E+00 0.  1.
         21   -1    0    0  501  502 -0.00000000000E+00 -0.00000000000E+00 -0.30370649977E+03  0.30370649977E+03  0.00000000000E+00 0.  1.
         25    1    1    2    0    0 -0.10424960168E+03  0.11409238495E+03 -0.36535682381E+02  0.20210123167E+03  0.12500000000E+03 0.  0.
         25    1    1    2    0    0  0.72411854038E+02 -0.14151189269E+03 -0.83254122369E+02  0.21869005755E+03  0.12500000000E+03 0.  0.
         25    1    1    2    0    0  0.31837747644E+02  0.27419507738E+02  0.96690105306E+02  0.16352201088E+03  0.12500000000E+03 0.  0.
</event>
<event>
 5    0  0.6251200E-005  0.2828655E+03  0.7546771E-02  0.1094134E+00
         21   -1    0    0  502  501  0.00000000000E+00  0.00000000000E+00  0.65209296905E+02  0.65209296905E+02  0.00000000000E+00 0. -1.
         21   -1    0    0  501  502 -0.00000000000E+00 -0.00000000000E+00 -0.12270167636E+04  0.12270167636E+04  0.00000000000E+00 0. -1.
         25    1    1    2    0    0  0.10935527986E+03 -0.16409939122E+03 -0.47913554289E+03  0.53299442388E+03  0.12500000000E+03 0.  0.
         25    1    1    2    0    0 -0.25969242924E+02  0.11521874870E+03 -0.31133987805E+03  0.35567862080E+03  0.12500000000E+03 0.  0.
         25    1    1    2    0    0 -0.83386036939E+02  0.48880642522E+02 -0.37133204575E+03  0.40355301581E+03  0.12500000000E+03 0.  0.
</event>
<event>
 5    0  0.5705185E-005  0.4147365E+03  0.7546771E-02  0.1038793E+00
         21   -1    0    0  502  501  0.00000000000E+00  0.00000000000E+00  0.31530531637E+03  0.31530531637E+03  0.00000000000E+00 0.  1.
         21   -1    0    0  501  502 -0.00000000000E+00 -0.00000000000E+00 -0.54552312013E+03  0.54552312013E+03  0.00000000000E+00 0.  1.
         25    1    1    2    0    0 -0.18721691667E+03  0.24746475936E+03 -0.10681249976E+03  0.35117359114E+03  0.12500000000E+03 0.  0.
         25    1    1    2    0    0  0.21722358948E+01 -0.10149569554E+03  0.74549560749E+02  0.17745064618E+03  0.12500000000E+03 0.  0.
         25    1    1    2    0    0  0.18504468078E+03 -0.14596906381E+03 -0.19795486476E+03  0.33220419918E+03  0.12500000000E+03 0.  0.
</event>
<event>
 5    0  0.6854951E-005  0.2421566E+03  0.7546771E-02  0.1118364E+00
         21   -1    0    0  502  501  0.00000000000E+00  0.00000000000E+00  0.29189740431E+03  0.29189740431E+03  0.00000000000E+00 0.  1.
         21   -1    0    0  501  502 -0.00000000000E+00 -0.00000000000E+00 -0.20089183342E+03  0.20089183342E+03  0.00000000000E+00 0.  1.
         25    1    1    2    0    0 -0.49930589955E+02  0.55778073394E+02  0.60187632712E+02  0.15764456355E+03  0.12500000000E+03 0.  0.
         25    1    1    2    0    0 -0.27404207863E+01  0.66202412948E+02  0.53631680924E+02  0.15129979043E+03  0.12500000000E+03 0.  0.
         25    1    1    2    0    0  0.52671010741E+02 -0.12198048634E+03 -0.22813742749E+02  0.18384488374E+03  0.12500000000E+03 0.  0.
</event>
<event>
 5    0  0.5705185E-005  0.2556663E+03  0.7546771E-02  0.1109775E+00
         21   -1    0    0  502  501  0.00000000000E+00  0.00000000000E+00  0.75929868064E+02  0.75929868064E+02  0.00000000000E+00 0. -1.
         21   -1    0    0  501  502 -0.00000000000E+00 -0.00000000000E+00 -0.86086355498E+03  0.86086355498E+03  0.00000000000E+00 0. -1.
         25    1    1    2    0    0  0.10430725074E+02 -0.17906802347E+02 -0.11164908465E+03  0.16887857087E+03  0.12500000000E+03 0.  0.
         25    1    1    2    0    0 -0.38379642170E+02 -0.93854414618E+02 -0.49959373723E+03  0.52488146315E+03  0.12500000000E+03 0.  0.
         25    1    1    2    0    0  0.27948917096E+02  0.11176121696E+03 -0.17369086503E+03  0.24303338902E+03  0.12500000000E+03 0.  0.
</event>
<event>
 5    0  0.5705185E-005  0.3005006E+03  0.7546771E-02  0.1084991E+00
         21   -1    0    0  502  501  0.00000000000E+00  0.00000000000E+00  0.60536706660E+03  0.60536706660E+03  0.00000000000E+00 0. -1.
         21   -1    0    0  501  502 -0.00000000000E+00 -0.00000000000E+00 -0.14916675084E+03  0.14916675084E+03  0.00000000000E+00 0. -1.
         25    1    1    2    0    0 -0.48491785115E+01  0.24903906902E+02  0.14870534244E+03  0.19591324095E+03  0.12500000000E+03 0.  0.
         25    1    1    2    0    0 -0.28805447960E+02 -0.20559033867E+03  0.18464720597E+03  0.30465838550E+03  0.12500000000E+03 0.  0.
         25    1    1    2    0    0  0.33654626472E+02  0.18068643177E+03  0.12284776735E+03  0.25396219099E+03  0.12500000000E+03 0.  0.
</event>
<event>
 5    0  0.5705185E-005  0.2716005E+03  0.7546771E-02  0.1100367E+00
         21   -1    0    0  502  501  0.00000000000E+00  0.00000000000E+00  0.21414820814E+03  0.21414820814E+03  0.00000000000E+00 0.  1.
         21   -1    0    0  501  502 -0.00000000000E+00 -0.00000000000E+00 -0.34446612974E+03  0.34446612974E+03  0.00000000000E+00 0.  1.
         25    1    1    2    0    0 -0.15146795207E+03  0.85840960921E+01 -0.41814944964E+02  0.20097193046E+03  0.12500000000E+03 0.  0.
         25    1    1    2    0    0  0.86644879411E+02  0.16236600037E+02 -0.13832880694E+03  0.20623001997E+03  0.12500000000E+03 0.  0.
         25    1    1    2    0    0  0.64823072660E+02 -0.24820696129E+02  0.49825830301E+02  0.15141238744E+03  0.12500000000E+03 0.  0.
</event>
<event>
 5    0  0.5705185E-005  0.4696711E+03  0.7546771E-02  0.1022013E+00
         21   -1    0    0  502  501  0.00000000000E+00  0.00000000000E+00  0.23897930968E+04  0.23897930968E+04  0.00000000000E+00 0. -1.
         21   -1    0    0  501  502 -0.00000000000E+00 -0.00000000000E+00 -0.92305469573E+02  0.92305469573E+02  0.00000000000E+00 0. -1.
         25    1    1    2    0    0  0.21694230577E+03 -0.77939793134E+02  0.48795254033E+03  0.55395059076E+03  0.12500000000E+03 0.  0.
         25    1    1    2    0    0  0.80672187268E+02 -0.18302184695E+03  0.47143790150E+03  0.52714674734E+03  0.12500000000E+03 0.  0.
         25    1    1    2    0    0 -0.29761449304E+03  0.26096164008E+03  0.13380971854E+04  0.14010012283E+04  0.12500000000E+03 0.  0.
</event>
<event>
 5    0  0.5789611E-005  0.4466995E+03  0.7546771E-02  0.1028711E+00
         21   -1    0    0  502  501  0.00000000000E+00  0.00000000000E+00  0.23040931407E+03  0.23040931407E+03  0.00000000000E+00 0. -1.
         21   -1    0    0  501  502 -0.00000000000E+00 -0.00000000000E+00 -0.86602587835E+03  0.86602587835E+03  0.00000000000E+00 0. -1.
         25    1    1    2    0    0  0.94815100707E+02 -0.10568289748E+03 -0.40825865913E+03  0.44995434312E+03  0.12500000000E+03 0.  0.
         25    1    1    2    0    0  0.50272223266E+02  0.30052270765E+03 -0.94143144363E+02  0.34253339381E+03  0.12500000000E+03 0.  0.
         25    1    1    2    0    0 -0.14508732397E+03 -0.19483981017E+03 -0.13321476079E+03  0.30394745549E+03  0.12500000000E+03 0.  0.
</event>
<event>
 5    0  0.5705185E-005  0.2714348E+03  0.7546771E-02  0.1100461E+00
         21   -1    0    0  502  501  0.00000000000E+00  0.00000000000E+00  0.10323543426E+03  0.10323543426E+03  0.00000000000E+00 0. -1.
         21   -1    0    0  501  502 -0.00000000000E+00 -0.00000000000E+00 -0.71367799347E+03  0.71367799347E+03  0.00000000000E+00 0. -1.
         25    1    1    2    0    0  0.10269649995E+03  0.66493683822E+02 -0.31434580381E+03  0.35973082362E+03  0.12500000000E+03 0.  0.
         25    1    1    2    0    0 -0.71811905447E+02 -0.13193863770E+01 -0.27612344436E+03  0.31149293261E+03  0.12500000000E+03 0.  0.
         25    1    1    2    0    0 -0.30884594504E+02 -0.65174297445E+02 -0.19973311047E+02  0.14568967149E+03  0.12500000000E+03 0.  0.
</event>
<event>
 5    0  0.5705185E-005  0.3505535E+03  0.7546771E-02  0.1062388E+00
         21   -1    0    0  502  501  0.00000000000E+00  0.00000000000E+00  0.87969600555E+03  0.87969600555E+03  0.00000000000E+00 0.  1.
         21   -1    0    0  501  502 -0.00000000000E+00 -0.00000000000E+00 -0.13969344790E+03  0.13969344790E+03  0.00000000000E+00 0.  1.
         25    1    1    2    0    0 -0.18439710779E+03  0.41428590122E+02  0.24921512967E+03  0.33682607129E+03  0.12500000000E+03 0.  0.
         25    1    1    2    0    0  0.69710747081E+02  0.14751462074E+03  0.13671848120E+03  0.24685439978E+03  0.12500000000E+03 0.  0.
         25    1    1    2    0    0  0.11468636071E+03 -0.18894321086E+03  0.35406894678E+03  0.43570898239E+03  0.12500000000E+03 0.  0.
</event>
<event>
 5    0  0.5705185E-005  0.2855630E+03  0.7546771E-02  0.1092689E+00
         21   -1    0    0  502  501  0.00000000000E+00  0.00000000000E+00  0.65391053814E+03  0.65391053814E+03  0.00000000000E+00 0. -1.
         21   -1    0    0  501  502 -0.00000000000E+00 -0.00000000000E+00 -0.12470543660E+03  0.12470543660E+03  0.00000000000E+00 0. -1.
         25    1    1    2    0    0  0.15964775261E+03  0.11018412932E+02  0.17024707862E+03  0.26498656214E+03  0.12500000000E+03 0.  0.
         25    1    1    2    0    0  0.27329903518E+02  0.39696757615E+02  0.10187276448E+03  0.16830275201E+03  0.12500000000E+03 0.  0.
         25    1    1    2    0    0 -0.18697765612E+03 -0.50715170546E+02  0.25708525843E+03  0.34532666059E+03  0.12500000000E+03 0.  0.
</event>
<event>
 5    0  0.5705185E-005  0.3189069E+03  0.7546771E-02  0.1076153E+00
         21   -1    0    0  502  501  0.00000000000E+00  0.00000000000E+00  0.10429755352E+04  0.10429755352E+04  0.00000000000E+00 0. -1.
         21   -1    0    0  501  502 -0.00000000000E+00 -0.00000000000E+00 -0.97511050137E+02  0.97511050137E+02  0.00000000000E+00 0. -1.
         25    1    1    2    0    0  0.88877795254E+02  0.17250548131E+03  0.43827224389E+03  0.49534327828E+03  0.12500000000E+03 0.  0.
         25    1    1    2    0    0 -0.81850738751E+02 -0.62218455730E+02  0.43353551044E+03  0.46276205385E+03  0.12500000000E+03 0.  0.
         25    1    1    2    0    0 -0.70270565031E+01 -0.11028702558E+03  0.73656730704E+02  0.18238125318E+03  0.12500000000E+03 0.  0.
</event>
<event>
 5    0  0.5705185E-005  0.2293086E+03  0.7546771E-02  0.1127127E+00
         21   -1    0    0  502  501  0.00000000000E+00  0.00000000000E+00  0.28344067245E+04  0.28344067245E+04  0.00000000000E+00 0. -1.
         21   -1    0    0  501  502 -0.00000000000E+00 -0.00000000000E+00 -0.18551477119E+02  0.18551477119E+02  0.00000000000E+00 0. -1.
         25    1    1    2    0    0 -0.32191344055E+02  0.51834767824E+02  0.67813986939E+03  0.69225848370E+03  0.12500000000E+03 0.  0.
         25    1    1    2    0    0 -0.47805132031E+01 -0.91433252103E+01  0.44215900302E+03  0.45960421849E+03  0.12500000000E+03 0.  0.
         25    1    1    2    0    0  0.36971857258E+02 -0.42691442614E+02  0.16955563750E+04  0.17010954994E+04  0.12500000000E+03 0.  0.
</event>
<event>
 5    0  0.5705185E-005  0.2632339E+03  0.7546771E-02  0.1105216E+00
         21   -1    0    0  502  501  0.00000000000E+00  0.00000000000E+00  0.14890320673E+03  0.14890320673E+03  0.00000000000E+00 0. -1.
         21   -1    0    0  501  502 -0.00000000000E+00 -0.00000000000E+00 -0.46534997276E+03  0.46534997276E+03  0.00000000000E+00 0. -1.
         25    1    1    2    0    0 -0.74060661388E+02  0.30759848960E+02 -0.56090071698E+02  0.15875215279E+03  0.12500000000E+03 0.  0.
         25    1    1    2    0    0  0.24759749286E+02 -0.26950433886E+02 -0.28994686207E+03  0.31785775733E+03  0.12500000000E+03 0.  0.
         25    1    1    2    0    0  0.49300912102E+02 -0.38094150746E+01  0.29590167738E+02  0.13764326937E+03  0.12500000000E+03 0.  0.
</event>
<event>
 5    0  0.5705185E-005  0.2786813E+03  0.7546771E-02  0.1096411E+00
         21   -1    0    0  502  501  0.00000000000E+00  0.00000000000E+00  0.10377123085E+03  0.10377123085E+03  0.00000000000E+00 0. -1.
         21   -1    0    0  501  502 -0.00000000000E+00 -0.00000000000E+00 -0.74840854314E+03  0.74840854314E+03  0.00000000000E+00 0. -1.
         25    1    1    2    0    0 -0.11357499726E+03 -0.12035743699E+03 -0.25760820575E+03  0.33071465089E+03  0.12500000000E+03 0.  0.
         25    1    1    2    0    0  0.92228888108E+02 -0.18515531969E+02 -0.21991895966E+03  0.26988579352E+03  0.12500000000E+03 0.  0.
         25    1    1    2    0    0  0.21346109155E+02  0.13887296896E+03 -0.16711014688E+03  0.25157932959E+03  0.12500000000E+03 0.  0.
</event>
<event>
 5    0  0.5705185E-005  0.2530466E+03  0.7546771E-02  0.1111394E+00
         21   -1    0    0  502  501  0.00000000000E+00  0.00000000000E+00  0.32028447502E+02  0.32028447502E+02  0.00000000000E+00 0.  1.
         21   -1    0    0  501  502 -0.00000000000E+00 -0.00000000000E+00 -0.19992403091E+04  0.19992403091E+04  0.00000000000E+00 0.  1.
         25    1    1    2    0    0  0.83240580744E+02  0.28922181385E+02 -0.89627470480E+03  0.90922980226E+03  0.12500000000E+03 0.  0.
         25    1    1    2    0    0  0.46025267504E+01 -0.63120971577E+02 -0.77174628678E+03  0.78436137811E+03  0.12500000000E+03 0.  0.
         25    1    1    2    0    0 -0.87843107495E+02  0.34198790191E+02 -0.29919086997E+03  0.33767757619E+03  0.12500000000E+03 0.  0.
</event>
<event>
 5    0  0.5705185E-005  0.9511898E+03  0.7546771E-02  0.9363761E-01
         21   -1    0    0  502  501  0.00000000000E+00  0.00000000000E+00  0.27990653527E+03  0.27990653527E+03  0.00000000000E+00 0.  1.
         21   -1    0    0  501  502 -0.00000000000E+00 -0.00000000000E+00 -0.32323716774E+04  0.32323716774E+04  0.00000000000E+00 0.  1.
         25    1    1    2    0    0 -0.47810949593E+03  0.57994782564E+02 -0.28463182164E+02  0.49838462821E+03  0.12500000000E+03 0.  0.
         25    1    1    2    0    0 -0.44270159820E+01  0.64922006804E+02 -0.13711753221E+04  0.13783980663E+04  0.12500000000E+03 0.  0.
         25    1    1    2    0    0  0.48253651191E+03 -0.12291678937E+03 -0.15528266379E+04  0.16354955181E+04  0.12500000000E+03 0.  0.
</event>
<event>
 5    0  0.5705185E-005  0.2355498E+03  0.7546771E-02  0.1122793E+00
         21   -1    0    0  502  501  0.00000000000E+00  0.00000000000E+00  0.84399418516E+02  0.84399418516E+02  0.00000000000E+00 0.  1.
         21   -1    0    0  501  502 -0.00000000000E+00 -0.00000000000E+00 -0.65739471680E+03  0.65739471680E+03  0.00000000000E+00 0.  1.
         25    1    1    2    0    0  0.86770421605E+02  0.43627849033E+02 -0.10646038208E+03  0.19076506029E+03  0.12500000000E+03 0.  0.
         25    1    1    2    0    0 -0.77566945766E+02  0.10403385663E+02 -0.31035607025E+03  0.34361424861E+03  0.12500000000E+03 0.  0.
         25    1    1    2    0    0 -0.92034758390E+01 -0.54031234696E+02 -0.15617884596E+03  0.20741482641E+03  0.12500000000E+03 0.  0.
</event>
<event>
 5    0  0.5705185E-005  0.3437182E+03  0.7546771E-02  0.1065223E+00
         21   -1    0    0  502  501  0.00000000000E+00  0.00000000000E+00  0.19602308012E+03  0.19602308012E+03  0.00000000000E+00 0. -1.
         21   -1    0    0  501  502 -0.00000000000E+00 -0.00000000000E+00 -0.60269550601E+03  0.60269550601E+03  0.00000000000E+00 0. -1.
         25    1    1    2    0    0 -0.22230021751E+02 -0.46487874171E+02 -0.16871282107E+03  0.21620432999E+03  0.12500000000E+03 0.  0.
         25    1    1    2    0    0  0.19960592189E+02 -0.20610126581E+03 -0.16032455361E+03  0.29018118391E+03  0.12500000000E+03 0.  0.
         25    1    1    2    0    0  0.22694295628E+01  0.25258913998E+03 -0.77635051208E+02  0.29233307223E+03  0.12500000000E+03 0.  0.
</event>
<event>
 5    0  0.5705185E-005  0.3338477E+03  0.7546771E-02  0.1069447E+00
         21   -1    0    0  502  501  0.00000000000E+00  0.00000000000E+00  0.17263976957E+03  0.17263976957E+03  0.00000000000E+00 0. -1.
         21   -1    0    0  501  502 -0.00000000000E+00 -0.00000000000E+00 -0.64558863801E+03  0.64558863801E+03  0.00000000000E+00 0. -1.
         25    1    1    2    0    0  0.15693554572E+03  0.13674924519E+02 -0.46804795297E+02  0.20647386743E+03  0.12500000000E+03 0.  0.
         25    1    1    2    0    0 -0.30005226324E+02 -0.12463533867E+03 -0.34122388036E+03  0.38534791783E+03  0.12500000000E+03 0.  0.
         25    1    1    2    0    0 -0.12693031939E+03  0.11096041415E+03 -0.84920192786E+02  0.22640662232E+03  0.12500000000E+03 0.  0.
</event>
<event>
 5    0  0.5705185E-005  0.2193965E+03  0.7546771E-02  0.1134334E+00
         21   -1    0    0  502  501  0.00000000000E+00  0.00000000000E+00  0.28886693781E+02  0.28886693781E+02  0.00000000000E+00 0. -1.
         21   -1    0    0  501  502 -0.00000000000E+00 -0.00000000000E+00 -0.16663325041E+04  0.16663325041E+04  0.00000000000E+00 0. -1.
         25    1    1    2    0    0  0.36722357265E+02  0.11774266568E+02 -0.56033005730E+03  0.57539720019E+03  0.12500000000E+03 0.  0.
         25    1    1    2    0    0  0.75854710768E+01  0.72789325181E+02 -0.60899206300E+03  0.62598095660E+03  0.12500000000E+03 0.  0.
         25    1    1    2    0    0 -0.44307828342E+02 -0.84563591749E+02 -0.46812368997E+03  0.49384104104E+03  0.12500000000E+03 0.  0.
</event>
<event>
 5    0  0.5705185E-005  0.2819180E+03  0.7546771E-02  0.1094646E+00
         21   -1    0    0  502  501  0.00000000000E+00  0.00000000000E+00  0.60242230046E+03  0.60242230046E+03  0.00000000000E+00 0.  1.
         21   -1    0    0  501  502 -0.00000000000E+00 -0.00000000000E+00 -0.13193031231E+03  0.13193031231E+03  0.00000000000E+00 0.  1.
         25    1    1    2    0    0 -0.55978133470E+01  0.31206805210E+01  0.16288486925E+02  0.12621960611E+03  0.12500000000E+03 0.  0.
         25    1    1    2    0    0  0.14191666039E+03 -0.72550097409E+02  0.27395081676E+03  0.34070207680E+03  0.12500000000E+03 0.  0.
         25    1    1    2    0    0 -0.13631884704E+03  0.69429416888E+02  0.18025268447E+03  0.26743092986E+03  0.12500000000E+03 0.  0.
</event>
<event>
 5    0  0.5705185E-005  0.4819647E+03  0.7546771E-02  0.1018597E+00
         21   -1    0    0  502  501  0.00000000000E+00  0.00000000000E+00  0.15715216454E+04  0.15715216454E+04  0.00000000000E+00 0. -1.
         21   -1    0    0  501  502 -0.00000000000E+00 -0.00000000000E+00 -0.14781211543E+03  0.14781211543E+03  0.00000000000E+00 0. -1.
         25    1    1    2    0    0 -0.26075475076E+02 -0.85239001312E+02  0.35020063354E+03  0.38237560262E+03  0.12500000000E+03 0.  0.
         25    1    1    2    0    0 -0.41465985173E+02  0.29926090438E+03  0.11812851911E+03  0.34764329972E+03  0.12500000000E+03 0.  0.
         25    1    1    2    0    0  0.67541460250E+02 -0.21402190306E+03  0.95538037735E+03  0.98931485851E+03  0.12500000000E+03 0.  0.
</event>
<event>
 5    0  0.5705185E-005  0.2538182E+03  0.7546771E-02  0.1110915E+00
         21   -1    0    0  502  501  0.00000000000E+00  0.00000000000E+00  0.11487219370E+04  0.11487219370E+04  0.00000000000E+00 0.  1.
         21   -1    0    0  501  502 -0.00000000000E+00 -0.00000000000E+00 -0.56082899608E+02  0.56082899608E+02  0.00000000000E+00 0.  1.
         25    1    1    2    0    0 -0.45729882151E+02 -0.32989160487E+02  0.18788037517E+03  0.23260168144E+03  0.12500000000E+03 0.  0.
         25    1    1    2    0    0 -0.10998556242E+01 -0.77037205316E+02  0.21007308813E+03  0.25630381004E+03  0.12500000000E+03 0.  0.
         25    1    1    2    0    0  0.46829737775E+02  0.11002636580E+03  0.69468557406E+03  0.71589934510E+03  0.12500000000E+03 0.  0.
</event>
<event>
 5    0  0.6026136E-005  0.3488853E+03  0.7546771E-02  0.1063073E+00
         21   -1    0    0  502  501  0.00000000000E+00  0.00000000000E+00  0.10993984421E+03  0.10993984421E+03  0.00000000000E+00 0. -1.
         21   -1    0    0  501  502 -0.00000000000E+00 -0.00000000000E+00 -0.11071595528E+04  0.11071595528E+04  0.00000000000E+00 0. -1.
         25    1    1    2    0    0  0.11611972985E+03 -0.13614625707E+02 -0.80454594622E+02  0.18912189585E+03  0.12500000000E+03 0.  0.
         25    1    1    2    0    0 -0.45316778142E+02  0.16150149668E+03 -0.69220125506E+03  0.72312095898E+03  0.12500000000E+03 0.  0.
         25    1    1    2    0    0 -0.70802951711E+02 -0.14788687097E+03 -0.22456385888E+03  0.30485654215E+03  0.12500000000E+03 0.  0.
</event>
<event>
 5    0  0.5705185E-005  0.2854008E+03  0.7546771E-02  0.1092775E+00
         21   -1    0    0  502  501  0.00000000000E+00  0.00000000000E+00  0.65412114828E+03  0.65412114828E+03  0.00000000000E+00 0. -1.
         21   -1    0    0  501  502 -0.00000000000E+00 -0.00000000000E+00 -0.12452376389E+03  0.12452376389E+03  0.00000000000E+00 0. -1.
         25    1    1    2    0    0  0.20634878957E+01 -0.14274458806E+02  0.17552834039E+03  0.21597040639E+03  0.12500000000E+03 0.  0.
         25    1    1    2    0    0 -0.58200904629E+02 -0.54634750073E+02  0.37927128507E+03  0.40723949820E+03  0.12500000000E+03 0.  0.
         25    1    1    2    0    0  0.56137416734E+02  0.68909208878E+02 -0.25202241075E+02  0.15543500758E+03  0.12500000000E+03 0.  0.
</event>
<event>
 5    0  0.5705185E-005  0.2954942E+03  0.7546771E-02  0.1087515E+00
         21   -1    0    0  502  501  0.00000000000E+00  0.00000000000E+00  0.22291457493E+03  0.22291457493E+03  0.00000000000E+00 0. -1.
         21   -1    0    0  501  502 -0.00000000000E+00 -0.00000000000E+00 -0.39170519758E+03  0.39170519758E+03  0.00000000000E+00 0. -1.
         25    1    1    2    0    0 -0.51305697334E+02  0.10941219880E+02 -0.17246711770E+02  0.13665443256E+03  0.12500000000E+03 0.  0.
         25    1    1    2    0    0  0.22137342660E+02  0.14762329316E+03 -0.18808834948E+03  0.27071188713E+03  0.12500000000E+03 0.  0.
         25    1    1    2    0    0  0.29168354673E+02 -0.15856451304E+03  0.36544438611E+02  0.20725345281E+03  0.12500000000E+03 0.  0.
</event>
<event>
 5    0  0.5883997E-005  0.2685985E+03  0.7546771E-02  0.1102084E+00
         21   -1    0    0  502  501  0.00000000000E+00  0.00000000000E+00  0.43974876387E+03  0.43974876387E+03  0.00000000000E+00 0.  1.
         21   -1    0    0  501  502 -0.00000000000E+00 -0.00000000000E+00 -0.16405989949E+03  0.16405989949E+03  0.00000000000E+00 0.  1.
         25    1    1    2    0    0 -0.83759440387E+02 -0.18517949140E+02  0.28407263162E+02  0.15424179361E+03  0.12500000000E+03 0.  0.
         25    1    1    2    0    0  0.11372245187E+03  0.11995332784E+03  0.10344187835E+03  0.23161782988E+03  0.12500000000E+03 0.  0.
         25    1    1    2    0    0 -0.29963011486E+02 -0.10143537870E+03  0.14383972286E+03  0.21794903988E+03  0.12500000000E+03 0.  0.
</event>
<event>
 5    0  0.5705185E-005  0.2680492E+03  0.7546771E-02  0.1102401E+00
         21   -1    0    0  502  501  0.00000000000E+00  0.00000000000E+00  0.57145705968E+03  0.57145705968E+03  0.00000000000E+00 0.  1.
         21   -1    0    0  501  502 -0.00000000000E+00 -0.00000000000E+00 -0.12573192263E+03  0.12573192263E+03  0.00000000000E+00 0.  1.
         25    1    1    2    0    0  0.44914782086E+02  0.15833203335E+03  0.21887085023E+03  0.30102461612E+03  0.12500000000E+03 0.  0.
         25    1    1    2    0    0  0.29472661115E+02 -0.67687835009E+02  0.14863481371E+03  0.20776811258E+03  0.12500000000E+03 0.  0.
         25    1    1    2    0    0 -0.74387443201E+02 -0.90644198337E+02  0.78219473122E+02  0.18839625361E+03  0.12500000000E+03 0.  0.
</event>
<event>
 5    0  0.5705185E-005  0.2754117E+03  0.7546771E-02  0.1098222E+00
         21   -1    0    0  502  501  0.00000000000E+00  0.00000000000E+00  0.30103549884E+03  0.30103549884E+03  0.00000000000E+00 0. -1.
         21   -1    0    0  501  502 -0.00000000000E+00 -0.00000000000E+00 -0.25196893808E+03  0.25196893808E+03  0.00000000000E+00 0. -1.
         25    1    1    2    0    0  0.21570749445E+02 -0.55302153444E+02 -0.32532694649E+02  0.14215133354E+03  0.12500000000E+03 0.  0.
         25    1    1    2    0    0  0.40297656372E+02 -0.12007989521E+03  0.24688550374E+02  0.17965969738E+03  0.12500000000E+03 0.  0.
         25    1    1    2    0    0 -0.61868405817E+02  0.17538204866E+03  0.56910705040E+02  0.23119340600E+03  0.12500000000E+03 0.  0.
</event>
<event>
 5    0  0.5705185E-005  0.3209912E+03  0.7546771E-02  0.1075194E+00
         21   -1    0    0  502  501  0.00000000000E+00  0.00000000000E+00  0.50606400125E+03  0.50606400125E+03  0.00000000000E+00 0. -1.
         21   -1    0    0  501  502 -0.00000000000E+00 -0.00000000000E+00 -0.20360138546E+03  0.20360138546E+03  0.00000000000E+00 0. -1.
         25    1    1    2    0    0  0.34312323450E+02  0.11285516433E+03  0.15461015047E+03  0.23117725296E+03  0.12500000000E+03 0.  0.
         25    1    1    2    0    0 -0.91346580241E+02  0.62448863469E+02 -0.56472235589E+02  0.17623328761E+03  0.12500000000E+03 0.  0.
         25    1    1    2    0    0  0.57034256791E+02 -0.17530402780E+03  0.20432470091E+03  0.30225484613E+03  0.12500000000E+03 0.  0.
</event>
<event>
 5    0  0.5705185E-005  0.2920853E+03  0.7546771E-02  0.1089265E+00
         21   -1    0    0  502  501  0.00000000000E+00  0.00000000000E+00  0.18361199176E+03  0.18361199176E+03  0.00000000000E+00 0. -1.
         21   -1    0    0  501  502 -0.00000000000E+00 -0.00000000000E+00 -0.46464191362E+03  0.46464191362E+03  0.00000000000E+00 0. -1.
         25    1    1    2    0    0 -0.10423577433E+03  0.91190299733E+02  0.23429660276E+02  0.18802849889E+03  0.12500000000E+03 0.  0.
         25    1    1    2    0    0  0.22107684401E+02 -0.13760734483E+03 -0.18561242795E+03  0.26363137991E+03  0.12500000000E+03 0.  0.
         25    1    1    2    0    0  0.82128089930E+02  0.46417045093E+02 -0.11884715418E+03  0.19659402658E+03  0.12500000000E+03 0.  0.
</event>
<event>
 5    0  0.5705185E-005  0.2751863E+03  0.7546771E-02  0.1098348E+00
         21   -1    0    0  502  501  0.00000000000E+00  0.00000000000E+00  0.10606707027E+03  0.10606707027E+03  0.00000000000E+00 0.  1.
         21   -1    0    0  501  502 -0.00000000000E+00 -0.00000000000E+00 -0.71395842627E+03  0.71395842627E+03  0.00000000000E+00 0.  1.
         25    1    1    2    0    0 -0.24118950726E+02 -0.39592655840E+02 -0.14043923486E+03  0.19364266283E+03  0.12500000000E+03 0.  0.
         25    1    1    2    0    0  0.12271848261E+03  0.12673395023E+03 -0.15856807941E+03  0.26812339683E+03  0.12500000000E+03 0.  0.
         25    1    1    2    0    0 -0.98599531887E+02 -0.87141294393E+02 -0.30888404174E+03  0.35825943688E+03  0.12500000000E+03 0.  0.
</event>
<event>
 5    0  0.6318185E-005  0.2793628E+03  0.7546771E-02  0.1096037E+00
         21   -1    0    0  502  501  0.00000000000E+00  0.00000000000E+00  0.73151428685E+03  0.73151428685E+03  0.00000000000E+00 0.  1.
         21   -1    0    0  501  502 -0.00000000000E+00 -0.00000000000E+00 -0.10668772977E+03  0.10668772977E+03  0.00000000000E+00 0.  1.
         25    1    1    2    0    0 -0.78634679011E+02  0.59345178701E+02  0.19193602657E+03  0.24933852746E+03  0.12500000000E+03 0.  0.
         25    1    1    2    0    0  0.10612312816E+03 -0.13397013889E+02  0.34761626882E+02  0.16815162507E+03  0.12500000000E+03 0.  0.
         25    1    1    2    0    0 -0.27488449149E+02 -0.45948164812E+02  0.39812890362E+03  0.42071186409E+03  0.12500000000E+03 0.  0.
</event>
<event>
 5    0  0.5705185E-005  0.4542619E+03  0.7546771E-02  0.1026459E+00
         21   -1    0    0  502  501  0.00000000000E+00  0.00000000000E+00  0.90128165500E+03  0.90128165500E+03  0.00000000000E+00 0.  1.
         21   -1    0    0  501  502 -0.00000000000E+00 -0.00000000000E+00 -0.22895608293E+03  0.22895608293E+03  0.00000000000E+00 0.  1.
         25    1    1    2    0    0 -0.11154400011E+02  0.12493270118E+03  0.87404347525E+02  0.19747688581E+03  0.12500000000E+03 0.  0.
         25    1    1    2    0    0  0.36318193539E+02  0.22360288991E+03  0.48293421451E+03  0.54787564200E+03  0.12500000000E+03 0.  0.
         25    1    1    2    0    0 -0.25163793528E+02 -0.34853559108E+03  0.10198701004E+03  0.38488521012E+03  0.12500000000E+03 0.  0.
</event>
<event>
 5    0  0.5705185E-005  0.2356469E+03  0.7546771E-02  0.1122727E+00
         21   -1    0    0  502  501  0.00000000000E+00  0.00000000000E+00  0.13461803114E+04  0.13461803114E+04  0.00000000000E+00 0. -1.
         21   -1    0    0  501  502 -0.00000000000E+00 -0.00000000000E+00 -0.41249639198E+02  0.41249639198E+02  0.00000000000E+00 0. -1.
         25    1    1    2    0    0 -0.33984677751E+02  0.66742995135E+02  0.21946091343E+03  0.26343439078E+03  0.12500000000E+03 0.  0.
         25    1    1    2    0    0  0.63261448039E+02 -0.32177497048E+02  0.38368218229E+03  0.40972480903E+03  0.12500000000E+03 0.  0.
         25    1    1    2    0    0 -0.29276770288E+02 -0.34565498087E+02  0.70178757652E+03  0.71427075083E+03  0.12500000000E+03 0.  0.
</event>
<event>
 5    0  0.5705185E-005  0.3471161E+03  0.7546771E-02  0.1063805E+00
         21   -1    0    0  502  501  0.00000000000E+00  0.00000000000E+00  0.56312330449E+03  0.56312330449E+03  0.00000000000E+00 0. -1.
         21   -1    0    0  501  502 -0.00000000000E+00 -0.00000000000E+00 -0.21396660075E+03  0.21396660075E+03  0.00000000000E+00 0. -1.
         25    1    1    2    0    0 -0.45350906881E+02 -0.18132767477E+03  0.30182604922E+03  0.37637799402E+03  0.12500000000E+03 0.  0.
         25    1    1    2    0    0 -0.58282418617E+02  0.17983447042E+03  0.68975008693E+02  0.23689624078E+03  0.12500000000E+03 0.  0.
         25    1    1    2    0    0  0.10363332550E+03  0.14932043484E+01 -0.21644354177E+02  0.16381567044E+03  0.12500000000E+03 0.  0.
</event>
<event>
 5    0  0.5705185E-005  0.2779370E+03  0.7546771E-02  0.1096821E+00
         21   -1    0    0  502  501  0.00000000000E+00  0.00000000000E+00  0.54821622541E+03  0.54821622541E+03  0.00000000000E+00 0. -1.
         21   -1    0    0  501  502 -0.00000000000E+00 -0.00000000000E+00 -0.14090967794E+03  0.14090967794E+03  0.00000000000E+00 0. -1.
         25    1    1    2    0    0  0.12390913101E+03 -0.76375616214E+02  0.59191626761E+02  0.20078684264E+03  0.12500000000E+03 0.  0.
         25    1    1    2    0    0 -0.14121019256E+03  0.13010734493E+01  0.24376488756E+03  0.30820177106E+03  0.12500000000E+03 0.  0.
         25    1    1    2    0    0  0.17301061551E+02  0.75074542765E+02  0.10435003315E+03  0.18013728964E+03  0.12500000000E+03 0.  0.
</event>
<event>
 5    0  0.5705185E-005  0.3272285E+03  0.7546771E-02  0.1072370E+00
         21   -1    0    0  502  501  0.00000000000E+00  0.00000000000E+00  0.16772328840E+03  0.16772328840E+03  0.00000000000E+00 0. -1.
         21   -1    0    0  501  502 -0.00000000000E+00 -0.00000000000E+00 -0.63842344196E+03  0.63842344196E+03  0.00000000000E+00 0.  1.
         25    1    1    2    0    0 -0.17325494934E+03 -0.85765729384E+02 -0.43591031670E+02  0.23430368296E+03  0.12500000000E+03 0.  0.
         25    1    1    2    0    0  0.52663257145E+02  0.35306937970E+02 -0.41906958941E+02  0.14629146157E+03  0.12500000000E+03 0.  0.
         25    1    1    2    0    0  0.12059169219E+03  0.50458791414E+02 -0.38520216295E+03  0.42555158582E+03  0.12500000000E+03 0.  0.
</event>
<event>
 5    0  0.5705185E-005  0.3838529E+03  0.7546771E-02  0.1049519E+00
         21   -1    0    0  502  501  0.00000000000E+00  0.00000000000E+00  0.16480287411E+04  0.16480287411E+04  0.00000000000E+00 0. -1.
         21   -1    0    0  501  502 -0.00000000000E+00 -0.00000000000E+00 -0.89405629023E+02  0.89405629023E+02  0.00000000000E+00 0. -1.
         25    1    1    2    0    0 -0.18303533901E+03 -0.64750025885E+02  0.91168461038E+03  0.94047239725E+03  0.12500000000E+03 0.  0.
         25    1    1    2    0    0 -0.52548373933E+02 -0.73052032982E+02  0.14179478891E+03  0.20935303506E+03  0.12500000000E+03 0.  0.
         25    1    1    2    0    0  0.23558371294E+03  0.13780205887E+03  0.50514371273E+03  0.58760893776E+03  0.12500000000E+03 0.  0.
</event>
<event>
 5    0  0.5705185E-005  0.3155572E+03  0.7546771E-02  0.1077712E+00
         21   -1    0    0  502  501  0.00000000000E+00  0.00000000000E+00  0.12751053682E+03  0.12751053682E+03  0.00000000000E+00 0. -1.
         21   -1    0    0  501  502 -0.00000000000E+00 -0.00000000000E+00 -0.78092618875E+03  0.78092618875E+03  0.00000000000E+00 0. -1.
         25    1    1    2    0    0 -0.12376348432E+03 -0.69587161936E+02 -0.32753504165E+03  0.37823798946E+03  0.12500000000E+03 0.  0.
         25    1    1    2    0    0  0.83811119270E+02 -0.95738024794E+02 -0.24741916503E+03  0.30501035446E+03  0.12500000000E+03 0.  0.
         25    1    1    2    0    0  0.39952365053E+02  0.16532518673E+03 -0.78461445254E+02  0.22518838165E+03  0.12500000000E+03 0.  0.
</event>
<event>
 5    0  0.5705185E-005  0.2697309E+03  0.7546771E-02  0.1101434E+00
         21   -1    0    0  502  501  0.00000000000E+00  0.00000000000E+00  0.48726202143E+03  0.48726202143E+03  0.00000000000E+00 0. -1.
         21   -1    0    0  501  502 -0.00000000000E+00 -0.00000000000E+00 -0.14931347392E+03  0.14931347392E+03  0.00000000000E+00 0. -1.
         25    1    1    2    0    0 -0.52723027446E+02  0.14695897448E+03  0.17527103631E+03  0.26593531915E+03  0.12500000000E+03 0.  0.
         25    1    1    2    0    0 -0.41994168839E+02 -0.25740057980E+02  0.75313973360E+02  0.15402355464E+03  0.12500000000E+03 0.  0.
         25    1    1    2    0    0  0.94717196285E+02 -0.12121891649E+03  0.87363537838E+02  0.21661662155E+03  0.12500000000E+03 0.  0.
</event>
<event>
 5    0  0.5705185E-005  0.2639594E+03  0.7546771E-02  0.1104787E+00
         21   -1    0    0  502  501  0.00000000000E+00  0.00000000000E+00  0.84606620078E+03  0.84606620078E+03  0.00000000000E+00 0. -1.
         21   -1    0    0  501  502 -0.00000000000E+00 -0.00000000000E+00 -0.82351205829E+02  0.82351205829E+02  0.00000000000E+00 0. -1.
         25    1    1    2    0    0  0.34841505450E+02 -0.12389385453E+03  0.37343115234E+03  0.41429390924E+03  0.12500000000E+03 0.  0.
         25    1    1    2    0    0 -0.92746583434E+02  0.10120963485E+03  0.16135132039E+03  0.24597676215E+03  0.12500000000E+03 0.  0.
         25    1    1    2    0    0  0.57905077984E+02  0.22684219680E+02  0.22893252222E+03  0.26814673522E+03  0.12500000000E+03 0.  0.
</event>
<event>
 5    0  0.5705185E-005  0.2880180E+03  0.7546771E-02  0.1091389E+00
         21   -1    0    0  502  501  0.00000000000E+00  0.00000000000E+00  0.71537822917E+03  0.71537822917E+03  0.00000000000E+00 0. -1.
         21   -1    0    0  501  502 -0.00000000000E+00 -0.00000000000E+00 -0.11595875654E+03  0.11595875654E+03  0.00000000000E+00 0. -1.
         25    1    1    2    0    0  0.15735512596E+03  0.39708550456E+02  0.15407487450E+03  0.25632298297E+03  0.12500000000E+03 0.  0.
         25    1    1    2    0    0 -0.55987589161E-01 -0.74872800564E+02  0.11023510136E+03  0.18270937844E+03  0.12500000000E+03 0.  0.
         25    1    1    2    0    0 -0.15729913837E+03  0.35164250108E+02  0.33510949678E+03  0.39230462430E+03  0.12500000000E+03 0.  0.
</event>
<event>
 5    0  0.5705185E-005  0.3512076E+03  0.7546771E-02  0.1062120E+00
         21   -1    0    0  502  501  0.00000000000E+00  0.00000000000E+00  0.35772349808E+03  0.35772349808E+03  0.00000000000E+00 0. -1.
         21   -1    0    0  501  502 -0.00000000000E+00 -0.00000000000E+00 -0.34481038476E+03  0.34481038476E+03  0.00000000000E+00 0. -1.
         25    1    1    2    0    0 -0.17141982422E+02 -0.19952981229E+03 -0.18668124640E+03  0.30096657840E+03  0.12500000000E+03 0.  0.
         25    1    1    2    0    0 -0.27274586320E+02  0.90534849849E+02  0.28733097589E+02  0.15934570278E+03  0.12500000000E+03 0.  0.
         25    1    1    2    0    0  0.44416568742E+02  0.10899496244E+03  0.17086126212E+03  0.24222160166E+03  0.12500000000E+03 0.  0.
</event>
<event>
 5    0  0.5705185E-005  0.2760347E+03  0.7546771E-02  0.1097875E+00
         21   -1    0    0  502  501  0.00000000000E+00  0.00000000000E+00  0.48789006518E+03  0.48789006518E+03  0.00000000000E+00 0. -1.
         21   -1    0    0  501  502 -0.00000000000E+00 -0.00000000000E+00 -0.15617278630E+03  0.15617278630E+03  0.00000000000E+00 0. -1.
         25    1    1    2    0    0 -0.39909855764E+02  0.93850558007E+02  0.25805990176E+03  0.30433638744E+03  0.12500000000E+03 0.  0.
         25    1    1    2    0    0  0.11045069555E+02 -0.99117975695E+02 -0.43702281526E+02  0.16577471483E+03  0.12500000000E+03 0.  0.
         25    1    1    2    0    0  0.28864786209E+02  0.52674176882E+01  0.11735965865E+03  0.17395174920E+03  0.12500000000E+03 0.  0.
</event>
<event>
 5    0  0.5705185E-005  0.3048565E+03  0.7546771E-02  0.1082838E+00
         21   -1    0    0  502  501  0.00000000000E+00  0.00000000000E+00  0.68459772462E+03  0.68459772462E+03  0.00000000000E+00 0. -1.
         21   -1    0    0  501  502 -0.00000000000E+00 -0.00000000000E+00 -0.13575492408E+03  0.13575492408E+03  0.00000000000E+00 0. -1.
         25    1    1    2    0    0 -0.74322979727E+01  0.19808883068E+03  0.18588735329E+03  0.29912126638E+03  0.12500000000E+03 0.  0.
         25    1    1    2    0    0  0.35213806338E+02 -0.19283511224E+03  0.16376891388E+03  0.28437765352E+03  0.12500000000E+03 0.  0.
         25    1    1    2    0    0 -0.27781508365E+02 -0.52537184342E+01  0.19918653337E+03  0.23685372879E+03  0.12500000000E+03 0.  0.
</event>
<event>
 5    0  0.5705185E-005  0.3149906E+03  0.7546771E-02  0.1077978E+00
         21   -1    0    0  502  501  0.00000000000E+00  0.00000000000E+00  0.81969141707E+02  0.81969141707E+02  0.00000000000E+00 0. -1.
         21   -1    0    0  501  502 -0.00000000000E+00 -0.00000000000E+00 -0.12104442933E+04  0.12104442933E+04  0.00000000000E+00 0. -1.
         25    1    1    2    0    0  0.85585930296E+02 -0.15746714103E+03 -0.55447758529E+03  0.59597923165E+03  0.12500000000E+03 0.  0.
         25    1    1    2    0    0 -0.10554117664E+03  0.19652056486E+03 -0.31673973249E+03  0.40707288108E+03  0.12500000000E+03 0.  0.
         25    1    1    2    0    0  0.19955246346E+02 -0.39053423821E+02 -0.25725783384E+03  0.28936132229E+03  0.12500000000E+03 0.  0.
</event>
<event>
 5    0  0.5705185E-005  0.2476449E+03  0.7546771E-02  0.1114802E+00
         21   -1    0    0  502  501  0.00000000000E+00  0.00000000000E+00  0.35798333974E+03  0.35798333974E+03  0.00000000000E+00 0.  1.
         21   -1    0    0  501  502 -0.00000000000E+00 -0.00000000000E+00 -0.17131523973E+03  0.17131523973E+03  0.00000000000E+00 0.  1.
         25    1    1    2    0    0  0.69021924880E+02  0.25573685927E+02  0.15333315924E+03  0.21107841493E+03  0.12500000000E+03 0.  0.
         25    1    1    2    0    0  0.42535139409E+02 -0.59865838143E+02  0.24015220433E+02  0.14695199037E+03  0.12500000000E+03 0.  0.
         25    1    1    2    0    0 -0.11155706429E+03  0.34292152216E+02  0.93197203402E+01  0.17126817417E+03  0.12500000000E+03 0.  0.
</event>
<event>
 5    0  0.5705185E-005  0.4081348E+03  0.7546771E-02  0.1040999E+00
         21   -1    0    0  502  501  0.00000000000E+00  0.00000000000E+00  0.13183199381E+04  0.13183199381E+04  0.00000000000E+00 0.  1.
         21   -1    0    0  501  502 -0.00000000000E+00 -0.00000000000E+00 -0.12635322980E+03  0.12635322980E+03  0.00000000000E+00 0.  1.
         25    1    1    2    0    0  0.27676286884E+03 -0.10075271454E+03  0.74553564941E+03  0.81129353479E+03  0.12500000000E+03 0.  0.
         25    1    1    2    0    0 -0.14822964145E+03  0.12172437381E+01  0.36387962605E+03  0.41231891849E+03  0.12500000000E+03 0.  0.
         25    1    1    2    0    0 -0.12853322739E+03  0.99535470805E+02  0.82551432876E+02  0.22106071465E+03  0.12500000000E+03 0.  0.
</event>
<event>
 5    0  0.5705185E-005  0.2575401E+03  0.7546771E-02  0.1108630E+00
         21   -1    0    0  502  501  0.00000000000E+00  0.00000000000E+00  0.21904826326E+03  0.21904826326E+03  0.00000000000E+00 0. -1.
         21   -1    0    0  501  502 -0.00000000000E+00 -0.00000000000E+00 -0.30279594952E+03  0.30279594952E+03  0.00000000000E+00 0. -1.
         25    1    1    2    0    0  0.28323334349E+02  0.70160580736E+02 -0.89828668878E+02  0.17151941030E+03  0.12500000000E+03 0.  0.
         25    1    1    2    0    0  0.24909431041E+02 -0.28226631789E+01  0.10844454583E+03  0.16737283741E+03  0.12500000000E+03 0.  0.
         25    1    1    2    0    0 -0.53232765389E+02 -0.67337917557E+02 -0.10236356320E+03  0.18295196507E+03  0.12500000000E+03 0.  0.
</event>
<event>
 5    0  0.5705185E-005  0.2560917E+03  0.7546771E-02  0.1109514E+00
         21   -1    0    0  502  501  0.00000000000E+00  0.00000000000E+00  0.31739272881E+03  0.31739272881E+03  0.00000000000E+00 0. -1.
         21   -1    0    0  501  502 -0.00000000000E+00 -0.00000000000E+00 -0.20663036072E+03  0.20663036072E+03  0.00000000000E+00 0. -1.
         25    1    1    2    0    0 -0.39037112932E+02 -0.62471679342E+02 -0.54547511704E+02  0.15500657386E+03  0.12500000000E+03 0.  0.
         25    1    1    2    0    0 -0.87332055168E+01 -0.37059379915E+02  0.15384567391E+03  0.20184934456E+03  0.12500000000E+03 0.  0.
         25    1    1    2    0    0  0.47770318449E+02  0.99531059256E+02  0.11464205889E+02  0.16716717111E+03  0.12500000000E+03 0.  0.
</event>
<event>
 5    0  0.5705185E-005  0.2856550E+03  0.7546771E-02  0.1092640E+00
         21   -1    0    0  502  501  0.00000000000E+00  0.00000000000E+00  0.12686543960E+03  0.12686543960E+03  0.00000000000E+00 0. -1.
         21   -1    0    0  501  502 -0.00000000000E+00 -0.00000000000E+00 -0.64319134888E+03  0.64319134888E+03  0.00000000000E+00 0.  1.
         25    1    1    2    0    0 -0.11366890845E+02  0.85110054211E+02  0.29470689502E+02  0.15448769878E+03  0.12500000000E+03 0.  0.
         25    1    1    2    0    0 -0.11603998340E+00 -0.84897806148E+02 -0.22443772219E+03  0.27056411827E+03  0.12500000000E+03 0.  0.
         25    1    1    2    0    0  0.11482930829E+02 -0.21224806288E+00 -0.32135887658E+03  0.34500497143E+03  0.12500000000E+03 0.  0.
</event>
<event>
 5    0  0.5705185E-005  0.4779612E+03  0.7546771E-02  0.1019697E+00
         21   -1    0    0  502  501  0.00000000000E+00  0.00000000000E+00  0.18221998001E+03  0.18221998001E+03  0.00000000000E+00 0.  1.
         21   -1    0    0  501  502 -0.00000000000E+00 -0.00000000000E+00 -0.12536872855E+04  0.12536872855E+04  0.00000000000E+00 0.  1.
         25    1    1    2    0    0 -0.48610297729E+02 -0.30501864369E+02 -0.80684714121E+02  0.15946268488E+03  0.12500000000E+03 0.  0.
         25    1    1    2    0    0 -0.26994181912E+03 -0.18835437280E+03 -0.25073972877E+03  0.43225150901E+03  0.12500000000E+03 0.  0.
         25    1    1    2    0    0  0.31855211685E+03  0.21885623717E+03 -0.74004286261E+03  0.84419307163E+03  0.12500000000E+03 0.  0.
</event>
<event>
 5    0  0.5705185E-005  0.3309130E+03  0.7546771E-02  0.1070734E+00
         21   -1    0    0  502  501  0.00000000000E+00  0.00000000000E+00  0.11007007232E+03  0.11007007232E+03  0.00000000000E+00 0.  1.
         21   -1    0    0  501  502 -0.00000000000E+00 -0.00000000000E+00 -0.99485210114E+03  0.99485210114E+03  0.00000000000E+00 0.  1.
         25    1    1    2    0    0  0.10515088960E+03 -0.10216159832E+03 -0.11705826350E+03  0.22543588625E+03  0.12500000000E+03 0.  0.
         25    1    1    2    0    0  0.33051509482E+02  0.70994975013E+01 -0.62299855707E+02  0.14369786764E+03  0.12500000000E+03 0.  0.
         25    1    1    2    0    0 -0.13820239908E+03  0.95062100819E+02 -0.70542390961E+03  0.73578841957E+03  0.12500000000E+03 0.  0.
</event>
<event>
 5    0  0.5705185E-005  0.3015809E+03  0.7546771E-02  0.1084453E+00
         21   -1    0    0  502  501  0.00000000000E+00  0.00000000000E+00  0.12794248619E+04  0.12794248619E+04  0.00000000000E+00 0.  1.
         21   -1    0    0  501  502 -0.00000000000E+00 -0.00000000000E+00 -0.71087425918E+02  0.71087425918E+02  0.00000000000E+00 0.  1.
         25    1    1    2    0    0 -0.11242956498E+03 -0.86080576374E+02  0.21416823180E+03  0.28555788244E+03  0.12500000000E+03 0.  0.
         25    1    1    2    0    0  0.17009731533E+03  0.88778501806E+02  0.46732671827E+03  0.52041712181E+03  0.12500000000E+03 0.  0.
         25    1    1    2    0    0 -0.57667750348E+02 -0.26979254319E+01  0.52684248590E+03  0.54453728355E+03  0.12500000000E+03 0.  0.
</event>
<event>
 5    0  0.5705185E-005  0.2589577E+03  0.7546771E-02  0.1107771E+00
         21   -1    0    0  502  501  0.00000000000E+00  0.00000000000E+00  0.44979094234E+03  0.44979094234E+03  0.00000000000E+00 0.  1.
         21   -1    0    0  501  502 -0.00000000000E+00 -0.00000000000E+00 -0.14908946249E+03  0.14908946249E+03  0.00000000000E+00 0.  1.
         25    1    1    2    0    0  0.57558026959E+00 -0.18017203382E+02 -0.35623317452E+02  0.13122107932E+03  0.12500000000E+03 0.  0.
         25    1    1    2    0    0  0.31928581904E+02 -0.72138503150E+02  0.24344097732E+03  0.28480152285E+03  0.12500000000E+03 0.  0.
         25    1    1    2    0    0 -0.32504162173E+02  0.90155706532E+02  0.92883819979E+02  0.18285780266E+03  0.12500000000E+03 0.  0.
</event>
<event>
 5    0  0.7895491E-005  0.4022206E+03  0.7546771E-02  0.1043013E+00
         21   -1    0    0  502  501  0.00000000000E+00  0.00000000000E+00  0.38659468568E+03  0.38659468568E+03  0.00000000000E+00 0.  1.
         21   -1    0    0  501  502 -0.00000000000E+00 -0.00000000000E+00 -0.41847807516E+03  0.41847807516E+03  0.00000000000E+00 0.  1.
         25    1    1    2    0    0  0.10017170335E+02 -0.22366514986E+03 -0.44922656232E+02  0.26032573443E+03  0.12500000000E+03 0.  0.
         25    1    1    2    0    0 -0.84881636847E+02  0.11635119908E+03  0.20565162170E+03  0.28046404994E+03  0.12500000000E+03 0.  0.
         25    1    1    2    0    0  0.74864466512E+02  0.10731395079E+03 -0.19261235494E+03  0.26428297648E+03  0.12500000000E+03 0.  0.
</event>
<event>
 5    0  0.5705185E-005  0.2587198E+03  0.7546771E-02  0.1107915E+00
         21   -1    0    0  502  501  0.00000000000E+00  0.00000000000E+00  0.99814795011E+03  0.99814795011E+03  0.00000000000E+00 0. -1.
         21   -1    0    0  501  502 -0.00000000000E+00 -0.00000000000E+00 -0.67060111498E+02  0.67060111498E+02  0.00000000000E+00 0. -1.
         25    1    1    2    0    0  0.25766169177E+02 -0.53683202022E+02  0.14025496943E+03  0.19708434261E+03  0.12500000000E+03 0.  0.
         25    1    1    2    0    0 -0.41173641835E+02  0.11968527787E+03  0.23703118064E+03  0.29635892954E+03  0.12500000000E+03 0.  0.
         25    1    1    2    0    0  0.15407472659E+02 -0.66002075850E+02  0.55380168855E+03  0.57176478946E+03  0.12500000000E+03 0.  0.
</event>
<event>
 5    0  0.5705185E-005  0.4618087E+03  0.7546771E-02  0.1024258E+00
         21   -1    0    0  502  501  0.00000000000E+00  0.00000000000E+00  0.39513205473E+03  0.39513205473E+03  0.00000000000E+00 0.  1.
         21   -1    0    0  501  502 -0.00000000000E+00 -0.00000000000E+00 -0.53973663467E+03  0.53973663467E+03  0.00000000000E+00 0.  1.
         25    1    1    2    0    0  0.34446737387E+03  0.20707135902E+02 -0.79788178820E+02  0.37560312914E+03  0.12500000000E+03 0.  0.
         25    1    1    2    0    0 -0.33358293317E+03 -0.60404898494E+02 -0.16169517351E+03  0.39584928218E+03  0.12500000000E+03 0.  0.
         25    1    1    2    0    0 -0.10884440701E+02  0.39697762592E+02  0.96878772389E+02  0.16341627809E+03  0.12500000000E+03 0.  0.
</event>
<event>
 5    0  0.5705185E-005  0.2540389E+03  0.7546771E-02  0.1110779E+00
         21   -1    0    0  502  501  0.00000000000E+00  0.00000000000E+00  0.32240356519E+03  0.32240356519E+03  0.00000000000E+00 0.  1.
         21   -1    0    0  501  502 -0.00000000000E+00 -0.00000000000E+00 -0.20017069848E+03  0.20017069848E+03  0.00000000000E+00 0.  1.
         25    1    1    2    0    0  0.97542641643E+02 -0.77205262836E+02  0.11910661144E+03  0.21280649529E+03  0.12500000000E+03 0.  0.
         25    1    1    2    0    0 -0.91008692486E+02  0.74257912963E+02 -0.42144364355E+02  0.17662946298E+03  0.12500000000E+03 0.  0.
         25    1    1    2    0    0 -0.65339491563E+01  0.29473498733E+01  0.45270619634E+02  0.13313830540E+03  0.12500000000E+03 0.  0.
</event>
<event>
 5    0  0.5705185E-005  0.3381157E+03  0.7546771E-02  0.1067601E+00
         21   -1    0    0  502  501  0.00000000000E+00  0.00000000000E+00  0.64611098191E+03  0.64611098191E+03  0.00000000000E+00 0. -1.
         21   -1    0    0  501  502 -0.00000000000E+00 -0.00000000000E+00 -0.17693901599E+03  0.17693901599E+03  0.00000000000E+00 0. -1.
         25    1    1    2    0    0  0.14828214866E+02 -0.52926710988E+02  0.16933337275E+02  0.13759669547E+03  0.12500000000E+03 0.  0.
         25    1    1    2    0    0 -0.46968473273E+02  0.24602797318E+03  0.28312123891E+03  0.39814373911E+03  0.12500000000E+03 0.  0.
         25    1    1    2    0    0  0.32140258407E+02 -0.19310126219E+03  0.16911738973E+03  0.28730956333E+03  0.12500000000E+03 0.  0.
</event>
<event>
 5    0  0.5705185E-005  0.2425969E+03  0.7546771E-02  0.1118075E+00
         21   -1    0    0  502  501  0.00000000000E+00  0.00000000000E+00  0.58065792620E+02  0.58065792620E+02  0.00000000000E+00 0. -1.
         21   -1    0    0  501  502 -0.00000000000E+00 -0.00000000000E+00 -0.10135613489E+04  0.10135613489E+04  0.00000000000E+00 0. -1.
         25    1    1    2    0    0 -0.29554079550E+01 -0.17035421906E+02 -0.44506274686E+03  0.46260651603E+03  0.12500000000E+03 0.  0.
         25    1    1    2    0    0  0.10186418838E+03 -0.22251522659E+02 -0.30816407344E+03  0.34851332729E+03  0.12500000000E+03 0.  0.
         25    1    1    2    0    0 -0.98908780429E+02  0.39286944565E+02 -0.20226873597E+03  0.26050729819E+03  0.12500000000E+03 0.  0.
</event>
<event>
 5    0  0.5705185E-005  0.5258784E+03  0.7546771E-02  0.1007237E+00
         21   -1    0    0  502  501  0.00000000000E+00  0.00000000000E+00  0.45765840772E+03  0.45765840772E+03  0.00000000000E+00 0. -1.
         21   -1    0    0  501  502 -0.00000000000E+00 -0.00000000000E+00 -0.60426742708E+03  0.60426742708E+03  0.00000000000E+00 0.  1.
         25    1    1    2    0    0  0.11049848605E+03  0.21500999767E+02  0.37534556444E+02  0.17235443521E+03  0.12500000000E+03 0.  0.
         25    1    1    2    0    0 -0.44419187636E+03 -0.19852714481E+02  0.47883508736E+02  0.46434726628E+03  0.12500000000E+03 0.  0.
         25    1    1    2    0    0  0.33369339031E+03 -0.16482852856E+01 -0.23202708454E+03  0.42522413330E+03  0.12500000000E+03 0.  0.
</event>
<event>
 5    0  0.5705185E-005  0.2321318E+03  0.7546771E-02  0.1125148E+00
         21   -1    0    0  502  501  0.00000000000E+00  0.00000000000E+00  0.22289585060E+03  0.22289585060E+03  0.00000000000E+00 0. -1.
         21   -1    0    0  501  502 -0.00000000000E+00 -0.00000000000E+00 -0.24175052279E+03  0.24175052279E+03  0.00000000000E+00 0. -1.
         25    1    1    2    0    0  0.96979942832E+02  0.79016555105E+02 -0.28349244407E+01  0.17686650923E+03  0.12500000000E+03 0.  0.
         25    1    1    2    0    0 -0.66055691291E+02 -0.18585734420E+02  0.10896107140E+02  0.14301226880E+03  0.12500000000E+03 0.  0.
         25    1    1    2    0    0 -0.30924251541E+02 -0.60430820684E+02 -0.26915854894E+02  0.14476759536E+03  0.12500000000E+03 0.  0.
</event>
<event>
 5    0  0.5705185E-005  0.2218056E+03  0.7546771E-02  0.1132544E+00
         21   -1    0    0  502  501  0.00000000000E+00  0.00000000000E+00  0.15097908847E+04  0.15097908847E+04  0.00000000000E+00 0.  1.
         21   -1    0    0  501  502 -0.00000000000E+00 -0.00000000000E+00 -0.32585791141E+02  0.32585791141E+02  0.00000000000E+00 0.  1.
         25    1    1    2    0    0 -0.24124975536E+02 -0.32438671293E+02  0.53532674198E+03  0.55121139549E+03  0.12500000000E+03 0.  0.
         25    1    1    2    0    0  0.71177727029E+00  0.10247990305E+03  0.54982249501E+03  0.57309023127E+03  0.12500000000E+03 0.  0.
         25    1    1    2    0    0  0.23413198266E+02 -0.70041231753E+02  0.39205585662E+03  0.41807504913E+03  0.12500000000E+03 0.  0.
</event>
<event>
 5    0  0.5705185E-005  0.3265664E+03  0.7546771E-02  0.1072666E+00
         21   -1    0    0  502  501  0.00000000000E+00  0.00000000000E+00  0.26712189836E+03  0.26712189836E+03  0.00000000000E+00 0.  1.
         21   -1    0    0  501  502 -0.00000000000E+00 -0.00000000000E+00 -0.39923958217E+03  0.39923958217E+03  0.00000000000E+00 0.  1.
         25    1    1    2    0    0 -0.19755369111E+03 -0.26420413763E+02  0.43662978788E+02  0.23928425533E+03  0.12500000000E+03 0.  0.
         25    1    1    2    0    0  0.21040037099E+03  0.63752718153E+02 -0.14819205097E+03  0.29311876288E+03  0.12500000000E+03 0.  0.
         25    1    1    2    0    0 -0.12846679880E+02 -0.37332304390E+02 -0.27588611624E+02  0.13395846232E+03  0.12500000000E+03 0.  0.
</event>
<event>
 5    0  0.5765164E-005  0.3913836E+03  0.7546771E-02  0.1046805E+00
         21   -1    0    0  502  501  0.00000000000E+00  0.00000000000E+00  0.34051566784E+03  0.34051566784E+03  0.00000000000E+00 0. -1.
         21   -1    0    0  501  502 -0.00000000000E+00 -0.00000000000E+00 -0.44985037703E+03  0.44985037703E+03  0.00000000000E+00 0. -1.
         25    1    1    2    0    0 -0.17962001654E+02  0.76413335053E+02 -0.19134346847E+03  0.24165875569E+03  0.12500000000E+03 0.  0.
         25    1    1    2    0    0  0.21225991122E+03  0.81422396878E+02  0.69682503280E+02  0.26863456198E+03  0.12500000000E+03 0.  0.
         25    1    1    2    0    0 -0.19429790957E+03 -0.15783573193E+03  0.12326255993E+02  0.28007272720E+03  0.12500000000E+03 0.  0.
</event>
<event>
 5    0  0.5705185E-005  0.4506278E+03  0.7546771E-02  0.1027535E+00
         21   -1    0    0  502  501  0.00000000000E+00  0.00000000000E+00  0.54232971811E+03  0.54232971811E+03  0.00000000000E+00 0. -1.
         21   -1    0    0  501  502 -0.00000000000E+00 -0.00000000000E+00 -0.37443170667E+03  0.37443170667E+03  0.00000000000E+00 0. -1.
         25    1    1    2    0    0  0.55063854362E+02  0.29887537803E+03  0.16534270794E+03  0.36786102093E+03  0.12500000000E+03 0.  0.
         25    1    1    2    0    0 -0.21023654105E+03 -0.20928001607E+03 -0.45779565218E+02  0.32514350203E+03  0.12500000000E+03 0.  0.
         25    1    1    2    0    0  0.15517268669E+03 -0.89595361965E+02  0.48334868711E+02  0.22375690182E+03  0.12500000000E+03 0.  0.
</event>
<event>
 5    0  0.5705185E-005  0.3572972E+03  0.7546771E-02  0.1059659E+00
         21   -1    0    0  502  501  0.00000000000E+00  0.00000000000E+00  0.68796981570E+02  0.68796981570E+02  0.00000000000E+00 0. -1.
         21   -1    0    0  501  502 -0.00000000000E+00 -0.00000000000E+00 -0.18556232554E+04  0.18556232554E+04  0.00000000000E+00 0. -1.
         25    1    1    2    0    0  0.30632198810E+02  0.21594551027E+03 -0.65822512902E+03  0.70459642029E+03  0.12500000000E+03 0.  0.
         25    1    1    2    0    0 -0.94596009610E+02 -0.16034748786E+03 -0.28415221182E+03  0.36197679674E+03  0.12500000000E+03 0.  0.
         25    1    1    2    0    0  0.63963810800E+02 -0.55598022411E+02 -0.84444893298E+03  0.85784701993E+03  0.12500000000E+03 0.  0.
</event>
<event>
 5    0  0.5705185E-005  0.3032001E+03  0.7546771E-02  0.1083652E+00
         21   -1    0    0  502  501  0.00000000000E+00  0.00000000000E+00  0.13574424871E+03  0.13574424871E+03  0.00000000000E+00 0. -1.
         21   -1    0    0  501  502 -0.00000000000E+00 -0.00000000000E+00 -0.67723177388E+03  0.67723177388E+03  0.00000000000E+00 0. -1.
         25    1    1    2    0    0  0.33606786134E+02 -0.23249219941E+02 -0.65469842977E+02  0.14690555688E+03  0.12500000000E+03 0.  0.
         25    1    1    2    0    0 -0.14452106876E+03 -0.45012113248E+02 -0.44026221671E+03  0.48204589938E+03  0.12500000000E+03 0.  0.
         25    1    1    2    0    0  0.11091428263E+03  0.68261333188E+02 -0.35755465495E+02  0.18402456633E+03  0.12500000000E+03 0.  0.
</event>
<event>
 5    0  0.5705185E-005  0.2754502E+03  0.7546771E-02  0.1098200E+00
         21   -1    0    0  502  501  0.00000000000E+00  0.00000000000E+00  0.28312378041E+04  0.28312378041E+04  0.00000000000E+00 0.  1.
         21   -1    0    0  501  502 -0.00000000000E+00 -0.00000000000E+00 -0.26798462414E+02  0.26798462414E+02  0.00000000000E+00 0.  1.
         25    1    1    2    0    0 -0.21805868112E+02 -0.11081778997E+02  0.20751616767E+04  0.20790669269E+04  0.12500000000E+03 0.  0.
         25    1    1    2    0    0 -0.37454038793E+01  0.55522402692E+02  0.41193352817E+03  0.43406335583E+03  0.12500000000E+03 0.  0.
         25    1    1    2    0    0  0.25551271991E+02 -0.44440623696E+02  0.31734413683E+03  0.34490598387E+03  0.12500000000E+03 0.  0.
</event>
<event>
 5    0  0.5951604E-005  0.2748359E+03  0.7546771E-02  0.1098543E+00
         21   -1    0    0  502  501  0.00000000000E+00  0.00000000000E+00  0.16628782664E+03  0.16628782664E+03  0.00000000000E+00 0.  1.
         21   -1    0    0  501  502 -0.00000000000E+00 -0.00000000000E+00 -0.45424102635E+03  0.45424102635E+03  0.00000000000E+00 0.  1.
         25    1    1    2    0    0  0.17715775189E+03  0.39088337840E+02 -0.11567656484E+03  0.24883495507E+03  0.12500000000E+03 0.  0.
         25    1    1    2    0    0 -0.80224934083E+02  0.33784098703E+02 -0.56023782388E+02  0.16229932091E+03  0.12500000000E+03 0.  0.
         25    1    1    2    0    0 -0.96932817806E+02 -0.72872436542E+02 -0.11625285248E+03  0.20939457702E+03  0.12500000000E+03 0.  0.
</event>
<event>
 5    0  0.5705185E-005  0.2233168E+03  0.7546771E-02  0.1131434E+00
         21   -1    0    0  502  501  0.00000000000E+00  0.00000000000E+00  0.91010796214E+02  0.91010796214E+02  0.00000000000E+00 0.  1.
         21   -1    0    0  501  502 -0.00000000000E+00 -0.00000000000E+00 -0.54796110777E+03  0.54796110777E+03  0.00000000000E+00 0.  1.
         25    1    1    2    0    0 -0.57400166637E+02  0.53898363272E+02 -0.13439501979E+03  0.19971688471E+03  0.12500000000E+03 0.  0.
         25    1    1    2    0    0 -0.34122821417E+02 -0.12298332765E+02 -0.19433992144E+03  0.23389874090E+03  0.12500000000E+03 0.  0.
         25    1    1    2    0    0  0.91522988054E+02 -0.41600030507E+02 -0.12821537033E+03  0.20535627838E+03  0.12500000000E+03 0.  0.
</event>
<event>
 5    0  0.6007007E-005  0.3524590E+03  0.7546771E-02  0.1061610E+00
         21   -1    0    0  502  501  0.00000000000E+00  0.00000000000E+00  0.24894612810E+03  0.24894612810E+03  0.00000000000E+00 0. -1.
         21   -1    0    0  501  502 -0.00000000000E+00 -0.00000000000E+00 -0.49901308100E+03  0.49901308100E+03  0.00000000000E+00 0. -1.
         25    1    1    2    0    0  0.10654439383E+03  0.11841037391E+03 -0.20846365318E+02  0.20354924577E+03  0.12500000000E+03 0.  0.
         25    1    1    2    0    0 -0.34678183824E+02 -0.20846620216E+03 -0.27469519497E+03  0.36843341870E+03  0.12500000000E+03 0.  0.
         25    1    1    2    0    0 -0.71866210002E+02  0.90055828246E+02  0.45474607387E+02  0.17597654463E+03  0.12500000000E+03 0.  0.
</event>
<event>
 5    0  0.5705185E-005  0.3178234E+03  0.7546771E-02  0.1076655E+00
         21   -1    0    0  502  501  0.00000000000E+00  0.00000000000E+00  0.17888213736E+03  0.17888213736E+03  0.00000000000E+00 0.  1.
         21   -1    0    0  501  502 -0.00000000000E+00 -0.00000000000E+00 -0.56468289803E+03  0.56468289803E+03  0.00000000000E+00 0.  1.
         25    1    1    2    0    0 -0.52799118756E+02  0.14968380162E+03 -0.32541075043E+03  0.38302760201E+03  0.12500000000E+03 0.  0.
         25    1    1    2    0    0  0.92324110476E+02 -0.97391701678E+02  0.39526801042E+02  0.18760664416E+03  0.12500000000E+03 0.  0.
         25    1    1    2    0    0 -0.39524991721E+02 -0.52292099939E+02 -0.99916811279E+02  0.17293078923E+03  0.12500000000E+03 0.  0.
</event>
<event>
 5    0  0.5705185E-005  0.2700655E+03  0.7546771E-02  0.1101242E+00
         21   -1    0    0  502  501  0.00000000000E+00  0.00000000000E+00  0.33217267352E+03  0.33217267352E+03  0.00000000000E+00 0.  1.
         21   -1    0    0  501  502 -0.00000000000E+00 -0.00000000000E+00 -0.21957061680E+03  0.21957061680E+03  0.00000000000E+00 0.  1.
         25    1    1    2    0    0  0.33579159208E+02  0.39524782153E+02 -0.97269312548E+02  0.16666159576E+03  0.12500000000E+03 0.  0.
         25    1    1    2    0    0  0.16831202676E+02 -0.43879986300E+02 -0.24381419979E+01  0.13356529159E+03  0.12500000000E+03 0.  0.
         25    1    1    2    0    0 -0.50410361883E+02  0.43552041463E+01  0.21230951127E+03  0.25151640297E+03  0.12500000000E+03 0.  0.
</event>
<event>
 5    0  0.5705185E-005  0.2493502E+03  0.7546771E-02  0.1113716E+00
         21   -1    0    0  502  501  0.00000000000E+00  0.00000000000E+00  0.51365474832E+02  0.51365474832E+02  0.00000000000E+00 0.  1.
         21   -1    0    0  501  502 -0.00000000000E+00 -0.00000000000E+00 -0.12104540382E+04  0.12104540382E+04  0.00000000000E+00 0.  1.
         25    1    1    2    0    0  0.50205043834E+02 -0.17580463802E+02 -0.20357202296E+03  0.24473697650E+03  0.12500000000E+03 0.  0.
         25    1    1    2    0    0 -0.13308477072E+03 -0.30270184330E+02 -0.60856427451E+03  0.63608436270E+03  0.12500000000E+03 0.  0.
         25    1    1    2    0    0  0.82879726885E+02  0.47850648132E+02 -0.34695226590E+03  0.38099817384E+03  0.12500000000E+03 0.  0.
</event>
<event>
 5    0  0.6429082E-005  0.7854601E+03  0.7546771E-02  0.9581305E-01
         21   -1    0    0  502  501  0.00000000000E+00  0.00000000000E+00  0.56145735798E+03  0.56145735798E+03  0.00000000000E+00 0.  1.
         21   -1    0    0  501  502 -0.00000000000E+00 -0.00000000000E+00 -0.10988323752E+04  0.10988323752E+04  0.00000000000E+00 0.  1.
         25    1    1    2    0    0  0.19833367875E+03 -0.14064558639E+03  0.28416722010E+03  0.39432656273E+03  0.12500000000E+03 0.  0.
         25    1    1    2    0    0 -0.40431955986E+02 -0.29586002247E+03 -0.69831187358E+03  0.76969628344E+03  0.12500000000E+03 0.  0.
         25    1    1    2    0    0 -0.15790172276E+03  0.43650560886E+03 -0.12323036377E+03  0.49626688704E+03  0.12500000000E+03 0.  0.
</event>
<event>
 5    0  0.5705185E-005  0.2266404E+03  0.7546771E-02  0.1129027E+00
         21   -1    0    0  502  501  0.00000000000E+00  0.00000000000E+00  0.22974163714E+03  0.22974163714E+03  0.00000000000E+00 0.  1.
         21   -1    0    0  501  502 -0.00000000000E+00 -0.00000000000E+00 -0.22358111271E+03  0.22358111271E+03  0.00000000000E+00 0.  1.
         25    1    1    2    0    0 -0.18044583106E+02  0.42736544580E+01 -0.24715884289E+02  0.12876236266E+03  0.12500000000E+03 0.  0.
         25    1    1    2    0    0 -0.66352661807E+02 -0.38165944199E+02  0.73828743960E+02  0.16411885468E+03  0.12500000000E+03 0.  0.
         25    1    1    2    0    0  0.84397244913E+02  0.33892289741E+02 -0.42952335245E+02  0.16044153252E+03  0.12500000000E+03 0.  0.
</event>
<event>
 5    0  0.5705185E-005  0.3218234E+03  0.7546771E-02  0.1074813E+00
         21   -1    0    0  502  501  0.00000000000E+00  0.00000000000E+00  0.40117237848E+03  0.40117237848E+03  0.00000000000E+00 0.  1.
         21   -1    0    0  501  502 -0.00000000000E+00 -0.00000000000E+00 -0.25816913546E+03  0.25816913546E+03  0.00000000000E+00 0.  1.
         25    1    1    2    0    0  0.87697473836E+02  0.41328618245E+02 -0.59571200611E+01  0.15830157574E+03  0.12500000000E+03 0.  0.
         25    1    1    2    0    0 -0.20698653203E+03  0.86971064465E+01 -0.34148476745E+02  0.24435667080E+03  0.12500000000E+03 0.  0.
         25    1    1    2    0    0  0.11928905819E+03 -0.50025724692E+02  0.18310883983E+03  0.25668326739E+03  0.12500000000E+03 0.  0.
</event>
<event>
 5    0  0.5705185E-005  0.2824825E+03  0.7546771E-02  0.1094341E+00
         21   -1    0    0  502  501  0.00000000000E+00  0.00000000000E+00  0.22140022002E+03  0.22140022002E+03  0.00000000000E+00 0. -1.
         21   -1    0    0  501  502 -0.00000000000E+00 -0.00000000000E+00 -0.36041684867E+03  0.36041684867E+03  0.00000000000E+00 0. -1.
         25    1    1    2    0    0  0.16004740991E+02  0.57064229912E+02 -0.13330466231E+02  0.13897906101E+03  0.12500000000E+03 0.  0.
         25    1    1    2    0    0  0.90908157994E+02 -0.16725431813E+01  0.79724304136E+02  0.17391968049E+03  0.12500000000E+03 0.  0.
         25    1    1    2    0    0 -0.10691289899E+03 -0.55391686731E+02 -0.20541046655E+03  0.26891832719E+03  0.12500000000E+03 0.  0.
</event>
<event>
 5    0  0.5705185E-005  0.2517480E+03  0.7546771E-02  0.1112205E+00
         21   -1    0    0  502  501  0.00000000000E+00  0.00000000000E+00  0.13526576394E+03  0.13526576394E+03  0.00000000000E+00 0.  1.
         21   -1    0    0  501  502 -0.00000000000E+00 -0.00000000000E+00 -0.46853741687E+03  0.46853741687E+03  0.00000000000E+00 0.  1.
         25    1    1    2    0    0 -0.83770380021E+02  0.11161431138E+03 -0.13672634694E+03  0.23193603648E+03  0.12500000000E+03 0.  0.
         25    1    1    2    0    0 -0.14341321837E+02 -0.12823103663E+02 -0.10052812029E+03  0.16155806532E+03  0.12500000000E+03 0.  0.
         25    1    1    2    0    0  0.98111701859E+02 -0.98791207716E+02 -0.96017185701E+02  0.21030907901E+03  0.12500000000E+03 0.  0.
</event>
<event>
 5    0  0.5705185E-005  0.2483004E+03  0.7546771E-02  0.1114384E+00
         21   -1    0    0  502  501  0.00000000000E+00  0.00000000000E+00  0.21681527060E+03  0.21681527060E+03  0.00000000000E+00 0. -1.
         21   -1    0    0  501  502 -0.00000000000E+00 -0.00000000000E+00 -0.28435759765E+03  0.28435759765E+03  0.00000000000E+00 0. -1.
         25    1    1    2    0    0 -0.10148254772E+03 -0.70505761381E+02 -0.15572736280E+02  0.17645758696E+03  0.12500000000E+03 0.  0.
         25    1    1    2    0    0  0.58493365971E+02  0.13652543355E+02  0.51012376939E+02  0.14776714250E+03  0.12500000000E+03 0.  0.
         25    1    1    2    0    0  0.42989181747E+02  0.56853218026E+02 -0.10298196771E+03  0.17694813879E+03  0.12500000000E+03 0.  0.
</event>
<event>
 5    0  0.5705185E-005  0.3749147E+03  0.7546771E-02  0.1052829E+00
         21   -1    0    0  502  501  0.00000000000E+00  0.00000000000E+00  0.61864322604E+03  0.61864322604E+03  0.00000000000E+00 0. -1.
         21   -1    0    0  501  502 -0.00000000000E+00 -0.00000000000E+00 -0.22720858203E+03  0.22720858203E+03  0.00000000000E+00 0. -1.
         25    1    1    2    0    0 -0.27885431820E+02 -0.67258447329E+02  0.44781024824E+02  0.15143195247E+03  0.12500000000E+03 0.  0.
         25    1    1    2    0    0 -0.62898017175E+02  0.13984270841E+03 -0.96075350164E+02  0.21992638898E+03  0.12500000000E+03 0.  0.
         25    1    1    2    0    0  0.90783448995E+02 -0.72584261076E+02  0.44272896935E+03  0.47449346662E+03  0.12500000000E+03 0.  0.
</event>
<event>
 5    0  0.5705185E-005  0.2551354E+03  0.7546771E-02  0.1110102E+00
         21   -1    0    0  502  501  0.00000000000E+00  0.00000000000E+00  0.21797842511E+03  0.21797842511E+03  0.00000000000E+00 0. -1.
         21   -1    0    0  501  502 -0.00000000000E+00 -0.00000000000E+00 -0.29862610538E+03  0.29862610538E+03  0.00000000000E+00 0. -1.
         25    1    1    2    0    0 -0.11555368887E+03  0.38082217004E+02 -0.98424183059E+02  0.20028786801E+03  0.12500000000E+03 0.  0.
         25    1    1    2    0    0  0.80855569997E+02 -0.38366961604E+02  0.79025828120E+02  0.17285753803E+03  0.12500000000E+03 0.  0.
         25    1    1    2    0    0  0.34698118869E+02  0.28474459964E+00 -0.61249325332E+02  0.14345912444E+03  0.12500000000E+03 0.  0.
</event>
<event>
 5    0  0.5705185E-005  0.3428778E+03  0.7546771E-02  0.1065577E+00
         21   -1    0    0  502  501  0.00000000000E+00  0.00000000000E+00  0.21304408781E+03  0.21304408781E+03  0.00000000000E+00 0. -1.
         21   -1    0    0  501  502 -0.00000000000E+00 -0.00000000000E+00 -0.55183496959E+03  0.55183496959E+03  0.00000000000E+00 0. -1.
         25    1    1    2    0    0 -0.61061322250E+01  0.83866951257E+02 -0.44085298119E+02  0.15696962723E+03  0.12500000000E+03 0.  0.
         25    1    1    2    0    0  0.68699301613E+02 -0.26287083439E+03 -0.12388531607E+03  0.32371784188E+03  0.12500000000E+03 0.  0.
         25    1    1    2    0    0 -0.62593169388E+02  0.17900388314E+03 -0.17082026759E+03  0.28419158828E+03  0.12500000000E+03 0.  0.
</event>
<event>
 5    0  0.5705185E-005  0.2614620E+03  0.7546771E-02  0.1106268E+00
         21   -1    0    0  502  501  0.00000000000E+00  0.00000000000E+00  0.11935584680E+03  0.11935584680E+03  0.00000000000E+00 0. -1.
         21   -1    0    0  501  502 -0.00000000000E+00 -0.00000000000E+00 -0.57276111182E+03  0.57276111182E+03  0.00000000000E+00 0. -1.
         25    1    1    2    0    0  0.91464931005E+02 -0.70332875120E+02 -0.23486131238E+03  0.28999548786E+03  0.12500000000E+03 0.  0.
         25    1    1    2    0    0 -0.98050078056E+02  0.23663262586E+02 -0.21514388675E+03  0.26848772748E+03  0.12500000000E+03 0.  0.
         25    1    1    2    0    0  0.65851470511E+01  0.46669612534E+02 -0.34000658913E+01  0.13363374328E+03  0.12500000000E+03 0.  0.
</event>
<event>
 5    0  0.5705185E-005  0.2698248E+03  0.7546771E-02  0.1101380E+00
         21   -1    0    0  502  501  0.00000000000E+00  0.00000000000E+00  0.28854410238E+03  0.28854410238E+03  0.00000000000E+00 0. -1.
         21   -1    0    0  501  502 -0.00000000000E+00 -0.00000000000E+00 -0.25231983076E+03  0.25231983076E+03  0.00000000000E+00 0. -1.
         25    1    1    2    0    0  0.92840064529E+01  0.79350127853E+02 -0.54153405586E+02  0.15792475076E+03  0.12500000000E+03 0.  0.
         25    1    1    2    0    0 -0.31654475039E+02 -0.16666798888E+03  0.89193930248E+02  0.22882478340E+03  0.12500000000E+03 0.  0.
         25    1    1    2    0    0  0.22370468586E+02  0.87317861022E+02  0.11837469583E+01  0.15411439899E+03  0.12500000000E+03 0.  0.
</event>
<event>
 5    0  0.5705185E-005  0.3980108E+03  0.7546771E-02  0.1044471E+00
         21   -1    0    0  502  501  0.00000000000E+00  0.00000000000E+00  0.30723642153E+03  0.30723642153E+03  0.00000000000E+00 0.  1.
         21   -1    0    0  501  502 -0.00000000000E+00 -0.00000000000E+00 -0.51560480867E+03  0.51560480867E+03  0.00000000000E+00 0.  1.
         25    1    1    2    0    0  0.15541396773E+03  0.80263127573E+02 -0.48122600169E+02  0.22030990822E+03  0.12500000000E+03 0.  0.
         25    1    1    2    0    0  0.99604075005E+02 -0.50183719419E+00 -0.24775061479E+03  0.29483315744E+03  0.12500000000E+03 0.  0.
         25    1    1    2    0    0 -0.25501804274E+03 -0.79761290378E+02  0.87504827820E+02  0.30769816453E+03  0.12500000000E+03 0.  0.
</event>
<event>
 5    0  0.5705185E-005  0.4158325E+03  0.7546771E-02  0.1038431E+00
         21   -1    0    0  502  501  0.00000000000E+00  0.00000000000E+00  0.50940538106E+03  0.50940538106E+03  0.00000000000E+00 0. -1.
         21   -1    0    0  501  502 -0.00000000000E+00 -0.00000000000E+00 -0.33944813258E+03  0.33944813258E+03  0.00000000000E+00 0. -1.
         25    1    1    2    0    0  0.17065243253E+03 -0.56937323651E+02 -0.72700560989E+02  0.23081265806E+03  0.12500000000E+03 0.  0.
         25    1    1    2    0    0  0.11102704289E+03  0.14011656309E+03  0.20010743837E+03  0.29601966555E+03  0.12500000000E+03 0.  0.
         25    1    1    2    0    0 -0.28167947542E+03 -0.83179239438E+02  0.42550371101E+02  0.32202119003E+03  0.12500000000E+03 0.  0.
</event>
<event>
 5    0  0.5705185E-005  0.3523251E+03  0.7546771E-02  0.1061665E+00
         21   -1    0    0  502  501  0.00000000000E+00  0.00000000000E+00  0.27834207689E+04  0.27834207689E+04  0.00000000000E+00 0. -1.
         21   -1    0    0  501  502 -0.00000000000E+00 -0.00000000000E+00 -0.44597263727E+02  0.44597263727E+02  0.00000000000E+00 0. -1.
         25    1    1    2    0    0 -0.12571813275E+03  0.76217214911E+00  0.23966829442E+03  0.29811326901E+03  0.12500000000E+03 0.  0.
         25    1    1    2    0    0 -0.98513016989E+01 -0.72999767637E+02  0.17150169769E+04  0.17211432960E+04  0.12500000000E+03 0.  0.
         25    1    1    2    0    0  0.13556943445E+03  0.72237595488E+02  0.78413823379E+03  0.80876146759E+03  0.12500000000E+03 0.  0.
</event>
<event>
 5    0  0.5705185E-005  0.3478399E+03  0.7546771E-02  0.1063505E+00
         21   -1    0    0  502  501  0.00000000000E+00  0.00000000000E+00  0.79525342191E+02  0.79525342191E+02  0.00000000000E+00 0. -1.
         21   -1    0    0  501  502 -0.00000000000E+00 -0.00000000000E+00 -0.15214347746E+04  0.15214347746E+04  0.00000000000E+00 0. -1.
         25    1    1    2    0    0  0.20304623983E+03 -0.27868441098E+02 -0.53215481791E+03  0.58379634783E+03  0.12500000000E+03 0.  0.
         25    1    1    2    0    0 -0.21071586019E+03  0.14253634860E+02 -0.26894313699E+03  0.36408755922E+03  0.12500000000E+03 0.  0.
         25    1    1    2    0    0  0.76696203620E+01  0.13614806238E+02 -0.64081147755E+03  0.65307620979E+03  0.12500000000E+03 0.  0.
</event>
<event>
 5    0  0.5705185E-005  0.3581887E+03  0.7546771E-02  0.1059303E+00
         21   -1    0    0  502  501  0.00000000000E+00  0.00000000000E+00  0.26956374080E+03  0.26956374080E+03  0.00000000000E+00 0. -1.
         21   -1    0    0  501  502 -0.00000000000E+00 -0.00000000000E+00 -0.47595115895E+03  0.47595115895E+03  0.00000000000E+00 0. -1.
         25    1    1    2    0    0  0.21184580888E+02  0.16323325061E+03 -0.61561487235E+02  0.21565875193E+03  0.12500000000E+03 0.  0.
         25    1    1    2    0    0  0.72768510342E+01 -0.17936645138E+03  0.10947487176E+03  0.24461198660E+03  0.12500000000E+03 0.  0.
         25    1    1    2    0    0 -0.28461431922E+02  0.16133200775E+02 -0.25430080267E+03  0.28524416122E+03  0.12500000000E+03 0.  0.
</event>
