<event>
 5    0  0.5583350E-005  0.3047434E+03  0.7546771E-02  0.1082893E+00
         21   -1    0    0  502  501  0.00000000000E+00  0.00000000000E+00  0.13953032000E+03  0.13953032000E+03  0.00000000000E+00 0.  1.
         21   -1    0    0  501  502 -0.00000000000E+00 -0.00000000000E+00 -0.66557952314E+03  0.66557952314E+03  0.00000000000E+00 0.  1.
         25    1    1    2    0    0 -0.46237824547E+02 -0.11772623915E+03 -0.12357795494E+03  0.21655002829E+03  0.12500000000E+03 0.  0.
         25    1    1    2    0    0  0.10628689048E+02  0.11449836558E+03 -0.45176301513E+01  0.16990660297E+03  0.12500000000E+03 0.  0.
         25    1    1    2    0    0  0.35609135499E+02  0.32278735698E+01 -0.39795361805E+03  0.41865321188E+03  0.12500000000E+03 0.  0.
</event>
<event>
 5    0  0.5583350E-005  0.2253058E+03  0.7546771E-02  0.1129988E+00
         21   -1    0    0  502  501  0.00000000000E+00  0.00000000000E+00  0.27456697170E+02  0.27456697170E+02  0.00000000000E+00 0. -1.
         21   -1    0    0  501  502 -0.00000000000E+00 -0.00000000000E+00 -0.18488282104E+04  0.18488282104E+04  0.00000000000E+00 0. -1.
         25    1    1    2    0    0  0.90893919893E+00 -0.30669421793E+02 -0.60733128377E+03  0.62082020574E+03  0.12500000000E+03 0.  0.
         25    1    1    2    0    0 -0.71793142067E+02  0.36189378691E+02 -0.86961175422E+03  0.88222079405E+03  0.12500000000E+03 0.  0.
         25    1    1    2    0    0  0.70884202868E+02 -0.55199568979E+01 -0.34442847523E+03  0.37324390777E+03  0.12500000000E+03 0.  0.
</event>
<event>
 5    0  0.5583350E-005  0.3643677E+03  0.7546771E-02  0.1056868E+00
         21   -1    0    0  502  501  0.00000000000E+00  0.00000000000E+00  0.33179983927E+03  0.33179983927E+03  0.00000000000E+00 0.  1.
         21   -1    0    0  501  502 -0.00000000000E+00 -0.00000000000E+00 -0.40013225547E+03  0.40013225547E+03  0.00000000000E+00 0.  1.
         25    1    1    2    0    0 -0.19243542208E+03  0.14167261874E+03  0.92289896440E+02  0.28503499357E+03  0.12500000000E+03 0.  0.
         25    1    1    2    0    0  0.91158939138E+02  0.17410906212E+02  0.20564587246E+02  0.15703819309E+03  0.12500000000E+03 0.  0.
         25    1    1    2    0    0  0.10127648294E+03 -0.15908352495E+03 -0.18118689989E+03  0.28985890809E+03  0.12500000000E+03 0.  0.
</event>
<event>
 5    0  0.5583350E-005  0.5064023E+03  0.7546771E-02  0.1012121E+00
         21   -1    0    0  502  501  0.00000000000E+00  0.00000000000E+00  0.13988981444E+03  0.13988981444E+03  0.00000000000E+00 0. -1.
         21   -1    0    0  501  502 -0.00000000000E+00 -0.00000000000E+00 -0.18331803311E+04  0.18331803311E+04  0.00000000000E+00 0. -1.
         25    1    1    2    0    0 -0.45340248791E+02 -0.36241473075E+02 -0.99561680012E+03  0.10051104393E+04  0.12500000000E+03 0.  0.
         25    1    1    2    0    0 -0.23704253797E+03  0.37914957417E+02 -0.57529234319E+03  0.63577746809E+03  0.12500000000E+03 0.  0.
         25    1    1    2    0    0  0.28238278676E+03 -0.16734843425E+01 -0.12238137339E+03  0.33218223818E+03  0.12500000000E+03 0.  0.
</event>
<event>
 5    0  0.5583350E-005  0.2370972E+03  0.7546771E-02  0.1121742E+00
         21   -1    0    0  502  501  0.00000000000E+00  0.00000000000E+00  0.12937731850E+03  0.12937731850E+03  0.00000000000E+00 0.  1.
         21   -1    0    0  501  502 -0.00000000000E+00 -0.00000000000E+00 -0.43450488476E+03  0.43450488476E+03  0.00000000000E+00 0.  1.
         25    1    1    2    0    0  0.89476317931E+02  0.69215734800E+01 -0.91486827134E+02  0.17902167240E+03  0.12500000000E+03 0.  0.
         25    1    1    2    0    0 -0.10962170451E+03  0.31541830357E+02 -0.54266628159E+02  0.17771232960E+03  0.12500000000E+03 0.  0.
         25    1    1    2    0    0  0.20145386576E+02 -0.38463403837E+02 -0.15937411097E+03  0.20714820126E+03  0.12500000000E+03 0.  0.
</event>
<event>
 5    0  0.5583350E-005  0.2788621E+03  0.7546771E-02  0.1096312E+00
         21   -1    0    0  502  501  0.00000000000E+00  0.00000000000E+00  0.12146185131E+04  0.12146185131E+04  0.00000000000E+00 0. -1.
         21   -1    0    0  501  502 -0.00000000000E+00 -0.00000000000E+00 -0.64023443793E+02  0.64023443793E+02  0.00000000000E+00 0. -1.
         25    1    1    2    0    0 -0.12268589841E+02 -0.92831636991E+02  0.46500974378E+03  0.49053775893E+03  0.12500000000E+03 0.  0.
         25    1    1    2    0    0  0.76640596127E+02  0.17259638033E+03  0.37882359884E+03  0.44135655712E+03  0.12500000000E+03 0.  0.
         25    1    1    2    0    0 -0.64372006286E+02 -0.79764743338E+02  0.30676172673E+03  0.34674764088E+03  0.12500000000E+03 0.  0.
</event>
<event>
 5    0  0.5797359E-005  0.3506221E+03  0.7546771E-02  0.1062360E+00
         21   -1    0    0  502  501  0.00000000000E+00  0.00000000000E+00  0.89650097101E+03  0.89650097101E+03  0.00000000000E+00 0. -1.
         21   -1    0    0  501  502 -0.00000000000E+00 -0.00000000000E+00 -0.13712852689E+03  0.13712852689E+03  0.00000000000E+00 0. -1.
         25    1    1    2    0    0  0.99833375239E+02  0.26635000091E+02  0.35501154338E+03  0.39030029718E+03  0.12500000000E+03 0.  0.
         25    1    1    2    0    0  0.98873463727E+02 -0.98928610835E+02  0.22003580469E+02  0.18887029789E+03  0.12500000000E+03 0.  0.
         25    1    1    2    0    0 -0.19870683897E+03  0.72293610744E+02  0.38235732026E+03  0.45445890283E+03  0.12500000000E+03 0.  0.
</event>
<event>
 5    0  0.5583350E-005  0.4235653E+03  0.7546771E-02  0.1035912E+00
         21   -1    0    0  502  501  0.00000000000E+00  0.00000000000E+00  0.41995784078E+03  0.41995784078E+03  0.00000000000E+00 0. -1.
         21   -1    0    0  501  502 -0.00000000000E+00 -0.00000000000E+00 -0.42720368222E+03  0.42720368222E+03  0.00000000000E+00 0. -1.
         25    1    1    2    0    0  0.18745044652E+03  0.10464388755E+03  0.20421384214E+03  0.32158405810E+03  0.12500000000E+03 0.  0.
         25    1    1    2    0    0 -0.17166914322E+03 -0.21552976858E+03 -0.81636482209E+02  0.31338936023E+03  0.12500000000E+03 0.  0.
         25    1    1    2    0    0 -0.15781303301E+02  0.11088588103E+03 -0.12982320138E+03  0.21218810467E+03  0.12500000000E+03 0.  0.
</event>
<event>
 5    0  0.5697451E-005  0.2596336E+03  0.7546771E-02  0.1107364E+00
         21   -1    0    0  502  501  0.00000000000E+00  0.00000000000E+00  0.14326160798E+03  0.14326160798E+03  0.00000000000E+00 0. -1.
         21   -1    0    0  501  502 -0.00000000000E+00 -0.00000000000E+00 -0.47053514561E+03  0.47053514561E+03  0.00000000000E+00 0. -1.
         25    1    1    2    0    0  0.41520295521E+01 -0.44006665897E+02  0.16685465467E+02  0.13363094982E+03  0.12500000000E+03 0.  0.
         25    1    1    2    0    0 -0.82037144223E+02  0.14319902151E+02 -0.27821382042E+03  0.31616938894E+03  0.12500000000E+03 0.  0.
         25    1    1    2    0    0  0.77885114671E+02  0.29686763746E+02 -0.65745182673E+02  0.16399641482E+03  0.12500000000E+03 0.  0.
</event>
<event>
 5    0  0.6266093E-005  0.2961241E+03  0.7546771E-02  0.1087194E+00
         21   -1    0    0  502  501  0.00000000000E+00  0.00000000000E+00  0.54649291116E+03  0.54649291116E+03  0.00000000000E+00 0.  1.
         21   -1    0    0  501  502 -0.00000000000E+00 -0.00000000000E+00 -0.16045861047E+03  0.16045861047E+03  0.00000000000E+00 0.  1.
         25    1    1    2    0    0 -0.29386067209E+02  0.74840829426E+02  0.32332469112E+03  0.35584905028E+03  0.12500000000E+03 0.  0.
         25    1    1    2    0    0  0.12760408205E+02  0.51885219827E+02 -0.44020456049E+02  0.14289053364E+03  0.12500000000E+03 0.  0.
         25    1    1    2    0    0  0.16625659004E+02 -0.12672604925E+03  0.10673006561E+03  0.20821193771E+03  0.12500000000E+03 0.  0.
</event>
<event>
 5    0  0.5583350E-005  0.2455602E+03  0.7546771E-02  0.1116143E+00
         21   -1    0    0  502  501  0.00000000000E+00  0.00000000000E+00  0.12085157503E+03  0.12085157503E+03  0.00000000000E+00 0.  1.
         21   -1    0    0  501  502 -0.00000000000E+00 -0.00000000000E+00 -0.49895749768E+03  0.49895749768E+03  0.00000000000E+00 0.  1.
         25    1    1    2    0    0 -0.11557745988E+02 -0.22489945344E+02 -0.40091595483E+02  0.13368513441E+03  0.12500000000E+03 0.  0.
         25    1    1    2    0    0  0.20252913582E+02 -0.79944366065E+02 -0.53923301233E+02  0.15916659383E+03  0.12500000000E+03 0.  0.
         25    1    1    2    0    0 -0.86951675940E+01  0.10243431141E+03 -0.28409102593E+03  0.32695734448E+03  0.12500000000E+03 0.  0.
</event>
<event>
 5    0  0.5583350E-005  0.5774311E+03  0.7546771E-02  0.9953368E-01
         21   -1    0    0  502  501  0.00000000000E+00  0.00000000000E+00  0.19222575197E+04  0.19222575197E+04  0.00000000000E+00 0. -1.
         21   -1    0    0  501  502 -0.00000000000E+00 -0.00000000000E+00 -0.17345579605E+03  0.17345579605E+03  0.00000000000E+00 0. -1.
         25    1    1    2    0    0  0.70738398399E+02 -0.52502179476E+02  0.19917772198E+02  0.15421451782E+03  0.12500000000E+03 0.  0.
         25    1    1    2    0    0  0.13882683567E+03  0.40634320305E+03  0.76527033481E+03  0.88636977290E+03  0.12500000000E+03 0.  0.
         25    1    1    2    0    0 -0.20956523407E+03 -0.35384102357E+03  0.96361361667E+03  0.10551290251E+04  0.12500000000E+03 0.  0.
</event>
<event>
 5    0  0.5583350E-005  0.2290539E+03  0.7546771E-02  0.1127307E+00
         21   -1    0    0  502  501  0.00000000000E+00  0.00000000000E+00  0.45350818080E+03  0.45350818080E+03  0.00000000000E+00 0.  1.
         21   -1    0    0  501  502 -0.00000000000E+00 -0.00000000000E+00 -0.11568851929E+03  0.11568851929E+03  0.00000000000E+00 0.  1.
         25    1    1    2    0    0  0.19811554570E+02  0.67713380628E+02  0.20764058086E+03  0.25242268208E+03  0.12500000000E+03 0.  0.
         25    1    1    2    0    0 -0.11397764396E+02  0.19907341274E+02  0.98140491402E+02  0.16057013210E+03  0.12500000000E+03 0.  0.
         25    1    1    2    0    0 -0.84137901743E+01 -0.87620721902E+02  0.32038589252E+02  0.15620388591E+03  0.12500000000E+03 0.  0.
</event>
<event>
 5    0  0.5583350E-005  0.2543615E+03  0.7546771E-02  0.1110579E+00
         21   -1    0    0  502  501  0.00000000000E+00  0.00000000000E+00  0.80650163599E+02  0.80650163599E+02  0.00000000000E+00 0. -1.
         21   -1    0    0  501  502 -0.00000000000E+00 -0.00000000000E+00 -0.80222737007E+03  0.80222737007E+03  0.00000000000E+00 0. -1.
         25    1    1    2    0    0  0.88353336112E+02  0.32762463459E+01 -0.32817557320E+03  0.36213430194E+03  0.12500000000E+03 0.  0.
         25    1    1    2    0    0 -0.14758844018E+03 -0.37993666034E+02 -0.25177995630E+03  0.31975617700E+03  0.12500000000E+03 0.  0.
         25    1    1    2    0    0  0.59235104067E+02  0.34717419688E+02 -0.14162167697E+03  0.20098705473E+03  0.12500000000E+03 0.  0.
</event>
<event>
 5    0  0.5583350E-005  0.2431084E+03  0.7546771E-02  0.1117739E+00
         21   -1    0    0  502  501  0.00000000000E+00  0.00000000000E+00  0.83926697890E+03  0.83926697890E+03  0.00000000000E+00 0.  1.
         21   -1    0    0  501  502 -0.00000000000E+00 -0.00000000000E+00 -0.70420633416E+02  0.70420633416E+02  0.00000000000E+00 0.  1.
         25    1    1    2    0    0 -0.31827507043E+02 -0.77889254349E+02  0.40884034615E+03  0.43572371382E+03  0.12500000000E+03 0.  0.
         25    1    1    2    0    0  0.58864339831E+02 -0.14151047276E+02  0.23440167183E+03  0.27245991705E+03  0.12500000000E+03 0.  0.
         25    1    1    2    0    0 -0.27036832788E+02  0.92040301625E+02  0.12560432752E+03  0.20150398145E+03  0.12500000000E+03 0.  0.
</event>
<event>
 5    0  0.5583350E-005  0.3651232E+03  0.7546771E-02  0.1056574E+00
         21   -1    0    0  502  501  0.00000000000E+00  0.00000000000E+00  0.37878746118E+03  0.37878746118E+03  0.00000000000E+00 0.  1.
         21   -1    0    0  501  502 -0.00000000000E+00 -0.00000000000E+00 -0.35195183368E+03  0.35195183368E+03  0.00000000000E+00 0.  1.
         25    1    1    2    0    0  0.16408040676E+03 -0.36762241403E+02  0.21492806454E+02  0.21061999669E+03  0.12500000000E+03 0.  0.
         25    1    1    2    0    0 -0.11902869107E+03  0.21743966106E+03  0.70766372688E+02  0.28649732111E+03  0.12500000000E+03 0.  0.
         25    1    1    2    0    0 -0.45051715695E+02 -0.18067741965E+03 -0.65423551645E+02  0.23362197707E+03  0.12500000000E+03 0.  0.
</event>
<event>
 5    0  0.5583350E-005  0.3158044E+03  0.7546771E-02  0.1077597E+00
         21   -1    0    0  502  501  0.00000000000E+00  0.00000000000E+00  0.10245735789E+04  0.10245735789E+04  0.00000000000E+00 0.  1.
         21   -1    0    0  501  502 -0.00000000000E+00 -0.00000000000E+00 -0.97340419568E+02  0.97340419568E+02  0.00000000000E+00 0.  1.
         25    1    1    2    0    0 -0.13475519655E+03  0.10895345525E+03  0.17103408919E+03  0.27369230547E+03  0.12500000000E+03 0.  0.
         25    1    1    2    0    0  0.24614348332E+02  0.53684960201E+02  0.18153010522E+03  0.22818001709E+03  0.12500000000E+03 0.  0.
         25    1    1    2    0    0  0.11014084822E+03 -0.16263841546E+03  0.57466896492E+03  0.62004167591E+03  0.12500000000E+03 0.  0.
</event>
<event>
 5    0  0.5983022E-005  0.2769089E+03  0.7546771E-02  0.1097389E+00
         21   -1    0    0  502  501  0.00000000000E+00  0.00000000000E+00  0.43594113312E+03  0.43594113312E+03  0.00000000000E+00 0.  1.
         21   -1    0    0  501  502 -0.00000000000E+00 -0.00000000000E+00 -0.17589196115E+03  0.17589196115E+03  0.00000000000E+00 0.  1.
         25    1    1    2    0    0  0.53997778877E+01  0.52504522088E+02 -0.36369868601E+02  0.14047650972E+03  0.12500000000E+03 0.  0.
         25    1    1    2    0    0  0.32702013156E+02 -0.15328592967E+03  0.17968524402E+03  0.26921698464E+03  0.12500000000E+03 0.  0.
         25    1    1    2    0    0 -0.38101791043E+02  0.10078140758E+03  0.11673379656E+03  0.20213959991E+03  0.12500000000E+03 0.  0.
</event>
<event>
 5    0  0.5583350E-005  0.5065087E+03  0.7546771E-02  0.1012094E+00
         21   -1    0    0  502  501  0.00000000000E+00  0.00000000000E+00  0.59168339296E+03  0.59168339296E+03  0.00000000000E+00 0.  1.
         21   -1    0    0  501  502 -0.00000000000E+00 -0.00000000000E+00 -0.43359510849E+03  0.43359510849E+03  0.00000000000E+00 0.  1.
         25    1    1    2    0    0  0.26752551887E+03 -0.81878057397E+02 -0.29230776096E+03  0.42348877984E+03  0.12500000000E+03 0.  0.
         25    1    1    2    0    0 -0.79861286997E+02 -0.23143713621E+02  0.17984726857E+03  0.23427227034E+03  0.12500000000E+03 0.  0.
         25    1    1    2    0    0 -0.18766423188E+03  0.10502177102E+03  0.27054877687E+03  0.36751745126E+03  0.12500000000E+03 0.  0.
</event>
<event>
 5    0  0.5583350E-005  0.2466580E+03  0.7546771E-02  0.1115435E+00
         21   -1    0    0  502  501  0.00000000000E+00  0.00000000000E+00  0.17569951330E+03  0.17569951330E+03  0.00000000000E+00 0.  1.
         21   -1    0    0  501  502 -0.00000000000E+00 -0.00000000000E+00 -0.34627409474E+03  0.34627409474E+03  0.00000000000E+00 0.  1.
         25    1    1    2    0    0  0.91025997006E+02 -0.19448350742E+02  0.41332758478E+02  0.16123699142E+03  0.12500000000E+03 0.  0.
         25    1    1    2    0    0  0.84724829406E+00  0.48117450263E+02 -0.10450032027E+03  0.16988620835E+03  0.12500000000E+03 0.  0.
         25    1    1    2    0    0 -0.91873245300E+02 -0.28669099521E+02 -0.10740701964E+03  0.19085040827E+03  0.12500000000E+03 0.  0.
</event>
<event>
 5    0  0.5583350E-005  0.2613978E+03  0.7546771E-02  0.1106306E+00
         21   -1    0    0  502  501  0.00000000000E+00  0.00000000000E+00  0.20235536569E+03  0.20235536569E+03  0.00000000000E+00 0.  1.
         21   -1    0    0  501  502 -0.00000000000E+00 -0.00000000000E+00 -0.33766745367E+03  0.33766745367E+03  0.00000000000E+00 0.  1.
         25    1    1    2    0    0  0.38292425606E+01  0.21355132913E+02  0.80145555028E+02  0.15006336925E+03  0.12500000000E+03 0.  0.
         25    1    1    2    0    0 -0.35190889580E+02 -0.49012370010E+02 -0.21763958368E+03  0.25813291055E+03  0.12500000000E+03 0.  0.
         25    1    1    2    0    0  0.31361647020E+02  0.27657237096E+02  0.21819406793E+01  0.13182653956E+03  0.12500000000E+03 0.  0.
</event>
<event>
 5    0  0.5583350E-005  0.2579205E+03  0.7546771E-02  0.1108399E+00
         21   -1    0    0  502  501  0.00000000000E+00  0.00000000000E+00  0.17445653379E+03  0.17445653379E+03  0.00000000000E+00 0. -1.
         21   -1    0    0  501  502 -0.00000000000E+00 -0.00000000000E+00 -0.38131560137E+03  0.38131560137E+03  0.00000000000E+00 0. -1.
         25    1    1    2    0    0  0.54458025389E+02  0.63475606124E+02 -0.19493959502E+03  0.24621388021E+03  0.12500000000E+03 0.  0.
         25    1    1    2    0    0  0.14500542603E+02  0.35717445566E+02 -0.31710039557E+02  0.13459765326E+03  0.12500000000E+03 0.  0.
         25    1    1    2    0    0 -0.68958567993E+02 -0.99193051690E+02  0.19790567001E+02  0.17496060169E+03  0.12500000000E+03 0.  0.
</event>
<event>
 5    0  0.5583350E-005  0.2254590E+03  0.7546771E-02  0.1129877E+00
         21   -1    0    0  502  501  0.00000000000E+00  0.00000000000E+00  0.14154723568E+03  0.14154723568E+03  0.00000000000E+00 0. -1.
         21   -1    0    0  501  502 -0.00000000000E+00 -0.00000000000E+00 -0.35911503711E+03  0.35911503711E+03  0.00000000000E+00 0. -1.
         25    1    1    2    0    0 -0.37159914515E+02  0.15284235885E+02  0.53423635099E+01  0.13140779262E+03  0.12500000000E+03 0.  0.
         25    1    1    2    0    0  0.28845971264E+02 -0.15631702642E+02 -0.20552161293E+03  0.24277679784E+03  0.12500000000E+03 0.  0.
         25    1    1    2    0    0  0.83139432513E+01  0.34746675736E+00 -0.17388552007E+02  0.12647768233E+03  0.12500000000E+03 0.  0.
</event>
<event>
 5    0  0.5628312E-005  0.2739261E+03  0.7546771E-02  0.1099053E+00
         21   -1    0    0  502  501  0.00000000000E+00  0.00000000000E+00  0.20187720681E+03  0.20187720681E+03  0.00000000000E+00 0.  1.
         21   -1    0    0  501  502 -0.00000000000E+00 -0.00000000000E+00 -0.37168878266E+03  0.37168878266E+03  0.00000000000E+00 0.  1.
         25    1    1    2    0    0 -0.11701566246E+02  0.71912817353E+02  0.43562765580E+02  0.15109961779E+03  0.12500000000E+03 0.  0.
         25    1    1    2    0    0 -0.73295537807E+02  0.19406190454E+02 -0.92680137016E+00  0.14620087227E+03  0.12500000000E+03 0.  0.
         25    1    1    2    0    0  0.84997104053E+02 -0.91319007807E+02 -0.21244754006E+03  0.27626549940E+03  0.12500000000E+03 0.  0.
</event>
<event>
 5    0  0.5583350E-005  0.4777467E+03  0.7546771E-02  0.1019756E+00
         21   -1    0    0  502  501  0.00000000000E+00  0.00000000000E+00  0.19242516569E+03  0.19242516569E+03  0.00000000000E+00 0. -1.
         21   -1    0    0  501  502 -0.00000000000E+00 -0.00000000000E+00 -0.11861332177E+04  0.11861332177E+04  0.00000000000E+00 0. -1.
         25    1    1    2    0    0  0.41722749416E+03 -0.98786447371E+02 -0.54807286167E+03  0.70699816532E+03  0.12500000000E+03 0.  0.
         25    1    1    2    0    0 -0.25186875340E+03  0.35732642807E+02 -0.28402254740E+03  0.40125864244E+03  0.12500000000E+03 0.  0.
         25    1    1    2    0    0 -0.16535874076E+03  0.63053804563E+02 -0.16161264289E+03  0.27030157557E+03  0.12500000000E+03 0.  0.
</event>
<event>
 5    0  0.5583350E-005  0.2726881E+03  0.7546771E-02  0.1099751E+00
         21   -1    0    0  502  501  0.00000000000E+00  0.00000000000E+00  0.19608806852E+03  0.19608806852E+03  0.00000000000E+00 0.  1.
         21   -1    0    0  501  502 -0.00000000000E+00 -0.00000000000E+00 -0.37921123347E+03  0.37921123347E+03  0.00000000000E+00 0.  1.
         25    1    1    2    0    0  0.11226464520E+03 -0.20856970138E+01 -0.57867087368E+02  0.17771128409E+03  0.12500000000E+03 0.  0.
         25    1    1    2    0    0 -0.27355526438E+02 -0.97827262877E+02 -0.14323198599E+03  0.21554326712E+03  0.12500000000E+03 0.  0.
         25    1    1    2    0    0 -0.84909118757E+02  0.99912959891E+02  0.17975908408E+02  0.18204475078E+03  0.12500000000E+03 0.  0.
</event>
<event>
 5    0  0.5583350E-005  0.2493165E+03  0.7546771E-02  0.1113738E+00
         21   -1    0    0  502  501  0.00000000000E+00  0.00000000000E+00  0.52215022923E+03  0.52215022923E+03  0.00000000000E+00 0.  1.
         21   -1    0    0  501  502 -0.00000000000E+00 -0.00000000000E+00 -0.11904370167E+03  0.11904370167E+03  0.00000000000E+00 0.  1.
         25    1    1    2    0    0  0.56453492340E+02 -0.42662966309E+01  0.22083731242E+03  0.25999868584E+03  0.12500000000E+03 0.  0.
         25    1    1    2    0    0 -0.13043640643E+03  0.12528382328E+02  0.14230598348E+03  0.23031849561E+03  0.12500000000E+03 0.  0.
         25    1    1    2    0    0  0.73982914092E+02 -0.82620856968E+01  0.39963231653E+02  0.15087674944E+03  0.12500000000E+03 0.  0.
</event>
<event>
 5    0  0.5583350E-005  0.2803043E+03  0.7546771E-02  0.1095523E+00
         21   -1    0    0  502  501  0.00000000000E+00  0.00000000000E+00  0.25234610353E+03  0.25234610353E+03  0.00000000000E+00 0. -1.
         21   -1    0    0  501  502 -0.00000000000E+00 -0.00000000000E+00 -0.31136003325E+03  0.31136003325E+03  0.00000000000E+00 0. -1.
         25    1    1    2    0    0 -0.41373993192E+02  0.16082839374E+03  0.69758717101E+01  0.20796933027E+03  0.12500000000E+03 0.  0.
         25    1    1    2    0    0  0.10492525025E+03 -0.50235631430E+02 -0.26015512000E+02  0.17272733909E+03  0.12500000000E+03 0.  0.
         25    1    1    2    0    0 -0.63551257059E+02 -0.11059276231E+03 -0.39974289433E+02  0.18300946742E+03  0.12500000000E+03 0.  0.
</event>
<event>
 5    0  0.5583350E-005  0.3787580E+03  0.7546771E-02  0.1051394E+00
         21   -1    0    0  502  501  0.00000000000E+00  0.00000000000E+00  0.89563032153E+03  0.89563032153E+03  0.00000000000E+00 0.  1.
         21   -1    0    0  501  502 -0.00000000000E+00 -0.00000000000E+00 -0.16017506263E+03  0.16017506263E+03  0.00000000000E+00 0.  1.
         25    1    1    2    0    0  0.10765655562E+03  0.23460442111E+03  0.30265209154E+03  0.41695618102E+03  0.12500000000E+03 0.  0.
         25    1    1    2    0    0 -0.12017104773E+03 -0.17125621057E+03  0.43445921631E+03  0.49814614423E+03  0.12500000000E+03 0.  0.
         25    1    1    2    0    0  0.12514492107E+02 -0.63348210540E+02 -0.16560489509E+01  0.14070305892E+03  0.12500000000E+03 0.  0.
</event>
<event>
 5    0  0.6583020E-005  0.6223971E+03  0.7546771E-02  0.9859999E-01
         21   -1    0    0  502  501  0.00000000000E+00  0.00000000000E+00  0.55068222748E+03  0.55068222748E+03  0.00000000000E+00 0. -1.
         21   -1    0    0  501  502 -0.00000000000E+00 -0.00000000000E+00 -0.70345126911E+03  0.70345126911E+03  0.00000000000E+00 0. -1.
         25    1    1    2    0    0  0.26971171070E+03  0.13381793460E+03 -0.11420627371E+03  0.34542686558E+03  0.12500000000E+03 0.  0.
         25    1    1    2    0    0 -0.20966858933E+03 -0.70127032259E+02 -0.42395177745E+03  0.49420524846E+03  0.12500000000E+03 0.  0.
         25    1    1    2    0    0 -0.60043121371E+02 -0.63690902338E+02  0.38538900953E+03  0.41450138255E+03  0.12500000000E+03 0.  0.
</event>
<event>
 5    0  0.5583350E-005  0.2855522E+03  0.7546771E-02  0.1092695E+00
         21   -1    0    0  502  501  0.00000000000E+00  0.00000000000E+00  0.12305647571E+03  0.12305647571E+03  0.00000000000E+00 0.  1.
         21   -1    0    0  501  502 -0.00000000000E+00 -0.00000000000E+00 -0.66262308470E+03  0.66262308470E+03  0.00000000000E+00 0.  1.
         25    1    1    2    0    0 -0.15187980957E+03  0.34295353235E+02 -0.12575875962E+03  0.23597439147E+03  0.12500000000E+03 0.  0.
         25    1    1    2    0    0  0.96155376338E+02  0.67925279594E+02 -0.29600421847E+03  0.34220344440E+03  0.12500000000E+03 0.  0.
         25    1    1    2    0    0  0.55724433228E+02 -0.10222063283E+03 -0.11780363090E+03  0.20750172454E+03  0.12500000000E+03 0.  0.
</event>
<event>
 5    0  0.5583350E-005  0.3422873E+03  0.7546771E-02  0.1065826E+00
         21   -1    0    0  502  501  0.00000000000E+00  0.00000000000E+00  0.23233732008E+03  0.23233732008E+03  0.00000000000E+00 0. -1.
         21   -1    0    0  501  502 -0.00000000000E+00 -0.00000000000E+00 -0.50426929024E+03  0.50426929024E+03  0.00000000000E+00 0. -1.
         25    1    1    2    0    0  0.19903703638E+03 -0.53629058764E+02 -0.10303036594E+03  0.26216802647E+03  0.12500000000E+03 0.  0.
         25    1    1    2    0    0 -0.13357890696E+03  0.13475911720E+02  0.68128441235E+02  0.19568190792E+03  0.12500000000E+03 0.  0.
         25    1    1    2    0    0 -0.65458129427E+02  0.40153147044E+02 -0.23703004546E+03  0.27875667593E+03  0.12500000000E+03 0.  0.
</event>
<event>
 5    0  0.5692755E-005  0.3013939E+03  0.7546771E-02  0.1084546E+00
         21   -1    0    0  502  501  0.00000000000E+00  0.00000000000E+00  0.14184045784E+03  0.14184045784E+03  0.00000000000E+00 0.  1.
         21   -1    0    0  501  502 -0.00000000000E+00 -0.00000000000E+00 -0.64042567100E+03  0.64042567100E+03  0.00000000000E+00 0.  1.
         25    1    1    2    0    0 -0.18187617463E+03 -0.83613183965E+02 -0.32326204958E+03  0.40024175210E+03  0.12500000000E+03 0.  0.
         25    1    1    2    0    0  0.98019851233E+02  0.53393498182E+01 -0.13280627451E+03  0.20712051188E+03  0.12500000000E+03 0.  0.
         25    1    1    2    0    0  0.83856323397E+02  0.78273834146E+02 -0.42516889072E+02  0.17490386486E+03  0.12500000000E+03 0.  0.
</event>
<event>
 5    0  0.5583350E-005  0.2331234E+03  0.7546771E-02  0.1124461E+00
         21   -1    0    0  502  501  0.00000000000E+00  0.00000000000E+00  0.93477884939E+02  0.93477884939E+02  0.00000000000E+00 0.  1.
         21   -1    0    0  501  502 -0.00000000000E+00 -0.00000000000E+00 -0.58138349939E+03  0.58138349939E+03  0.00000000000E+00 0.  1.
         25    1    1    2    0    0 -0.15422336135E+02  0.41247743438E+02 -0.20029928946E+03  0.24017499901E+03  0.12500000000E+03 0.  0.
         25    1    1    2    0    0  0.51481708258E+02  0.71886846399E+02 -0.12432910372E+03  0.19723288520E+03  0.12500000000E+03 0.  0.
         25    1    1    2    0    0 -0.36059372123E+02 -0.11313458984E+03 -0.16327722127E+03  0.23745350012E+03  0.12500000000E+03 0.  0.
</event>
<event>
 5    0  0.5583350E-005  0.3197791E+03  0.7546771E-02  0.1075751E+00
         21   -1    0    0  502  501  0.00000000000E+00  0.00000000000E+00  0.82181277915E+03  0.82181277915E+03  0.00000000000E+00 0. -1.
         21   -1    0    0  501  502 -0.00000000000E+00 -0.00000000000E+00 -0.12443058254E+03  0.12443058254E+03  0.00000000000E+00 0.  1.
         25    1    1    2    0    0  0.13680692708E+03  0.76297108536E+02  0.23907434834E+03  0.31195981808E+03  0.12500000000E+03 0.  0.
         25    1    1    2    0    0 -0.11423686840E+03 -0.26958220653E+02  0.46725413128E+03  0.49772304644E+03  0.12500000000E+03 0.  0.
         25    1    1    2    0    0 -0.22570058679E+02 -0.49338887883E+02 -0.89462829965E+01  0.13656049716E+03  0.12500000000E+03 0.  0.
</event>
<event>
 5    0  0.5583350E-005  0.3212831E+03  0.7546771E-02  0.1075060E+00
         21   -1    0    0  502  501  0.00000000000E+00  0.00000000000E+00  0.14880111338E+03  0.14880111338E+03  0.00000000000E+00 0. -1.
         21   -1    0    0  501  502 -0.00000000000E+00 -0.00000000000E+00 -0.69369678980E+03  0.69369678980E+03  0.00000000000E+00 0. -1.
         25    1    1    2    0    0 -0.51254859584E+02  0.18754063755E+03 -0.29419875626E+03  0.37413428010E+03  0.12500000000E+03 0.  0.
         25    1    1    2    0    0 -0.48369347109E+02 -0.10236709173E+02 -0.19118936952E+02  0.13577524702E+03  0.12500000000E+03 0.  0.
         25    1    1    2    0    0  0.99624206693E+02 -0.17730392838E+03 -0.23157798321E+03  0.33258837605E+03  0.12500000000E+03 0.  0.
</event>
<event>
 5    0  0.5583350E-005  0.2475929E+03  0.7546771E-02  0.1114836E+00
         21   -1    0    0  502  501  0.00000000000E+00  0.00000000000E+00  0.22866117620E+03  0.22866117620E+03  0.00000000000E+00 0. -1.
         21   -1    0    0  501  502 -0.00000000000E+00 -0.00000000000E+00 -0.26809206999E+03  0.26809206999E+03  0.00000000000E+00 0. -1.
         25    1    1    2    0    0 -0.84074179629E+02  0.80351216316E+02  0.39803610460E+01  0.17077947452E+03  0.12500000000E+03 0.  0.
         25    1    1    2    0    0  0.67313372625E+01 -0.44832185975E+02  0.56767916768E+02  0.14457811790E+03  0.12500000000E+03 0.  0.
         25    1    1    2    0    0  0.77342842366E+02 -0.35519030342E+02 -0.10017917160E+03  0.18139565377E+03  0.12500000000E+03 0.  0.
</event>
<event>
 5    0  0.5583350E-005  0.5353839E+03  0.7546771E-02  0.1004935E+00
         21   -1    0    0  502  501  0.00000000000E+00  0.00000000000E+00  0.11087032624E+04  0.11087032624E+04  0.00000000000E+00 0.  1.
         21   -1    0    0  501  502 -0.00000000000E+00 -0.00000000000E+00 -0.25853258038E+03  0.25853258038E+03  0.00000000000E+00 0.  1.
         25    1    1    2    0    0 -0.30755250306E+03  0.12031336691E+03  0.69262896898E+03  0.77744693521E+03  0.12500000000E+03 0.  0.
         25    1    1    2    0    0  0.85566201841E+02  0.37307692513E+02 -0.10777377711E+03  0.18961441361E+03  0.12500000000E+03 0.  0.
         25    1    1    2    0    0  0.22198630122E+03 -0.15762105942E+03  0.26531549013E+03  0.40017449395E+03  0.12500000000E+03 0.  0.
</event>
<event>
 5    0  0.5583350E-005  0.3084028E+03  0.7546771E-02  0.1081114E+00
         21   -1    0    0  502  501  0.00000000000E+00  0.00000000000E+00  0.31521864486E+03  0.31521864486E+03  0.00000000000E+00 0.  1.
         21   -1    0    0  501  502 -0.00000000000E+00 -0.00000000000E+00 -0.30173430300E+03  0.30173430300E+03  0.00000000000E+00 0.  1.
         25    1    1    2    0    0  0.80837592945E+02 -0.88771323259E+02 -0.94494046154E+02  0.19740615245E+03  0.12500000000E+03 0.  0.
         25    1    1    2    0    0  0.10395357406E+03  0.53701438414E+02  0.88857369663E+02  0.19290106841E+03  0.12500000000E+03 0.  0.
         25    1    1    2    0    0 -0.18479116701E+03  0.35069884845E+02  0.19121018346E+02  0.22664572701E+03  0.12500000000E+03 0.  0.
</event>
<event>
 5    0  0.5583350E-005  0.2532951E+03  0.7546771E-02  0.1111240E+00
         21   -1    0    0  502  501  0.00000000000E+00  0.00000000000E+00  0.81853216927E+03  0.81853216927E+03  0.00000000000E+00 0. -1.
         21   -1    0    0  501  502 -0.00000000000E+00 -0.00000000000E+00 -0.78382269785E+02  0.78382269785E+02  0.00000000000E+00 0. -1.
         25    1    1    2    0    0 -0.58269177333E+02 -0.29751318964E+02  0.26218991219E+03  0.29773979926E+03  0.12500000000E+03 0.  0.
         25    1    1    2    0    0  0.97708343674E+02  0.42213822019E+02  0.85270822706E+02  0.18500010918E+03  0.12500000000E+03 0.  0.
         25    1    1    2    0    0 -0.39439166341E+02 -0.12462503054E+02  0.39268916459E+03  0.41417453062E+03  0.12500000000E+03 0.  0.
</event>
<event>
 5    0  0.5583350E-005  0.2394250E+03  0.7546771E-02  0.1120176E+00
         21   -1    0    0  502  501  0.00000000000E+00  0.00000000000E+00  0.23803010863E+03  0.23803010863E+03  0.00000000000E+00 0.  1.
         21   -1    0    0  501  502 -0.00000000000E+00 -0.00000000000E+00 -0.24082803001E+03  0.24082803001E+03  0.00000000000E+00 0.  1.
         25    1    1    2    0    0 -0.23366878298E+02 -0.89572346619E+02 -0.10455923354E+03  0.18742158253E+03  0.12500000000E+03 0.  0.
         25    1    1    2    0    0 -0.84080229638E+01  0.56722046229E+02  0.71270881453E+02  0.15489552583E+03  0.12500000000E+03 0.  0.
         25    1    1    2    0    0  0.31774901262E+02  0.32850300390E+02  0.30490430712E+02  0.13654103028E+03  0.12500000000E+03 0.  0.
</event>
<event>
 5    0  0.5583350E-005  0.2412004E+03  0.7546771E-02  0.1118996E+00
         21   -1    0    0  502  501  0.00000000000E+00  0.00000000000E+00  0.16963300339E+03  0.16963300339E+03  0.00000000000E+00 0.  1.
         21   -1    0    0  501  502 -0.00000000000E+00 -0.00000000000E+00 -0.34296170940E+03  0.34296170940E+03  0.00000000000E+00 0.  1.
         25    1    1    2    0    0 -0.56911713709E+02  0.83431540700E+01 -0.12641309255E+03  0.18685240525E+03  0.12500000000E+03 0.  0.
         25    1    1    2    0    0  0.17846999860E+02  0.73551467303E+02 -0.81697252645E+02  0.16741497793E+03  0.12500000000E+03 0.  0.
         25    1    1    2    0    0  0.39064713849E+02 -0.81894621373E+02  0.34781639190E+02  0.15832732961E+03  0.12500000000E+03 0.  0.
</event>
<event>
 5    0  0.5583350E-005  0.2626465E+03  0.7546771E-02  0.1105563E+00
         21   -1    0    0  502  501  0.00000000000E+00  0.00000000000E+00  0.41097337475E+02  0.41097337475E+02  0.00000000000E+00 0. -1.
         21   -1    0    0  501  502 -0.00000000000E+00 -0.00000000000E+00 -0.16785322727E+04  0.16785322727E+04  0.00000000000E+00 0. -1.
         25    1    1    2    0    0 -0.11630484292E+03 -0.30898749464E+00 -0.31774224009E+03  0.36071046990E+03  0.12500000000E+03 0.  0.
         25    1    1    2    0    0  0.22892918089E+02 -0.24916001326E+02 -0.92056774088E+03  0.92963157131E+03  0.12500000000E+03 0.  0.
         25    1    1    2    0    0  0.93411924828E+02  0.25224988821E+02 -0.39912495425E+03  0.42928756897E+03  0.12500000000E+03 0.  0.
</event>
<event>
 5    0  0.5583350E-005  0.2415742E+03  0.7546771E-02  0.1118749E+00
         21   -1    0    0  502  501  0.00000000000E+00  0.00000000000E+00  0.41397726154E+03  0.41397726154E+03  0.00000000000E+00 0.  1.
         21   -1    0    0  501  502 -0.00000000000E+00 -0.00000000000E+00 -0.14096928256E+03  0.14096928256E+03  0.00000000000E+00 0.  1.
         25    1    1    2    0    0  0.11868464000E+03  0.11280608910E+02  0.14891900512E+03  0.22806833624E+03  0.12500000000E+03 0.  0.
         25    1    1    2    0    0 -0.18179811966E+02 -0.48066334427E+02  0.34378546788E+02  0.13945523492E+03  0.12500000000E+03 0.  0.
         25    1    1    2    0    0 -0.10050482804E+03  0.36785725517E+02  0.89710427073E+02  0.18742297294E+03  0.12500000000E+03 0.  0.
</event>
<event>
 5    0  0.5583350E-005  0.2879553E+03  0.7546771E-02  0.1091422E+00
         21   -1    0    0  502  501  0.00000000000E+00  0.00000000000E+00  0.21587623692E+03  0.21587623692E+03  0.00000000000E+00 0.  1.
         21   -1    0    0  501  502 -0.00000000000E+00 -0.00000000000E+00 -0.38410084292E+03  0.38410084292E+03  0.00000000000E+00 0.  1.
         25    1    1    2    0    0 -0.82405918748E+02  0.13170927397E+03 -0.42891409334E+02  0.20396750057E+03  0.12500000000E+03 0.  0.
         25    1    1    2    0    0 -0.34489981138E+02 -0.15505813019E+03 -0.80379639411E+02  0.21752808777E+03  0.12500000000E+03 0.  0.
         25    1    1    2    0    0  0.11689589989E+03  0.23348856216E+02 -0.44953557261E+02  0.17848149150E+03  0.12500000000E+03 0.  0.
</event>
<event>
 5    0  0.5583350E-005  0.4750715E+03  0.7546771E-02  0.1020499E+00
         21   -1    0    0  502  501  0.00000000000E+00  0.00000000000E+00  0.51510802264E+03  0.51510802264E+03  0.00000000000E+00 0.  1.
         21   -1    0    0  501  502 -0.00000000000E+00 -0.00000000000E+00 -0.43814687268E+03  0.43814687268E+03  0.00000000000E+00 0.  1.
         25    1    1    2    0    0 -0.23343289070E+03  0.75590958569E+02  0.42073985349E+02  0.27856799479E+03  0.12500000000E+03 0.  0.
         25    1    1    2    0    0  0.10720156922E+03 -0.32435634403E+03 -0.19125251901E+02  0.36426637178E+03  0.12500000000E+03 0.  0.
         25    1    1    2    0    0  0.12623132149E+03  0.24876538546E+03  0.54012416511E+02  0.31042052874E+03  0.12500000000E+03 0.  0.
</event>
<event>
 5    0  0.5583350E-005  0.4129368E+03  0.7546771E-02  0.1039390E+00
         21   -1    0    0  502  501  0.00000000000E+00  0.00000000000E+00  0.49478088513E+03  0.49478088513E+03  0.00000000000E+00 0. -1.
         21   -1    0    0  501  502 -0.00000000000E+00 -0.00000000000E+00 -0.34463098772E+03  0.34463098772E+03  0.00000000000E+00 0. -1.
         25    1    1    2    0    0 -0.10590264066E+03 -0.32236873412E+03  0.16930178257E+03  0.39928068275E+03  0.12500000000E+03 0.  0.
         25    1    1    2    0    0  0.77423983647E+02  0.25482869643E+03 -0.19902386305E+01  0.29421267617E+03  0.12500000000E+03 0.  0.
         25    1    1    2    0    0  0.28478657012E+02  0.67540037685E+02 -0.17161646531E+02  0.14591851393E+03  0.12500000000E+03 0.  0.
</event>
<event>
 5    0  0.5583350E-005  0.2357699E+03  0.7546771E-02  0.1122643E+00
         21   -1    0    0  502  501  0.00000000000E+00  0.00000000000E+00  0.44767079219E+03  0.44767079219E+03  0.00000000000E+00 0.  1.
         21   -1    0    0  501  502 -0.00000000000E+00 -0.00000000000E+00 -0.12417038892E+03  0.12417038892E+03  0.00000000000E+00 0.  1.
         25    1    1    2    0    0 -0.46336793743E+02 -0.10870568401E+03  0.93603645737E+02  0.19583326246E+03  0.12500000000E+03 0.  0.
         25    1    1    2    0    0  0.38751256348E+02  0.46248978720E+02  0.48771731318E+02  0.14712005192E+03  0.12500000000E+03 0.  0.
         25    1    1    2    0    0  0.75855373944E+01  0.62456705289E+02  0.18112502622E+03  0.22888786673E+03  0.12500000000E+03 0.  0.
</event>
<event>
 5    0  0.5583350E-005  0.3238305E+03  0.7546771E-02  0.1073900E+00
         21   -1    0    0  502  501  0.00000000000E+00  0.00000000000E+00  0.10959601829E+04  0.10959601829E+04  0.00000000000E+00 0. -1.
         21   -1    0    0  501  502 -0.00000000000E+00 -0.00000000000E+00 -0.95684301551E+02  0.95684301551E+02  0.00000000000E+00 0. -1.
         25    1    1    2    0    0  0.87025758325E+02 -0.12287297022E+03  0.18102739995E+03  0.26658426239E+03  0.12500000000E+03 0.  0.
         25    1    1    2    0    0  0.85480390404E+02 -0.45316881921E+02  0.29095404710E+03  0.33111897327E+03  0.12500000000E+03 0.  0.
         25    1    1    2    0    0 -0.17250614873E+03  0.16818985214E+03  0.52829443429E+03  0.59394124879E+03  0.12500000000E+03 0.  0.
</event>
<event>
 5    0  0.5583350E-005  0.5701676E+03  0.7546771E-02  0.9969308E-01
         21   -1    0    0  502  501  0.00000000000E+00  0.00000000000E+00  0.43544766155E+03  0.43544766155E+03  0.00000000000E+00 0.  1.
         21   -1    0    0  501  502 -0.00000000000E+00 -0.00000000000E+00 -0.74656759264E+03  0.74656759264E+03  0.00000000000E+00 0.  1.
         25    1    1    2    0    0  0.28899780915E+03  0.33436392680E+03 -0.31057848235E+03  0.55443932305E+03  0.12500000000E+03 0.  0.
         25    1    1    2    0    0 -0.32424208043E+03 -0.12443807500E+03 -0.59256357586E+02  0.37383696599E+03  0.12500000000E+03 0.  0.
         25    1    1    2    0    0  0.35244271271E+02 -0.20992585180E+03  0.58714908850E+02  0.25373896515E+03  0.12500000000E+03 0.  0.
</event>
<event>
 5    0  0.5583350E-005  0.2648466E+03  0.7546771E-02  0.1104266E+00
         21   -1    0    0  502  501  0.00000000000E+00  0.00000000000E+00  0.14800592004E+04  0.14800592004E+04  0.00000000000E+00 0.  1.
         21   -1    0    0  501  502 -0.00000000000E+00 -0.00000000000E+00 -0.47392493067E+02  0.47392493067E+02  0.00000000000E+00 0.  1.
         25    1    1    2    0    0 -0.11861248400E+03 -0.51620752597E+01  0.82949659814E+03  0.84722203389E+03  0.12500000000E+03 0.  0.
         25    1    1    2    0    0  0.11950480913E+03 -0.66599275897E+00  0.45219005715E+03  0.48413086117E+03  0.12500000000E+03 0.  0.
         25    1    1    2    0    0 -0.89232512702E+00  0.58280680187E+01  0.15098005203E+03  0.19609879840E+03  0.12500000000E+03 0.  0.
</event>
<event>
 5    0  0.5583350E-005  0.3158663E+03  0.7546771E-02  0.1077568E+00
         21   -1    0    0  502  501  0.00000000000E+00  0.00000000000E+00  0.85833100123E+03  0.85833100123E+03  0.00000000000E+00 0. -1.
         21   -1    0    0  501  502 -0.00000000000E+00 -0.00000000000E+00 -0.11623896332E+03  0.11623896332E+03  0.00000000000E+00 0. -1.
         25    1    1    2    0    0 -0.40354080886E+01  0.70662377140E+02  0.61447592874E+02  0.15623784027E+03  0.12500000000E+03 0.  0.
         25    1    1    2    0    0 -0.89809269340E+02 -0.11524624924E+03  0.10274881682E+03  0.21801312387E+03  0.12500000000E+03 0.  0.
         25    1    1    2    0    0  0.93844677428E+02  0.44583872096E+02  0.57789562822E+03  0.60031900040E+03  0.12500000000E+03 0.  0.
</event>
<event>
 5    0  0.5973201E-005  0.3337614E+03  0.7546771E-02  0.1069485E+00
         21   -1    0    0  502  501  0.00000000000E+00  0.00000000000E+00  0.46940987362E+03  0.46940987362E+03  0.00000000000E+00 0. -1.
         21   -1    0    0  501  502 -0.00000000000E+00 -0.00000000000E+00 -0.23731214864E+03  0.23731214864E+03  0.00000000000E+00 0. -1.
         25    1    1    2    0    0  0.11549581738E+03  0.41528290202E+02  0.25615713141E+02  0.17704532606E+03  0.12500000000E+03 0.  0.
         25    1    1    2    0    0 -0.32082691423E+02  0.63365155958E+02 -0.98214300414E+02  0.17411344257E+03  0.12500000000E+03 0.  0.
         25    1    1    2    0    0 -0.83413125960E+02 -0.10489344616E+03  0.30469631225E+03  0.35556325362E+03  0.12500000000E+03 0.  0.
</event>
<event>
 5    0  0.5583350E-005  0.2998110E+03  0.7546771E-02  0.1085335E+00
         21   -1    0    0  502  501  0.00000000000E+00  0.00000000000E+00  0.20854762533E+03  0.20854762533E+03  0.00000000000E+00 0. -1.
         21   -1    0    0  501  502 -0.00000000000E+00 -0.00000000000E+00 -0.43101253746E+03  0.43101253746E+03  0.00000000000E+00 0. -1.
         25    1    1    2    0    0  0.20365262599E+03 -0.87415160830E+02 -0.12200020495E+03  0.28217875970E+03  0.12500000000E+03 0.  0.
         25    1    1    2    0    0 -0.84072282301E+02  0.19939447396E+02 -0.14134127773E+02  0.15261226616E+03  0.12500000000E+03 0.  0.
         25    1    1    2    0    0 -0.11958034369E+03  0.67475713434E+02 -0.86330579406E+02  0.20476913693E+03  0.12500000000E+03 0.  0.
</event>
<event>
 5    0  0.5583350E-005  0.2615041E+03  0.7546771E-02  0.1106243E+00
         21   -1    0    0  502  501  0.00000000000E+00  0.00000000000E+00  0.28917038175E+02  0.28917038175E+02  0.00000000000E+00 0.  1.
         21   -1    0    0  501  502 -0.00000000000E+00 -0.00000000000E+00 -0.23648470897E+04  0.23648470897E+04  0.00000000000E+00 0.  1.
         25    1    1    2    0    0  0.38522317687E+02  0.69193101605E+02 -0.74921496307E+03  0.76368823165E+03  0.12500000000E+03 0.  0.
         25    1    1    2    0    0 -0.13385523443E+03  0.56573801621E+01 -0.10487331867E+04  0.10646198977E+04  0.12500000000E+03 0.  0.
         25    1    1    2    0    0  0.95332916740E+02 -0.74850481767E+02 -0.53798190180E+03  0.56545599855E+03  0.12500000000E+03 0.  0.
</event>
<event>
 5    0  0.5583350E-005  0.2604145E+03  0.7546771E-02  0.1106894E+00
         21   -1    0    0  502  501  0.00000000000E+00  0.00000000000E+00  0.19992818912E+03  0.19992818912E+03  0.00000000000E+00 0. -1.
         21   -1    0    0  501  502 -0.00000000000E+00 -0.00000000000E+00 -0.33920024987E+03  0.33920024987E+03  0.00000000000E+00 0. -1.
         25    1    1    2    0    0  0.52585580273E+01 -0.89917641762E+02 -0.27252769153E+02  0.15646260946E+03  0.12500000000E+03 0.  0.
         25    1    1    2    0    0  0.10121796988E+03  0.95109767244E+02 -0.56320867764E+01  0.18694294759E+03  0.12500000000E+03 0.  0.
         25    1    1    2    0    0 -0.10647652791E+03 -0.51921254817E+01 -0.10638720482E+03  0.19572288193E+03  0.12500000000E+03 0.  0.
</event>
<event>
 5    0  0.5583350E-005  0.3350457E+03  0.7546771E-02  0.1068926E+00
         21   -1    0    0  502  501  0.00000000000E+00  0.00000000000E+00  0.10670812438E+04  0.10670812438E+04  0.00000000000E+00 0. -1.
         21   -1    0    0  501  502 -0.00000000000E+00 -0.00000000000E+00 -0.10519872785E+03  0.10519872785E+03  0.00000000000E+00 0. -1.
         25    1    1    2    0    0  0.85774325542E+02  0.12725817728E+03  0.23112527381E+03  0.30429553201E+03  0.12500000000E+03 0.  0.
         25    1    1    2    0    0 -0.21477453748E+03 -0.38756523555E+01  0.42852740797E+03  0.49538254109E+03  0.12500000000E+03 0.  0.
         25    1    1    2    0    0  0.12900021194E+03 -0.12338252493E+03  0.30222983413E+03  0.37260189852E+03  0.12500000000E+03 0.  0.
</event>
<event>
 5    0  0.5583350E-005  0.3020476E+03  0.7546771E-02  0.1084221E+00
         21   -1    0    0  502  501  0.00000000000E+00  0.00000000000E+00  0.53990188879E+03  0.53990188879E+03  0.00000000000E+00 0.  1.
         21   -1    0    0  501  502 -0.00000000000E+00 -0.00000000000E+00 -0.16898023954E+03  0.16898023954E+03  0.00000000000E+00 0.  1.
         25    1    1    2    0    0  0.62127323918E+02 -0.27988681615E+02  0.59913392522E+02  0.15445965583E+03  0.12500000000E+03 0.  0.
         25    1    1    2    0    0  0.86727749192E+02  0.14370393522E+03  0.23753378713E+03  0.31657514670E+03  0.12500000000E+03 0.  0.
         25    1    1    2    0    0 -0.14885507311E+03 -0.11571525361E+03  0.73474469594E+02  0.23784732580E+03  0.12500000000E+03 0.  0.
</event>
<event>
 5    0  0.5583350E-005  0.2650205E+03  0.7546771E-02  0.1104164E+00
         21   -1    0    0  502  501  0.00000000000E+00  0.00000000000E+00  0.67784495786E+02  0.67784495786E+02  0.00000000000E+00 0. -1.
         21   -1    0    0  501  502 -0.00000000000E+00 -0.00000000000E+00 -0.10361643080E+04  0.10361643080E+04  0.00000000000E+00 0. -1.
         25    1    1    2    0    0  0.63347642200E+02 -0.43448645182E+02 -0.23675529210E+03  0.27852966965E+03  0.12500000000E+03 0.  0.
         25    1    1    2    0    0 -0.33244680537E+02 -0.11335769691E+03 -0.25641828380E+03  0.30875639669E+03  0.12500000000E+03 0.  0.
         25    1    1    2    0    0 -0.30102961663E+02  0.15680634209E+03 -0.47520623629E+03  0.51666273742E+03  0.12500000000E+03 0.  0.
</event>
<event>
 5    0  0.5583350E-005  0.2624780E+03  0.7546771E-02  0.1105663E+00
         21   -1    0    0  502  501  0.00000000000E+00  0.00000000000E+00  0.25240456818E+03  0.25240456818E+03  0.00000000000E+00 0.  1.
         21   -1    0    0  501  502 -0.00000000000E+00 -0.00000000000E+00 -0.27295342710E+03  0.27295342710E+03  0.00000000000E+00 0.  1.
         25    1    1    2    0    0  0.65302499621E+02 -0.75670642860E+00  0.77452157236E+02  0.16090004886E+03  0.12500000000E+03 0.  0.
         25    1    1    2    0    0 -0.17815486397E+02 -0.95336775028E+02  0.23326110875E+02  0.15992373081E+03  0.12500000000E+03 0.  0.
         25    1    1    2    0    0 -0.47487013225E+02  0.96093481457E+02 -0.12132712703E+03  0.20453421561E+03  0.12500000000E+03 0.  0.
</event>
<event>
 5    0  0.5863299E-005  0.2926033E+03  0.7546771E-02  0.1088998E+00
         21   -1    0    0  502  501  0.00000000000E+00  0.00000000000E+00  0.34451371401E+03  0.34451371401E+03  0.00000000000E+00 0.  1.
         21   -1    0    0  501  502 -0.00000000000E+00 -0.00000000000E+00 -0.24851467306E+03  0.24851467306E+03  0.00000000000E+00 0.  1.
         25    1    1    2    0    0  0.28350913840E+02  0.24993299834E+02  0.21040835037E+03  0.24763907862E+03  0.12500000000E+03 0.  0.
         25    1    1    2    0    0  0.88545428989E+02 -0.19140736934E+01 -0.53103579996E+02  0.16213866560E+03  0.12500000000E+03 0.  0.
         25    1    1    2    0    0 -0.11689634283E+03 -0.23079226141E+02 -0.61305729423E+02  0.18325064285E+03  0.12500000000E+03 0.  0.
</event>
<event>
 5    0  0.5583350E-005  0.2403976E+03  0.7546771E-02  0.1119528E+00
         21   -1    0    0  502  501  0.00000000000E+00  0.00000000000E+00  0.29319951937E+03  0.29319951937E+03  0.00000000000E+00 0.  1.
         21   -1    0    0  501  502 -0.00000000000E+00 -0.00000000000E+00 -0.19710478677E+03  0.19710478677E+03  0.00000000000E+00 0.  1.
         25    1    1    2    0    0 -0.74898609805E+01 -0.11700388188E+03  0.50523249460E+02  0.17867178045E+03  0.12500000000E+03 0.  0.
         25    1    1    2    0    0  0.21555760840E+02  0.63321967907E+02 -0.43648179771E+02  0.14833909142E+03  0.12500000000E+03 0.  0.
         25    1    1    2    0    0 -0.14065899859E+02  0.53681913971E+02  0.89219662909E+02  0.16329343427E+03  0.12500000000E+03 0.  0.
</event>
<event>
 5    0  0.5583350E-005  0.4504654E+03  0.7546771E-02  0.1027583E+00
         21   -1    0    0  502  501  0.00000000000E+00  0.00000000000E+00  0.60137688145E+03  0.60137688145E+03  0.00000000000E+00 0.  1.
         21   -1    0    0  501  502 -0.00000000000E+00 -0.00000000000E+00 -0.33742419867E+03  0.33742419867E+03  0.00000000000E+00 0.  1.
         25    1    1    2    0    0  0.44798964930E+02 -0.62176294131E+02  0.39098223017E+02  0.15174488411E+03  0.12500000000E+03 0.  0.
         25    1    1    2    0    0  0.74607026243E+02  0.31069011519E+03  0.32057280522E+03  0.46955987849E+03  0.12500000000E+03 0.  0.
         25    1    1    2    0    0 -0.11940599117E+03 -0.24851382106E+03 -0.95718345455E+02  0.31749631752E+03  0.12500000000E+03 0.  0.
</event>
<event>
 5    0  0.5583350E-005  0.4198816E+03  0.7546771E-02  0.1037105E+00
         21   -1    0    0  502  501  0.00000000000E+00  0.00000000000E+00  0.40673129657E+03  0.40673129657E+03  0.00000000000E+00 0.  1.
         21   -1    0    0  501  502 -0.00000000000E+00 -0.00000000000E+00 -0.43345710745E+03  0.43345710745E+03  0.00000000000E+00 0.  1.
         25    1    1    2    0    0  0.27986905232E+02 -0.16658078709E+02 -0.14696605659E+03  0.19566496938E+03  0.12500000000E+03 0.  0.
         25    1    1    2    0    0 -0.23213611390E+03 -0.10578075569E+03  0.21836009324E+03  0.35830555950E+03  0.12500000000E+03 0.  0.
         25    1    1    2    0    0  0.20414920867E+03  0.12243883440E+03 -0.98119847530E+02  0.28621787514E+03  0.12500000000E+03 0.  0.
</event>
<event>
 5    0  0.5583350E-005  0.2832507E+03  0.7546771E-02  0.1093927E+00
         21   -1    0    0  502  501  0.00000000000E+00  0.00000000000E+00  0.24419038499E+03  0.24419038499E+03  0.00000000000E+00 0. -1.
         21   -1    0    0  501  502 -0.00000000000E+00 -0.00000000000E+00 -0.32855896627E+03  0.32855896627E+03  0.00000000000E+00 0. -1.
         25    1    1    2    0    0 -0.23458290122E+02 -0.77220821636E+02  0.71952466741E+02  0.16527402742E+03  0.12500000000E+03 0.  0.
         25    1    1    2    0    0  0.57856047371E+02  0.66943737963E+02  0.52134734392E+02  0.16177705894E+03  0.12500000000E+03 0.  0.
         25    1    1    2    0    0 -0.34397757249E+02  0.10277083674E+02 -0.20845578242E+03  0.24569826490E+03  0.12500000000E+03 0.  0.
</event>
<event>
 5    0  0.5804500E-005  0.3587181E+03  0.7546771E-02  0.1059093E+00
         21   -1    0    0  502  501  0.00000000000E+00  0.00000000000E+00  0.14823831099E+03  0.14823831099E+03  0.00000000000E+00 0. -1.
         21   -1    0    0  501  502 -0.00000000000E+00 -0.00000000000E+00 -0.86805274503E+03  0.86805274503E+03  0.00000000000E+00 0. -1.
         25    1    1    2    0    0 -0.88242163659E+02 -0.44886077018E+02 -0.23324961924E+03  0.28254526051E+03  0.12500000000E+03 0.  0.
         25    1    1    2    0    0  0.38844034769E+02  0.93823566602E+02  0.57642981216E+02  0.17105389201E+03  0.12500000000E+03 0.  0.
         25    1    1    2    0    0  0.49398128890E+02 -0.48937489583E+02 -0.54420779602E+03  0.56269190351E+03  0.12500000000E+03 0.  0.
</event>
<event>
 5    0  0.5583350E-005  0.2306036E+03  0.7546771E-02  0.1126216E+00
         21   -1    0    0  502  501  0.00000000000E+00  0.00000000000E+00  0.11504083913E+03  0.11504083913E+03  0.00000000000E+00 0.  1.
         21   -1    0    0  501  502 -0.00000000000E+00 -0.00000000000E+00 -0.46225334082E+03  0.46225334082E+03  0.00000000000E+00 0.  1.
         25    1    1    2    0    0 -0.85487278082E+02  0.34853951034E+02 -0.13280347129E+03  0.20441290224E+03  0.12500000000E+03 0.  0.
         25    1    1    2    0    0  0.11517750962E+03  0.51232376151E+01 -0.10940047484E+03  0.20220180559E+03  0.12500000000E+03 0.  0.
         25    1    1    2    0    0 -0.29690231541E+02 -0.39977188650E+02 -0.10500855556E+03  0.17067947212E+03  0.12500000000E+03 0.  0.
</event>
<event>
 5    0  0.5583350E-005  0.2767048E+03  0.7546771E-02  0.1097502E+00
         21   -1    0    0  502  501  0.00000000000E+00  0.00000000000E+00  0.66674662754E+03  0.66674662754E+03  0.00000000000E+00 0. -1.
         21   -1    0    0  501  502 -0.00000000000E+00 -0.00000000000E+00 -0.11483451982E+03  0.11483451982E+03  0.00000000000E+00 0. -1.
         25    1    1    2    0    0 -0.67397047256E+02  0.20269816985E+02  0.12666327646E+03  0.19136826556E+03  0.12500000000E+03 0.  0.
         25    1    1    2    0    0 -0.11906777232E+02 -0.16063017318E+03  0.18814853727E+03  0.27743232681E+03  0.12500000000E+03 0.  0.
         25    1    1    2    0    0  0.79303824488E+02  0.14036035620E+03  0.23710029400E+03  0.31278055500E+03  0.12500000000E+03 0.  0.
</event>
<event>
 5    0  0.5583350E-005  0.4410433E+03  0.7546771E-02  0.1030427E+00
         21   -1    0    0  502  501  0.00000000000E+00  0.00000000000E+00  0.11004138873E+04  0.11004138873E+04  0.00000000000E+00 0. -1.
         21   -1    0    0  501  502 -0.00000000000E+00 -0.00000000000E+00 -0.17676914414E+03  0.17676914414E+03  0.00000000000E+00 0. -1.
         25    1    1    2    0    0  0.30000351435E+03 -0.75629797227E+02  0.29948915896E+03  0.44837565856E+03  0.12500000000E+03 0.  0.
         25    1    1    2    0    0 -0.94604562098E+02 -0.62169221078E+02  0.27416035053E+02  0.17085571163E+03  0.12500000000E+03 0.  0.
         25    1    1    2    0    0 -0.20539895225E+03  0.13779901831E+03  0.59673954914E+03  0.65795166125E+03  0.12500000000E+03 0.  0.
</event>
<event>
 5    0  0.5583350E-005  0.2617644E+03  0.7546771E-02  0.1106088E+00
         21   -1    0    0  502  501  0.00000000000E+00  0.00000000000E+00  0.25095996807E+03  0.25095996807E+03  0.00000000000E+00 0. -1.
         21   -1    0    0  501  502 -0.00000000000E+00 -0.00000000000E+00 -0.27303390576E+03  0.27303390576E+03  0.00000000000E+00 0. -1.
         25    1    1    2    0    0 -0.43731449408E+02 -0.11260909956E+02  0.15361375421E+02  0.13379170234E+03  0.12500000000E+03 0.  0.
         25    1    1    2    0    0  0.24735247055E+02  0.73837292561E+02 -0.14963513531E+03  0.20995107034E+03  0.12500000000E+03 0.  0.
         25    1    1    2    0    0  0.18996202352E+02 -0.62576382605E+02  0.11219982220E+03  0.18025110115E+03  0.12500000000E+03 0.  0.
</event>
<event>
 5    0  0.5583350E-005  0.5394308E+03  0.7546771E-02  0.1003970E+00
         21   -1    0    0  502  501  0.00000000000E+00  0.00000000000E+00  0.24951125942E+03  0.24951125942E+03  0.00000000000E+00 0. -1.
         21   -1    0    0  501  502 -0.00000000000E+00 -0.00000000000E+00 -0.11662223711E+04  0.11662223711E+04  0.00000000000E+00 0. -1.
         25    1    1    2    0    0  0.69482414267E+02  0.35168691910E+03 -0.13102869652E+03  0.40162795504E+03  0.12500000000E+03 0.  0.
         25    1    1    2    0    0 -0.18642986837E+03 -0.22018726029E+03 -0.72443649561E+03  0.78972891652E+03  0.12500000000E+03 0.  0.
         25    1    1    2    0    0  0.11694745410E+03 -0.13149965881E+03 -0.61245919514E+02  0.22437675892E+03  0.12500000000E+03 0.  0.
</event>
<event>
 5    0  0.5583350E-005  0.3517438E+03  0.7546771E-02  0.1061902E+00
         21   -1    0    0  502  501  0.00000000000E+00  0.00000000000E+00  0.40101565945E+03  0.40101565945E+03  0.00000000000E+00 0. -1.
         21   -1    0    0  501  502 -0.00000000000E+00 -0.00000000000E+00 -0.30852590681E+03  0.30852590681E+03  0.00000000000E+00 0. -1.
         25    1    1    2    0    0 -0.24206468208E+03  0.17772265194E+02  0.25711342981E+02  0.27422114594E+03  0.12500000000E+03 0.  0.
         25    1    1    2    0    0 -0.10404724969E+02 -0.31129343856E+02  0.81690022143E+02  0.15289066050E+03  0.12500000000E+03 0.  0.
         25    1    1    2    0    0  0.25246940705E+03  0.13357078663E+02 -0.14911612489E+02  0.28242975982E+03  0.12500000000E+03 0.  0.
</event>
<event>
 5    0  0.5583350E-005  0.3884463E+03  0.7546771E-02  0.1047855E+00
         21   -1    0    0  502  501  0.00000000000E+00  0.00000000000E+00  0.42572120297E+03  0.42572120297E+03  0.00000000000E+00 0. -1.
         21   -1    0    0  501  502 -0.00000000000E+00 -0.00000000000E+00 -0.35443513860E+03  0.35443513860E+03  0.00000000000E+00 0. -1.
         25    1    1    2    0    0  0.25780421098E+03  0.57269940697E+02  0.19946117212E+03  0.35376915706E+03  0.12500000000E+03 0.  0.
         25    1    1    2    0    0 -0.13448464674E+03  0.34558740265E+02  0.62580036427E+01  0.18693471948E+03  0.12500000000E+03 0.  0.
         25    1    1    2    0    0 -0.12331956424E+03 -0.91828680963E+02 -0.13443311139E+03  0.23945246503E+03  0.12500000000E+03 0.  0.
</event>
<event>
 5    0  0.5583350E-005  0.2946812E+03  0.7546771E-02  0.1087930E+00
         21   -1    0    0  502  501  0.00000000000E+00  0.00000000000E+00  0.62853057350E+02  0.62853057350E+02  0.00000000000E+00 0. -1.
         21   -1    0    0  501  502 -0.00000000000E+00 -0.00000000000E+00 -0.13815874456E+04  0.13815874456E+04  0.00000000000E+00 0. -1.
         25    1    1    2    0    0 -0.30945040514E+02 -0.25904668248E+02 -0.50978537906E+03  0.52643592210E+03  0.12500000000E+03 0.  0.
         25    1    1    2    0    0 -0.63860510169E+02  0.57756346807E+02 -0.71803786649E+03  0.73390553757E+03  0.12500000000E+03 0.  0.
         25    1    1    2    0    0  0.94805550683E+02 -0.31851678558E+02 -0.90911142670E+02  0.18409904326E+03  0.12500000000E+03 0.  0.
</event>
<event>
 5    0  0.5583350E-005  0.2764105E+03  0.7546771E-02  0.1097666E+00
         21   -1    0    0  502  501  0.00000000000E+00  0.00000000000E+00  0.35834291968E+02  0.35834291968E+02  0.00000000000E+00 0. -1.
         21   -1    0    0  501  502 -0.00000000000E+00 -0.00000000000E+00 -0.21321130800E+04  0.21321130800E+04  0.00000000000E+00 0. -1.
         25    1    1    2    0    0  0.18862835699E+02  0.39804194995E+02 -0.69902337744E+03  0.71147653701E+03  0.12500000000E+03 0.  0.
         25    1    1    2    0    0  0.86989312435E+02 -0.14645401245E+03 -0.83064628882E+03  0.85709636295E+03  0.12500000000E+03 0.  0.
         25    1    1    2    0    0 -0.10585214813E+03  0.10664981745E+03 -0.56660912176E+03  0.59937447200E+03  0.12500000000E+03 0.  0.
</event>
<event>
 5    0  0.5583350E-005  0.3440950E+03  0.7546771E-02  0.1065065E+00
         21   -1    0    0  502  501  0.00000000000E+00  0.00000000000E+00  0.28142705260E+03  0.28142705260E+03  0.00000000000E+00 0. -1.
         21   -1    0    0  501  502 -0.00000000000E+00 -0.00000000000E+00 -0.42071767456E+03  0.42071767456E+03  0.00000000000E+00 0. -1.
         25    1    1    2    0    0 -0.87822806923E+02  0.25676065371E+03 -0.83862479124E+02  0.31031724753E+03  0.12500000000E+03 0.  0.
         25    1    1    2    0    0  0.60904371915E+01 -0.54662557918E+02 -0.21749958584E+02  0.13828647570E+03  0.12500000000E+03 0.  0.
         25    1    1    2    0    0  0.81732369731E+02 -0.20209809579E+03 -0.33678184246E+02  0.25354100394E+03  0.12500000000E+03 0.  0.
</event>
<event>
 5    0  0.5583350E-005  0.4517564E+03  0.7546771E-02  0.1027200E+00
         21   -1    0    0  502  501  0.00000000000E+00  0.00000000000E+00  0.53616242747E+03  0.53616242747E+03  0.00000000000E+00 0. -1.
         21   -1    0    0  501  502 -0.00000000000E+00 -0.00000000000E+00 -0.38063807112E+03  0.38063807112E+03  0.00000000000E+00 0. -1.
         25    1    1    2    0    0  0.18501589717E+03 -0.28954354109E+03  0.25726507001E+03  0.44707567664E+03  0.12500000000E+03 0.  0.
         25    1    1    2    0    0 -0.26616276634E+02  0.13540357616E+03 -0.10890909354E+03  0.21570522774E+03  0.12500000000E+03 0.  0.
         25    1    1    2    0    0 -0.15839962054E+03  0.15413996493E+03  0.71683798858E+01  0.25401959422E+03  0.12500000000E+03 0.  0.
</event>
<event>
 5    0  0.5583350E-005  0.3765296E+03  0.7546771E-02  0.1052224E+00
         21   -1    0    0  502  501  0.00000000000E+00  0.00000000000E+00  0.81387913669E+03  0.81387913669E+03  0.00000000000E+00 0. -1.
         21   -1    0    0  501  502 -0.00000000000E+00 -0.00000000000E+00 -0.17419604152E+03  0.17419604152E+03  0.00000000000E+00 0. -1.
         25    1    1    2    0    0 -0.12225172461E+02 -0.53688739068E+02  0.33953250732E+03  0.36597712916E+03  0.12500000000E+03 0.  0.
         25    1    1    2    0    0 -0.15279947469E+03 -0.15345828493E+03  0.11182470685E+03  0.27391036808E+03  0.12500000000E+03 0.  0.
         25    1    1    2    0    0  0.16502464715E+03  0.20714702400E+03  0.18832588100E+03  0.34818768096E+03  0.12500000000E+03 0.  0.
</event>
<event>
 5    0  0.5583350E-005  0.4182779E+03  0.7546771E-02  0.1037628E+00
         21   -1    0    0  502  501  0.00000000000E+00  0.00000000000E+00  0.18057273064E+03  0.18057273064E+03  0.00000000000E+00 0.  1.
         21   -1    0    0  501  502 -0.00000000000E+00 -0.00000000000E+00 -0.96889709345E+03  0.96889709345E+03  0.00000000000E+00 0.  1.
         25    1    1    2    0    0 -0.12522975155E+03 -0.13515422167E+03 -0.30445233380E+03  0.37718082913E+03  0.12500000000E+03 0.  0.
         25    1    1    2    0    0  0.62312855695E+02  0.15534886464E+03 -0.56976366506E+03  0.60685401519E+03  0.12500000000E+03 0.  0.
         25    1    1    2    0    0  0.62916895855E+02 -0.20194642972E+02  0.85891636049E+02  0.16543497977E+03  0.12500000000E+03 0.  0.
</event>
<event>
 5    0  0.5583350E-005  0.8450095E+03  0.7546771E-02  0.9497060E-01
         21   -1    0    0  502  501  0.00000000000E+00  0.00000000000E+00  0.73466320039E+03  0.73466320039E+03  0.00000000000E+00 0. -1.
         21   -1    0    0  501  502 -0.00000000000E+00 -0.00000000000E+00 -0.97192981948E+03  0.97192981948E+03  0.00000000000E+00 0. -1.
         25    1    1    2    0    0  0.47603639792E+03  0.56435739026E+03 -0.16116023982E+02  0.74899575588E+03  0.12500000000E+03 0.  0.
         25    1    1    2    0    0 -0.20147203912E+03 -0.50291413030E+03 -0.31075269187E+03  0.63695042233E+03  0.12500000000E+03 0.  0.
         25    1    1    2    0    0 -0.27456435881E+03 -0.61443259963E+02  0.89602096761E+02  0.32064684166E+03  0.12500000000E+03 0.  0.
</event>
<event>
 5    0  0.5583350E-005  0.1950335E+03  0.7546771E-02  0.1153998E+00
         21   -1    0    0  502  501  0.00000000000E+00  0.00000000000E+00  0.45848647504E+03  0.45848647504E+03  0.00000000000E+00 0. -1.
         21   -1    0    0  501  502 -0.00000000000E+00 -0.00000000000E+00 -0.82964445006E+02  0.82964445006E+02  0.00000000000E+00 0. -1.
         25    1    1    2    0    0 -0.12824728236E+02 -0.19550785439E+02  0.88165856131E+02  0.15474147813E+03  0.12500000000E+03 0.  0.
         25    1    1    2    0    0 -0.21646226849E+02 -0.43419079406E+01  0.13996645186E+03  0.18895242509E+03  0.12500000000E+03 0.  0.
         25    1    1    2    0    0  0.34470955085E+02  0.23892693379E+02  0.14738972205E+03  0.19775701683E+03  0.12500000000E+03 0.  0.
</event>
<event>
 5    0  0.5583350E-005  0.3584684E+03  0.7546771E-02  0.1059192E+00
         21   -1    0    0  502  501  0.00000000000E+00  0.00000000000E+00  0.90774569918E+02  0.90774569918E+02  0.00000000000E+00 0. -1.
         21   -1    0    0  501  502 -0.00000000000E+00 -0.00000000000E+00 -0.14155904508E+04  0.14155904508E+04  0.00000000000E+00 0. -1.
         25    1    1    2    0    0  0.86497448843E+02 -0.32848804819E+02 -0.35311907002E+03  0.38584832544E+03  0.12500000000E+03 0.  0.
         25    1    1    2    0    0 -0.15788625838E+03  0.20306248488E+03 -0.30761215240E+03  0.42001509456E+03  0.12500000000E+03 0.  0.
         25    1    1    2    0    0  0.71388809537E+02 -0.17021368006E+03 -0.66408465849E+03  0.70050160075E+03  0.12500000000E+03 0.  0.
</event>
<event>
 5    0  0.5583350E-005  0.3203677E+03  0.7546771E-02  0.1075480E+00
         21   -1    0    0  502  501  0.00000000000E+00  0.00000000000E+00  0.59491770223E+03  0.59491770223E+03  0.00000000000E+00 0. -1.
         21   -1    0    0  501  502 -0.00000000000E+00 -0.00000000000E+00 -0.17252040698E+03  0.17252040698E+03  0.00000000000E+00 0. -1.
         25    1    1    2    0    0  0.76225498287E+02  0.12392440774E+03  0.34349229631E+02  0.19486522265E+03  0.12500000000E+03 0.  0.
         25    1    1    2    0    0  0.17153021791E+02  0.34749904706E+02  0.66969122196E+01  0.13104056878E+03  0.12500000000E+03 0.  0.
         25    1    1    2    0    0 -0.93378520079E+02 -0.15867431245E+03  0.38135115340E+03  0.44153231778E+03  0.12500000000E+03 0.  0.
</event>
<event>
 5    0  0.5583350E-005  0.2759685E+03  0.7546771E-02  0.1097911E+00
         21   -1    0    0  502  501  0.00000000000E+00  0.00000000000E+00  0.36099749082E+03  0.36099749082E+03  0.00000000000E+00 0. -1.
         21   -1    0    0  501  502 -0.00000000000E+00 -0.00000000000E+00 -0.21096720414E+03  0.21096720414E+03  0.00000000000E+00 0. -1.
         25    1    1    2    0    0  0.11953021998E+02  0.16272107233E+02  0.46099441787E+02  0.13475093596E+03  0.12500000000E+03 0.  0.
         25    1    1    2    0    0 -0.81643626318E+02  0.37364614813E+02  0.20324721547E+03  0.25494357563E+03  0.12500000000E+03 0.  0.
         25    1    1    2    0    0  0.69690604320E+02 -0.53636722046E+02 -0.99316370572E+02  0.18227018337E+03  0.12500000000E+03 0.  0.
</event>
<event>
 5    0  0.5583350E-005  0.2576295E+03  0.7546771E-02  0.1108576E+00
         21   -1    0    0  502  501  0.00000000000E+00  0.00000000000E+00  0.84977793406E+02  0.84977793406E+02  0.00000000000E+00 0.  1.
         21   -1    0    0  501  502 -0.00000000000E+00 -0.00000000000E+00 -0.78106253029E+03  0.78106253029E+03  0.00000000000E+00 0.  1.
         25    1    1    2    0    0  0.65248925108E+02 -0.11060723186E+02 -0.12663727141E+03  0.18984667586E+03  0.12500000000E+03 0.  0.
         25    1    1    2    0    0 -0.94351432247E+02  0.39950293019E+02 -0.10325169977E+03  0.19179189812E+03  0.12500000000E+03 0.  0.
         25    1    1    2    0    0  0.29102507139E+02 -0.28889569833E+02 -0.46619576571E+03  0.48440174972E+03  0.12500000000E+03 0.  0.
</event>
<event>
 5    0  0.5583350E-005  0.3038966E+03  0.7546771E-02  0.1083309E+00
         21   -1    0    0  502  501  0.00000000000E+00  0.00000000000E+00  0.91105106632E+03  0.91105106632E+03  0.00000000000E+00 0.  1.
         21   -1    0    0  501  502 -0.00000000000E+00 -0.00000000000E+00 -0.10136987113E+03  0.10136987113E+03  0.00000000000E+00 0.  1.
         25    1    1    2    0    0 -0.15697572376E+03  0.10758335347E+03  0.23029564475E+03  0.32384663003E+03  0.12500000000E+03 0.  0.
         25    1    1    2    0    0  0.11672848858E+03 -0.14521525000E+03  0.43715202035E+03  0.49136534043E+03  0.12500000000E+03 0.  0.
         25    1    1    2    0    0  0.40247235181E+02  0.37631896531E+02  0.14223353010E+03  0.19720896699E+03  0.12500000000E+03 0.  0.
</event>
<event>
 5    0  0.5583350E-005  0.2516943E+03  0.7546771E-02  0.1112239E+00
         21   -1    0    0  502  501  0.00000000000E+00  0.00000000000E+00  0.15640966255E+03  0.15640966255E+03  0.00000000000E+00 0.  1.
         21   -1    0    0  501  502 -0.00000000000E+00 -0.00000000000E+00 -0.40502641471E+03  0.40502641471E+03  0.00000000000E+00 0.  1.
         25    1    1    2    0    0 -0.39259575842E+02  0.49129653406E+02 -0.21640470908E+02  0.14159218594E+03  0.12500000000E+03 0.  0.
         25    1    1    2    0    0  0.12409124968E+02 -0.39655050586E+02 -0.25644598214E+03  0.28829854522E+03  0.12500000000E+03 0.  0.
         25    1    1    2    0    0  0.26850450875E+02 -0.94746028196E+01  0.29469700891E+02  0.13154534610E+03  0.12500000000E+03 0.  0.
</event>
<event>
 5    0  0.5583350E-005  0.3708941E+03  0.7546771E-02  0.1054352E+00
         21   -1    0    0  502  501  0.00000000000E+00  0.00000000000E+00  0.44834483048E+03  0.44834483048E+03  0.00000000000E+00 0. -1.
         21   -1    0    0  501  502 -0.00000000000E+00 -0.00000000000E+00 -0.30682275696E+03  0.30682275696E+03  0.00000000000E+00 0. -1.
         25    1    1    2    0    0  0.15276846754E+03 -0.77074233832E+02 -0.26817892350E+02  0.21359504101E+03  0.12500000000E+03 0.  0.
         25    1    1    2    0    0 -0.27634780964E+03  0.15814709787E+02  0.18344407517E+03  0.35481677758E+03  0.12500000000E+03 0.  0.
         25    1    1    2    0    0  0.12357934211E+03  0.61259524045E+02 -0.15104109303E+02  0.18675576885E+03  0.12500000000E+03 0.  0.
</event>
<event>
 5    0  0.5583350E-005  0.3138495E+03  0.7546771E-02  0.1078515E+00
         21   -1    0    0  502  501  0.00000000000E+00  0.00000000000E+00  0.87339648765E+03  0.87339648765E+03  0.00000000000E+00 0. -1.
         21   -1    0    0  501  502 -0.00000000000E+00 -0.00000000000E+00 -0.11277980288E+03  0.11277980288E+03  0.00000000000E+00 0. -1.
         25    1    1    2    0    0 -0.25915825914E+02 -0.72073998552E+02  0.13802114140E+02  0.14724737571E+03  0.12500000000E+03 0.  0.
         25    1    1    2    0    0 -0.33956688745E+02  0.14063403748E+03  0.58349366573E+03  0.61402023351E+03  0.12500000000E+03 0.  0.
         25    1    1    2    0    0  0.59872514659E+02 -0.68560038927E+02  0.16332090490E+03  0.22490868131E+03  0.12500000000E+03 0.  0.
</event>
<event>
 5    0  0.5583350E-005  0.2515864E+03  0.7546771E-02  0.1112306E+00
         21   -1    0    0  502  501  0.00000000000E+00  0.00000000000E+00  0.25609953177E+04  0.25609953177E+04  0.00000000000E+00 0. -1.
         21   -1    0    0  501  502 -0.00000000000E+00 -0.00000000000E+00 -0.24715276220E+02  0.24715276220E+02  0.00000000000E+00 0. -1.
         25    1    1    2    0    0  0.10230326053E+02 -0.64239967623E+01  0.35977391449E+03  0.38106193310E+03  0.12500000000E+03 0.  0.
         25    1    1    2    0    0  0.10828767293E+03 -0.38398725050E+02  0.91085994365E+03  0.92654817422E+03  0.12500000000E+03 0.  0.
         25    1    1    2    0    0 -0.11851799899E+03  0.44822721812E+02  0.12656461833E+04  0.12781004866E+04  0.12500000000E+03 0.  0.
</event>
<event>
 5    0  0.5583350E-005  0.4350009E+03  0.7546771E-02  0.1032292E+00
         21   -1    0    0  502  501  0.00000000000E+00  0.00000000000E+00  0.13832571456E+04  0.13832571456E+04  0.00000000000E+00 0. -1.
         21   -1    0    0  501  502 -0.00000000000E+00 -0.00000000000E+00 -0.13679728750E+03  0.13679728750E+03  0.00000000000E+00 0. -1.
         25    1    1    2    0    0 -0.21676811393E+03  0.84058842421E+02  0.22083525883E+03  0.34416204867E+03  0.12500000000E+03 0.  0.
         25    1    1    2    0    0 -0.14402503802E+01  0.46283278685E+02  0.80739973917E+03  0.81832973490E+03  0.12500000000E+03 0.  0.
         25    1    1    2    0    0  0.21820836431E+03 -0.13034212111E+03  0.21822486014E+03  0.35756264957E+03  0.12500000000E+03 0.  0.
</event>
<event>
 5    0  0.5583350E-005  0.4531136E+03  0.7546771E-02  0.1026798E+00
         21   -1    0    0  502  501  0.00000000000E+00  0.00000000000E+00  0.75704123114E+03  0.75704123114E+03  0.00000000000E+00 0. -1.
         21   -1    0    0  501  502 -0.00000000000E+00 -0.00000000000E+00 -0.27120306179E+03  0.27120306179E+03  0.00000000000E+00 0. -1.
         25    1    1    2    0    0 -0.15711475901E+02 -0.76263448979E+02  0.54264902540E+03  0.56227744832E+03  0.12500000000E+03 0.  0.
         25    1    1    2    0    0  0.11283294876E+03 -0.65710296633E+02 -0.14895345386E+03  0.23422478269E+03  0.12500000000E+03 0.  0.
         25    1    1    2    0    0 -0.97121472857E+02  0.14197374561E+03  0.92142597804E+02  0.23174206192E+03  0.12500000000E+03 0.  0.
</event>
<event>
 5    0  0.5583350E-005  0.2341532E+03  0.7546771E-02  0.1123750E+00
         21   -1    0    0  502  501  0.00000000000E+00  0.00000000000E+00  0.48495922100E+03  0.48495922100E+03  0.00000000000E+00 0.  1.
         21   -1    0    0  501  502 -0.00000000000E+00 -0.00000000000E+00 -0.11305634990E+03  0.11305634990E+03  0.00000000000E+00 0.  1.
         25    1    1    2    0    0  0.84039557993E+02  0.22626302653E+02  0.61864808956E+02  0.16439845336E+03  0.12500000000E+03 0.  0.
         25    1    1    2    0    0 -0.11579046944E+03  0.72519804156E+01  0.18274675162E+03  0.24996279575E+03  0.12500000000E+03 0.  0.
         25    1    1    2    0    0  0.31750911447E+02 -0.29878283069E+02  0.12729131053E+03  0.18365432179E+03  0.12500000000E+03 0.  0.
</event>
<event>
 5    0  0.5583350E-005  0.2935540E+03  0.7546771E-02  0.1088508E+00
         21   -1    0    0  502  501  0.00000000000E+00  0.00000000000E+00  0.24056651020E+03  0.24056651020E+03  0.00000000000E+00 0.  1.
         21   -1    0    0  501  502 -0.00000000000E+00 -0.00000000000E+00 -0.35821264254E+03  0.35821264254E+03  0.00000000000E+00 0.  1.
         25    1    1    2    0    0 -0.91316087335E+02  0.82310058987E+02  0.54194463318E+01  0.17540793601E+03  0.12500000000E+03 0.  0.
         25    1    1    2    0    0 -0.94032862939E+02  0.22091855003E+02 -0.57020967596E+02  0.16794826619E+03  0.12500000000E+03 0.  0.
         25    1    1    2    0    0  0.18534895027E+03 -0.10440191399E+03 -0.66044611075E+02  0.25542295054E+03  0.12500000000E+03 0.  0.
</event>
<event>
 5    0  0.5583350E-005  0.2733350E+03  0.7546771E-02  0.1099386E+00
         21   -1    0    0  502  501  0.00000000000E+00  0.00000000000E+00  0.62832849723E+02  0.62832849723E+02  0.00000000000E+00 0. -1.
         21   -1    0    0  501  502 -0.00000000000E+00 -0.00000000000E+00 -0.11890599525E+04  0.11890599525E+04  0.00000000000E+00 0. -1.
         25    1    1    2    0    0  0.71435173000E+02  0.11656437635E+03 -0.45815176936E+03  0.49418446106E+03  0.12500000000E+03 0.  0.
         25    1    1    2    0    0  0.38782664994E+02  0.31388061091E+02 -0.24566574832E+03  0.28011777055E+03  0.12500000000E+03 0.  0.
         25    1    1    2    0    0 -0.11021783799E+03 -0.14795243744E+03 -0.42240958508E+03  0.47759057060E+03  0.12500000000E+03 0.  0.
</event>
<event>
 5    0  0.5583350E-005  0.3086193E+03  0.7546771E-02  0.1081010E+00
         21   -1    0    0  502  501  0.00000000000E+00  0.00000000000E+00  0.17967456480E+03  0.17967456480E+03  0.00000000000E+00 0.  1.
         21   -1    0    0  501  502 -0.00000000000E+00 -0.00000000000E+00 -0.53010210937E+03  0.53010210937E+03  0.00000000000E+00 0.  1.
         25    1    1    2    0    0  0.51890804435E+02  0.71275798937E+02 -0.31982587085E+02  0.15627149764E+03  0.12500000000E+03 0.  0.
         25    1    1    2    0    0 -0.18323880517E+02 -0.67835838041E+02  0.58555850806E+02  0.15489110105E+03  0.12500000000E+03 0.  0.
         25    1    1    2    0    0 -0.33566923917E+02 -0.34399608965E+01 -0.37700080830E+03  0.39861407548E+03  0.12500000000E+03 0.  0.
</event>
<event>
 5    0  0.5583350E-005  0.3517430E+03  0.7546771E-02  0.1061902E+00
         21   -1    0    0  502  501  0.00000000000E+00  0.00000000000E+00  0.28613112182E+03  0.28613112182E+03  0.00000000000E+00 0.  1.
         21   -1    0    0  501  502 -0.00000000000E+00 -0.00000000000E+00 -0.43240024293E+03  0.43240024293E+03  0.00000000000E+00 0.  1.
         25    1    1    2    0    0  0.20001757856E+03 -0.96522826347E+02 -0.65867198232E+02  0.26322457245E+03  0.12500000000E+03 0.  0.
         25    1    1    2    0    0 -0.23645293591E+03  0.78650077091E+02  0.34277501443E+02  0.28088391309E+03  0.12500000000E+03 0.  0.
         25    1    1    2    0    0  0.36435357343E+02  0.17872749256E+02 -0.11467942432E+03  0.17442287921E+03  0.12500000000E+03 0.  0.
</event>
<event>
 5    0  0.5583350E-005  0.3026086E+03  0.7546771E-02  0.1083944E+00
         21   -1    0    0  502  501  0.00000000000E+00  0.00000000000E+00  0.24734981099E+03  0.24734981099E+03  0.00000000000E+00 0.  1.
         21   -1    0    0  501  502 -0.00000000000E+00 -0.00000000000E+00 -0.37021233400E+03  0.37021233400E+03  0.00000000000E+00 0.  1.
         25    1    1    2    0    0  0.87813044077E+02  0.12066377780E+03 -0.20730218775E+03  0.28437664290E+03  0.12500000000E+03 0.  0.
         25    1    1    2    0    0 -0.10612190765E+03 -0.50605358590E+02  0.13185644824E+02  0.17210933394E+03  0.12500000000E+03 0.  0.
         25    1    1    2    0    0  0.18308863575E+02 -0.70058419206E+02  0.71254019921E+02  0.16107616814E+03  0.12500000000E+03 0.  0.
</event>
<event>
 5    0  0.5583350E-005  0.2533575E+03  0.7546771E-02  0.1111201E+00
         21   -1    0    0  502  501  0.00000000000E+00  0.00000000000E+00  0.69364322433E+02  0.69364322433E+02  0.00000000000E+00 0.  1.
         21   -1    0    0  501  502 -0.00000000000E+00 -0.00000000000E+00 -0.92540401251E+03  0.92540401251E+03  0.00000000000E+00 0.  1.
         25    1    1    2    0    0 -0.20986612326E+02 -0.13090647015E+02 -0.20982331247E+03  0.24548447077E+03  0.12500000000E+03 0.  0.
         25    1    1    2    0    0  0.12692040435E+03  0.86855623912E+02 -0.37064377189E+03  0.42030285996E+03  0.12500000000E+03 0.  0.
         25    1    1    2    0    0 -0.10593379203E+03 -0.73764976898E+02 -0.27557260572E+03  0.32898100421E+03  0.12500000000E+03 0.  0.
</event>
<event>
 5    0  0.5583350E-005  0.2531483E+03  0.7546771E-02  0.1111331E+00
         21   -1    0    0  502  501  0.00000000000E+00  0.00000000000E+00  0.11022727542E+03  0.11022727542E+03  0.00000000000E+00 0. -1.
         21   -1    0    0  501  502 -0.00000000000E+00 -0.00000000000E+00 -0.58138125947E+03  0.58138125947E+03  0.00000000000E+00 0. -1.
         25    1    1    2    0    0  0.18212925408E+02  0.23171651966E+02 -0.14229008603E+03  0.19167708442E+03  0.12500000000E+03 0.  0.
         25    1    1    2    0    0 -0.98723079836E+02 -0.11933612577E+03 -0.18601865713E+03  0.27242484874E+03  0.12500000000E+03 0.  0.
         25    1    1    2    0    0  0.80510154428E+02  0.96164473809E+02 -0.14284524089E+03  0.22750660174E+03  0.12500000000E+03 0.  0.
</event>
<event>
 5    0  0.5583350E-005  0.3827974E+03  0.7546771E-02  0.1049905E+00
         21   -1    0    0  502  501  0.00000000000E+00  0.00000000000E+00  0.53715742543E+03  0.53715742543E+03  0.00000000000E+00 0. -1.
         21   -1    0    0  501  502 -0.00000000000E+00 -0.00000000000E+00 -0.27279498901E+03  0.27279498901E+03  0.00000000000E+00 0. -1.
         25    1    1    2    0    0  0.55335702720E+02  0.52474644193E+02  0.79881641161E+01  0.14664391922E+03  0.12500000000E+03 0.  0.
         25    1    1    2    0    0  0.22676792687E+03  0.49719097797E+02  0.20554243604E+03  0.33431777452E+03  0.12500000000E+03 0.  0.
         25    1    1    2    0    0 -0.28210362959E+03 -0.10219374199E+03  0.50831836265E+02  0.32899072070E+03  0.12500000000E+03 0.  0.
</event>
<event>
 5    0  0.5583350E-005  0.3727039E+03  0.7546771E-02  0.1053664E+00
         21   -1    0    0  502  501  0.00000000000E+00  0.00000000000E+00  0.53488792615E+03  0.53488792615E+03  0.00000000000E+00 0.  1.
         21   -1    0    0  501  502 -0.00000000000E+00 -0.00000000000E+00 -0.25969595888E+03  0.25969595888E+03  0.00000000000E+00 0.  1.
         25    1    1    2    0    0  0.10331053407E+03 -0.15683288991E+03  0.28578063958E+03  0.36409503672E+03  0.12500000000E+03 0.  0.
         25    1    1    2    0    0 -0.19814756030E+03  0.47359640615E+02 -0.78735427056E+01  0.23914929205E+03  0.12500000000E+03 0.  0.
         25    1    1    2    0    0  0.94837026238E+02  0.10947324930E+03 -0.27151296001E+01  0.19133955625E+03  0.12500000000E+03 0.  0.
</event>
<event>
 5    0  0.5583350E-005  0.4421939E+03  0.7546771E-02  0.1030076E+00
         21   -1    0    0  502  501  0.00000000000E+00  0.00000000000E+00  0.10818225061E+04  0.10818225061E+04  0.00000000000E+00 0.  1.
         21   -1    0    0  501  502 -0.00000000000E+00 -0.00000000000E+00 -0.18074632532E+03  0.18074632532E+03  0.00000000000E+00 0.  1.
         25    1    1    2    0    0  0.34085499864E+02 -0.20422191742E+03  0.45326802183E+03  0.51375608266E+03  0.12500000000E+03 0.  0.
         25    1    1    2    0    0 -0.24653149239E+03  0.44409555263E+01  0.15432215929E+03  0.31660358127E+03  0.12500000000E+03 0.  0.
         25    1    1    2    0    0  0.21244599252E+03  0.19978096189E+03  0.29348599971E+03  0.43220916753E+03  0.12500000000E+03 0.  0.
</event>
<event>
 5    0  0.5583350E-005  0.3841793E+03  0.7546771E-02  0.1049400E+00
         21   -1    0    0  502  501  0.00000000000E+00  0.00000000000E+00  0.36864171751E+03  0.36864171751E+03  0.00000000000E+00 0. -1.
         21   -1    0    0  501  502 -0.00000000000E+00 -0.00000000000E+00 -0.40037181732E+03  0.40037181732E+03  0.00000000000E+00 0. -1.
         25    1    1    2    0    0  0.21045398958E+03  0.11692805647E+02  0.19075626992E+03  0.31054880123E+03  0.12500000000E+03 0.  0.
         25    1    1    2    0    0 -0.16965259426E+03  0.95335792414E+02 -0.12578571484E+03  0.26328304562E+03  0.12500000000E+03 0.  0.
         25    1    1    2    0    0 -0.40801395318E+02 -0.10702859806E+03 -0.96700654891E+02  0.19518168797E+03  0.12500000000E+03 0.  0.
</event>
<event>
 5    0  0.5583350E-005  0.2958045E+03  0.7546771E-02  0.1087357E+00
         21   -1    0    0  502  501  0.00000000000E+00  0.00000000000E+00  0.51448377932E+02  0.51448377932E+02  0.00000000000E+00 0.  1.
         21   -1    0    0  501  502 -0.00000000000E+00 -0.00000000000E+00 -0.17007396208E+04  0.17007396208E+04  0.00000000000E+00 0.  1.
         25    1    1    2    0    0  0.75907601799E+02  0.12463562631E+03 -0.39489320964E+03  0.43916016483E+03  0.12500000000E+03 0.  0.
         25    1    1    2    0    0 -0.12387298708E+03 -0.17002363433E+03 -0.73071647256E+03  0.77059984196E+03  0.12500000000E+03 0.  0.
         25    1    1    2    0    0  0.47965385280E+02  0.45388008015E+02 -0.52368156070E+03  0.54242799197E+03  0.12500000000E+03 0.  0.
</event>
<event>
 5    0  0.5583350E-005  0.3154128E+03  0.7546771E-02  0.1077780E+00
         21   -1    0    0  502  501  0.00000000000E+00  0.00000000000E+00  0.90789356287E+03  0.90789356287E+03  0.00000000000E+00 0. -1.
         21   -1    0    0  501  502 -0.00000000000E+00 -0.00000000000E+00 -0.10957809237E+03  0.10957809237E+03  0.00000000000E+00 0. -1.
         25    1    1    2    0    0 -0.62222389145E+02 -0.11025583700E+03  0.25372724587E+03  0.30988786778E+03  0.12500000000E+03 0.  0.
         25    1    1    2    0    0 -0.11043343115E+03 -0.46345576881E+02  0.30501036803E+03  0.35071324443E+03  0.12500000000E+03 0.  0.
         25    1    1    2    0    0  0.17265582030E+03  0.15660141388E+03  0.23957785660E+03  0.35687054303E+03  0.12500000000E+03 0.  0.
</event>
<event>
 5    0  0.5973938E-005  0.3442808E+03  0.7546771E-02  0.1064987E+00
         21   -1    0    0  502  501  0.00000000000E+00  0.00000000000E+00  0.71117174605E+03  0.71117174605E+03  0.00000000000E+00 0.  1.
         21   -1    0    0  501  502 -0.00000000000E+00 -0.00000000000E+00 -0.16666755909E+03  0.16666755909E+03  0.00000000000E+00 0.  1.
         25    1    1    2    0    0  0.58359608307E+02 -0.15113049248E+03  0.91294451930E+02  0.22406683510E+03  0.12500000000E+03 0.  0.
         25    1    1    2    0    0  0.72673717988E+02  0.20206502230E+03  0.13155790086E+03  0.28114804606E+03  0.12500000000E+03 0.  0.
         25    1    1    2    0    0 -0.13103332630E+03 -0.50934529828E+02  0.32165183416E+03  0.37262442399E+03  0.12500000000E+03 0.  0.
</event>
<event>
 5    0  0.5583350E-005  0.4597225E+03  0.7546771E-02  0.1024862E+00
         21   -1    0    0  502  501  0.00000000000E+00  0.00000000000E+00  0.32245467375E+03  0.32245467375E+03  0.00000000000E+00 0.  1.
         21   -1    0    0  501  502 -0.00000000000E+00 -0.00000000000E+00 -0.65542479974E+03  0.65542479974E+03  0.00000000000E+00 0.  1.
         25    1    1    2    0    0 -0.23818784862E+02  0.11891496998E+03  0.93024087059E+01  0.17441226851E+03  0.12500000000E+03 0.  0.
         25    1    1    2    0    0  0.32327208101E+03  0.24061655377E+02 -0.65290809503E+02  0.35351335395E+03  0.12500000000E+03 0.  0.
         25    1    1    2    0    0 -0.29945329614E+03 -0.14297662536E+03 -0.27698172519E+03  0.44995385103E+03  0.12500000000E+03 0.  0.
</event>
<event>
 5    0  0.5583350E-005  0.2767524E+03  0.7546771E-02  0.1097476E+00
         21   -1    0    0  502  501  0.00000000000E+00  0.00000000000E+00  0.68116837564E+03  0.68116837564E+03  0.00000000000E+00 0. -1.
         21   -1    0    0  501  502 -0.00000000000E+00 -0.00000000000E+00 -0.11244193953E+03  0.11244193953E+03  0.00000000000E+00 0. -1.
         25    1    1    2    0    0 -0.33405956473E+02  0.82646453145E+02  0.14256617247E+03  0.20951493426E+03  0.12500000000E+03 0.  0.
         25    1    1    2    0    0 -0.15110020466E+02 -0.69341484929E+02  0.42574045245E+03  0.44935118460E+03  0.12500000000E+03 0.  0.
         25    1    1    2    0    0  0.48515976939E+02 -0.13304968216E+02  0.41981118881E+00  0.13474419631E+03  0.12500000000E+03 0.  0.
</event>
<event>
 5    0  0.5583350E-005  0.5643538E+03  0.7546771E-02  0.9982251E-01
         21   -1    0    0  502  501  0.00000000000E+00  0.00000000000E+00  0.31860517854E+03  0.31860517854E+03  0.00000000000E+00 0. -1.
         21   -1    0    0  501  502 -0.00000000000E+00 -0.00000000000E+00 -0.99965475327E+03  0.99965475327E+03  0.00000000000E+00 0. -1.
         25    1    1    2    0    0 -0.45582830303E+03 -0.66390353555E+02 -0.54452815104E+03  0.72410153167E+03  0.12500000000E+03 0.  0.
         25    1    1    2    0    0  0.41554524048E+03  0.16811642676E+02 -0.74152981933E+02  0.44054981892E+03  0.12500000000E+03 0.  0.
         25    1    1    2    0    0  0.40283062544E+02  0.49578710879E+02 -0.62368441751E+02  0.15360858123E+03  0.12500000000E+03 0.  0.
</event>
<event>
 5    0  0.5583350E-005  0.3580147E+03  0.7546771E-02  0.1059373E+00
         21   -1    0    0  502  501  0.00000000000E+00  0.00000000000E+00  0.57192411629E+03  0.57192411629E+03  0.00000000000E+00 0. -1.
         21   -1    0    0  501  502 -0.00000000000E+00 -0.00000000000E+00 -0.22411103380E+03  0.22411103380E+03  0.00000000000E+00 0.  1.
         25    1    1    2    0    0 -0.22429384109E+03  0.22850372834E+02  0.70967960007E+02  0.26737860430E+03  0.12500000000E+03 0.  0.
         25    1    1    2    0    0  0.22466328870E+03 -0.92097948958E+02  0.78420233338E+02  0.28413088267E+03  0.12500000000E+03 0.  0.
         25    1    1    2    0    0 -0.36944761001E+00  0.69247576124E+02  0.19842488915E+03  0.24452566312E+03  0.12500000000E+03 0.  0.
</event>
<event>
 5    0  0.5583350E-005  0.3870337E+03  0.7546771E-02  0.1048364E+00
         21   -1    0    0  502  501  0.00000000000E+00  0.00000000000E+00  0.74145476881E+03  0.74145476881E+03  0.00000000000E+00 0. -1.
         21   -1    0    0  501  502 -0.00000000000E+00 -0.00000000000E+00 -0.20202865624E+03  0.20202865624E+03  0.00000000000E+00 0. -1.
         25    1    1    2    0    0 -0.57770746494E+02  0.26209455802E+02  0.16687238012E+03  0.21793527931E+03  0.12500000000E+03 0.  0.
         25    1    1    2    0    0  0.17022322530E+03  0.16968220930E+03 -0.16731349960E+01  0.27091658858E+03  0.12500000000E+03 0.  0.
         25    1    1    2    0    0 -0.11245247881E+03 -0.19589166510E+03  0.37422686745E+03  0.45463155717E+03  0.12500000000E+03 0.  0.
</event>
<event>
 5    0  0.5583350E-005  0.3631947E+03  0.7546771E-02  0.1057326E+00
         21   -1    0    0  502  501  0.00000000000E+00  0.00000000000E+00  0.40168725310E+03  0.40168725310E+03  0.00000000000E+00 0. -1.
         21   -1    0    0  501  502 -0.00000000000E+00 -0.00000000000E+00 -0.32839083455E+03  0.32839083455E+03  0.00000000000E+00 0.  1.
         25    1    1    2    0    0 -0.23077844400E+00  0.11029111772E+03 -0.62227463053E+01  0.16681698498E+03  0.12500000000E+03 0.  0.
         25    1    1    2    0    0 -0.34863290148E+02 -0.28552799893E+03 -0.37312052267E+02  0.31584628606E+03  0.12500000000E+03 0.  0.
         25    1    1    2    0    0  0.35094068592E+02  0.17523688121E+03  0.11683121712E+03  0.24741481661E+03  0.12500000000E+03 0.  0.
</event>
<event>
 5    0  0.5909786E-005  0.2819245E+03  0.7546771E-02  0.1094642E+00
         21   -1    0    0  502  501  0.00000000000E+00  0.00000000000E+00  0.39515308071E+03  0.39515308071E+03  0.00000000000E+00 0. -1.
         21   -1    0    0  501  502 -0.00000000000E+00 -0.00000000000E+00 -0.20114089378E+03  0.20114089378E+03  0.00000000000E+00 0. -1.
         25    1    1    2    0    0  0.14539094355E+03 -0.67086005768E+02  0.18945054287E+03  0.27776890904E+03  0.12500000000E+03 0.  0.
         25    1    1    2    0    0 -0.67699310683E+02 -0.22307825392E+02  0.21512844155E+02  0.14549446108E+03  0.12500000000E+03 0.  0.
         25    1    1    2    0    0 -0.77691632863E+02  0.89393831160E+02 -0.16951200090E+02  0.17303060438E+03  0.12500000000E+03 0.  0.
</event>
<event>
 5    0  0.5583350E-005  0.2282503E+03  0.7546771E-02  0.1127877E+00
         21   -1    0    0  502  501  0.00000000000E+00  0.00000000000E+00  0.70483067012E+03  0.70483067012E+03  0.00000000000E+00 0. -1.
         21   -1    0    0  501  502 -0.00000000000E+00 -0.00000000000E+00 -0.73915893840E+02  0.73915893840E+02  0.00000000000E+00 0. -1.
         25    1    1    2    0    0 -0.90630090552E+02 -0.34171955587E+02  0.32887290823E+03  0.36491632689E+03  0.12500000000E+03 0.  0.
         25    1    1    2    0    0 -0.12282537586E+01  0.83629327881E+01  0.12376962726E+03  0.17611180507E+03  0.12500000000E+03 0.  0.
         25    1    1    2    0    0  0.91858344311E+02  0.25809022799E+02  0.17827224079E+03  0.23771843200E+03  0.12500000000E+03 0.  0.
</event>
<event>
 5    0  0.5583350E-005  0.4147840E+03  0.7546771E-02  0.1038777E+00
         21   -1    0    0  502  501  0.00000000000E+00  0.00000000000E+00  0.18634511329E+04  0.18634511329E+04  0.00000000000E+00 0. -1.
         21   -1    0    0  501  502 -0.00000000000E+00 -0.00000000000E+00 -0.92326433001E+02  0.92326433001E+02  0.00000000000E+00 0. -1.
         25    1    1    2    0    0  0.13212558670E+03  0.44685196405E+02  0.12100978938E+04  0.12245063700E+04  0.12500000000E+03 0.  0.
         25    1    1    2    0    0 -0.78625975535E+02  0.52525093270E+02  0.11804972542E+02  0.15717915520E+03  0.12500000000E+03 0.  0.
         25    1    1    2    0    0 -0.53499611161E+02 -0.97210289675E+02  0.54922183351E+03  0.57409204072E+03  0.12500000000E+03 0.  0.
</event>
<event>
 5    0  0.5583350E-005  0.4055195E+03  0.7546771E-02  0.1041885E+00
         21   -1    0    0  502  501  0.00000000000E+00  0.00000000000E+00  0.77041148122E+02  0.77041148122E+02  0.00000000000E+00 0. -1.
         21   -1    0    0  501  502 -0.00000000000E+00 -0.00000000000E+00 -0.21345224553E+04  0.21345224553E+04  0.00000000000E+00 0. -1.
         25    1    1    2    0    0 -0.22933366626E+02  0.10562672064E+03 -0.23831805989E+03  0.29000593285E+03  0.12500000000E+03 0.  0.
         25    1    1    2    0    0  0.64932283350E+02 -0.32980604856E+03 -0.10771996916E+04  0.11353292063E+04  0.12500000000E+03 0.  0.
         25    1    1    2    0    0 -0.41998916724E+02  0.22417932792E+03 -0.74196355564E+03  0.78622846423E+03  0.12500000000E+03 0.  0.
</event>
<event>
 5    0  0.5583350E-005  0.3223009E+03  0.7546771E-02  0.1074595E+00
         21   -1    0    0  502  501  0.00000000000E+00  0.00000000000E+00  0.71016167168E+03  0.71016167168E+03  0.00000000000E+00 0.  1.
         21   -1    0    0  501  502 -0.00000000000E+00 -0.00000000000E+00 -0.14627359172E+03  0.14627359172E+03  0.00000000000E+00 0.  1.
         25    1    1    2    0    0 -0.33492564288E+02  0.61260728069E+02  0.30008026261E+02  0.14628776540E+03  0.12500000000E+03 0.  0.
         25    1    1    2    0    0 -0.10333363291E+03  0.11942713759E+03  0.29975883089E+03  0.36113852963E+03  0.12500000000E+03 0.  0.
         25    1    1    2    0    0  0.13682619720E+03 -0.18068786566E+03  0.23412122281E+03  0.34900896838E+03  0.12500000000E+03 0.  0.
</event>
<event>
 5    0  0.5583350E-005  0.2175403E+03  0.7546771E-02  0.1135730E+00
         21   -1    0    0  502  501  0.00000000000E+00  0.00000000000E+00  0.37007450066E+03  0.37007450066E+03  0.00000000000E+00 0. -1.
         21   -1    0    0  501  502 -0.00000000000E+00 -0.00000000000E+00 -0.12787635020E+03  0.12787635020E+03  0.00000000000E+00 0. -1.
         25    1    1    2    0    0  0.45225470165E+02  0.44731194558E+02  0.60667099308E+02  0.15281269534E+03  0.12500000000E+03 0.  0.
         25    1    1    2    0    0 -0.43173388753E+02  0.44418175412E+02  0.76491434383E+02  0.15910014248E+03  0.12500000000E+03 0.  0.
         25    1    1    2    0    0 -0.20520814115E+01 -0.89149369971E+02  0.10503961677E+03  0.18603801304E+03  0.12500000000E+03 0.  0.
</event>
<event>
 5    0  0.5583350E-005  0.3259799E+03  0.7546771E-02  0.1072930E+00
         21   -1    0    0  502  501  0.00000000000E+00  0.00000000000E+00  0.12514895395E+04  0.12514895395E+04  0.00000000000E+00 0.  1.
         21   -1    0    0  501  502 -0.00000000000E+00 -0.00000000000E+00 -0.84909127934E+02  0.84909127934E+02  0.00000000000E+00 0.  1.
         25    1    1    2    0    0 -0.15260475407E+03 -0.18364149877E+03  0.35205272239E+03  0.44337177445E+03  0.12500000000E+03 0.  0.
         25    1    1    2    0    0  0.73277556028E+02  0.80537242926E+02  0.24666420143E+03  0.29719366747E+03  0.12500000000E+03 0.  0.
         25    1    1    2    0    0  0.79327198042E+02  0.10310425584E+03  0.56786348778E+03  0.59583322556E+03  0.12500000000E+03 0.  0.
</event>
<event>
 5    0  0.6667335E-005  0.4484594E+03  0.7546771E-02  0.1028182E+00
         21   -1    0    0  502  501  0.00000000000E+00  0.00000000000E+00  0.81398117807E+03  0.81398117807E+03  0.00000000000E+00 0. -1.
         21   -1    0    0  501  502 -0.00000000000E+00 -0.00000000000E+00 -0.24707672753E+03  0.24707672753E+03  0.00000000000E+00 0. -1.
         25    1    1    2    0    0 -0.63473983890E+02  0.39119280003E+02 -0.11456359650E+03  0.18522711017E+03  0.12500000000E+03 0.  0.
         25    1    1    2    0    0  0.24975298870E+03  0.87201229247E+02  0.37190093412E+03  0.47319754283E+03  0.12500000000E+03 0.  0.
         25    1    1    2    0    0 -0.18627900481E+03 -0.12632050925E+03  0.30956711293E+03  0.40263325260E+03  0.12500000000E+03 0.  0.
</event>
<event>
 5    0  0.5583350E-005  0.3837721E+03  0.7546771E-02  0.1049548E+00
         21   -1    0    0  502  501  0.00000000000E+00  0.00000000000E+00  0.88623021527E+03  0.88623021527E+03  0.00000000000E+00 0.  1.
         21   -1    0    0  501  502 -0.00000000000E+00 -0.00000000000E+00 -0.16618823913E+03  0.16618823913E+03  0.00000000000E+00 0. -1.
         25    1    1    2    0    0  0.12404478759E+02  0.22384844428E+02 -0.36154149748E+02  0.13261626935E+03  0.12500000000E+03 0.  0.
         25    1    1    2    0    0  0.16432534399E+03  0.67034075334E+02  0.13428749717E+03  0.25525383020E+03  0.12500000000E+03 0.  0.
         25    1    1    2    0    0 -0.17672982275E+03 -0.89418919762E+02  0.62190862872E+03  0.66454835485E+03  0.12500000000E+03 0.  0.
</event>
<event>
 5    0  0.5583350E-005  0.3272789E+03  0.7546771E-02  0.1072347E+00
         21   -1    0    0  502  501  0.00000000000E+00  0.00000000000E+00  0.12973183403E+03  0.12973183403E+03  0.00000000000E+00 0.  1.
         21   -1    0    0  501  502 -0.00000000000E+00 -0.00000000000E+00 -0.82563773786E+03  0.82563773786E+03  0.00000000000E+00 0.  1.
         25    1    1    2    0    0  0.12721746622E+03  0.84029181784E+02 -0.22141368472E+03  0.29646957160E+03  0.12500000000E+03 0.  0.
         25    1    1    2    0    0  0.18578300484E+01 -0.14521114267E+03 -0.41964802572E+03  0.46132330635E+03  0.12500000000E+03 0.  0.
         25    1    1    2    0    0 -0.12907529627E+03  0.61181960886E+02 -0.54844193395E+02  0.19757669395E+03  0.12500000000E+03 0.  0.
</event>
<event>
 5    0  0.5583350E-005  0.8093077E+03  0.7546771E-02  0.9546642E-01
         21   -1    0    0  502  501  0.00000000000E+00  0.00000000000E+00  0.18442300713E+04  0.18442300713E+04  0.00000000000E+00 0.  1.
         21   -1    0    0  501  502 -0.00000000000E+00 -0.00000000000E+00 -0.35515032048E+03  0.35515032048E+03  0.00000000000E+00 0. -1.
         25    1    1    2    0    0  0.21405611931E+03 -0.63930021825E+03  0.43239894167E+03  0.81062854380E+03  0.12500000000E+03 0.  0.
         25    1    1    2    0    0 -0.21093988970E+03  0.69208296145E+03  0.73172340556E+03  0.10365898923E+04  0.12500000000E+03 0.  0.
         25    1    1    2    0    0 -0.31162296096E+01 -0.52782743199E+02  0.32495740356E+03  0.35216195563E+03  0.12500000000E+03 0.  0.
</event>
<event>
 5    0  0.5583350E-005  0.2777072E+03  0.7546771E-02  0.1096948E+00
         21   -1    0    0  502  501  0.00000000000E+00  0.00000000000E+00  0.11115100093E+03  0.11115100093E+03  0.00000000000E+00 0.  1.
         21   -1    0    0  501  502 -0.00000000000E+00 -0.00000000000E+00 -0.69384235851E+03  0.69384235851E+03  0.00000000000E+00 0.  1.
         25    1    1    2    0    0  0.91979044733E+02 -0.11791290788E+02 -0.46793185684E+03  0.49313730527E+03  0.12500000000E+03 0.  0.
         25    1    1    2    0    0 -0.25235231913E+02  0.36080726078E+02 -0.79748406416E+01  0.13276759321E+03  0.12500000000E+03 0.  0.
         25    1    1    2    0    0 -0.66743812821E+02 -0.24289435290E+02 -0.10678466010E+03  0.17908846096E+03  0.12500000000E+03 0.  0.
</event>
<event>
 5    0  0.5583350E-005  0.2430333E+03  0.7546771E-02  0.1117788E+00
         21   -1    0    0  502  501  0.00000000000E+00  0.00000000000E+00  0.67270381111E+03  0.67270381111E+03  0.00000000000E+00 0.  1.
         21   -1    0    0  501  502 -0.00000000000E+00 -0.00000000000E+00 -0.87802669376E+02  0.87802669376E+02  0.00000000000E+00 0.  1.
         25    1    1    2    0    0 -0.32098253815E+02  0.56439062898E+02  0.33828494762E+03  0.36643876911E+03  0.12500000000E+03 0.  0.
         25    1    1    2    0    0  0.89854564077E+02  0.72317628293E+01  0.10457586187E+03  0.18624513944E+03  0.12500000000E+03 0.  0.
         25    1    1    2    0    0 -0.57756310262E+02 -0.63670825727E+02  0.14204033225E+03  0.20782257194E+03  0.12500000000E+03 0.  0.
</event>
<event>
 5    0  0.5583350E-005  0.2754811E+03  0.7546771E-02  0.1098183E+00
         21   -1    0    0  502  501  0.00000000000E+00  0.00000000000E+00  0.10505676352E+04  0.10505676352E+04  0.00000000000E+00 0.  1.
         21   -1    0    0  501  502 -0.00000000000E+00 -0.00000000000E+00 -0.72237005763E+02  0.72237005763E+02  0.00000000000E+00 0.  1.
         25    1    1    2    0    0 -0.16169673834E+01  0.12948712619E+03  0.24449364793E+03  0.30359788259E+03  0.12500000000E+03 0.  0.
         25    1    1    2    0    0 -0.65616264752E+02 -0.12805144332E+03  0.24633991956E+03  0.31146592479E+03  0.12500000000E+03 0.  0.
         25    1    1    2    0    0  0.67233232135E+02 -0.14356828698E+01  0.48749706198E+03  0.50774083362E+03  0.12500000000E+03 0.  0.
</event>
<event>
 5    0  0.5583350E-005  0.2797165E+03  0.7546771E-02  0.1095844E+00
         21   -1    0    0  502  501  0.00000000000E+00  0.00000000000E+00  0.32364684846E+03  0.32364684846E+03  0.00000000000E+00 0. -1.
         21   -1    0    0  501  502 -0.00000000000E+00 -0.00000000000E+00 -0.24174903467E+03  0.24174903467E+03  0.00000000000E+00 0. -1.
         25    1    1    2    0    0 -0.87585325476E+02  0.56509935020E+02 -0.33746650902E+02  0.16621792455E+03  0.12500000000E+03 0.  0.
         25    1    1    2    0    0  0.15173807645E+03 -0.63726066349E+02  0.14877193831E+03  0.25464395733E+03  0.12500000000E+03 0.  0.
         25    1    1    2    0    0 -0.64152750971E+02  0.72161313290E+01 -0.33127473612E+02  0.14453400125E+03  0.12500000000E+03 0.  0.
</event>
<event>
 5    0  0.5583350E-005  0.2953908E+03  0.7546771E-02  0.1087568E+00
         21   -1    0    0  502  501  0.00000000000E+00  0.00000000000E+00  0.13886500149E+03  0.13886500149E+03  0.00000000000E+00 0. -1.
         21   -1    0    0  501  502 -0.00000000000E+00 -0.00000000000E+00 -0.62834933277E+03  0.62834933277E+03  0.00000000000E+00 0. -1.
         25    1    1    2    0    0 -0.18495385648E+03 -0.30119281663E+02 -0.24471978346E+03  0.33260768568E+03  0.12500000000E+03 0.  0.
         25    1    1    2    0    0  0.13309217098E+03  0.48213415317E+02 -0.47550312030E+02  0.19474108854E+03  0.12500000000E+03 0.  0.
         25    1    1    2    0    0  0.51861685508E+02 -0.18094133654E+02 -0.19721423579E+03  0.23986556005E+03  0.12500000000E+03 0.  0.
</event>
<event>
 5    0  0.5583350E-005  0.3059199E+03  0.7546771E-02  0.1082318E+00
         21   -1    0    0  502  501  0.00000000000E+00  0.00000000000E+00  0.73946107243E+03  0.73946107243E+03  0.00000000000E+00 0.  1.
         21   -1    0    0  501  502 -0.00000000000E+00 -0.00000000000E+00 -0.12656104272E+03  0.12656104272E+03  0.00000000000E+00 0.  1.
         25    1    1    2    0    0  0.22326094399E+02  0.85602092841E+02  0.16149646959E+03  0.22255849227E+03  0.12500000000E+03 0.  0.
         25    1    1    2    0    0  0.69858893286E+02 -0.17779747556E+03  0.39144771465E+03  0.45315397007E+03  0.12500000000E+03 0.  0.
         25    1    1    2    0    0 -0.92184987685E+02  0.92195382716E+02  0.59955845473E+02  0.19030965282E+03  0.12500000000E+03 0.  0.
</event>
<event>
 5    0  0.5583350E-005  0.2373338E+03  0.7546771E-02  0.1121582E+00
         21   -1    0    0  502  501  0.00000000000E+00  0.00000000000E+00  0.24044015054E+03  0.24044015054E+03  0.00000000000E+00 0.  1.
         21   -1    0    0  501  502 -0.00000000000E+00 -0.00000000000E+00 -0.23426755325E+03  0.23426755325E+03  0.00000000000E+00 0.  1.
         25    1    1    2    0    0  0.52425661661E+02  0.16033693083E+02  0.61836421592E+02  0.14984749698E+03  0.12500000000E+03 0.  0.
         25    1    1    2    0    0 -0.11723186578E+03 -0.40410072131E+02 -0.44021085259E+02  0.18149143294E+03  0.12500000000E+03 0.  0.
         25    1    1    2    0    0  0.64806204119E+02  0.24376379048E+02 -0.11642739043E+02  0.14336877387E+03  0.12500000000E+03 0.  0.
</event>
<event>
 5    0  0.5583350E-005  0.2498787E+03  0.7546771E-02  0.1113381E+00
         21   -1    0    0  502  501  0.00000000000E+00  0.00000000000E+00  0.36306269171E+02  0.36306269171E+02  0.00000000000E+00 0. -1.
         21   -1    0    0  501  502 -0.00000000000E+00 -0.00000000000E+00 -0.17197961108E+04  0.17197961108E+04  0.00000000000E+00 0. -1.
         25    1    1    2    0    0 -0.34710868992E+02 -0.50809517900E+02 -0.99021114905E+03  0.99996478500E+03  0.12500000000E+03 0.  0.
         25    1    1    2    0    0  0.90368384935E+02  0.10778369065E+02 -0.29418262867E+03  0.33234174767E+03  0.12500000000E+03 0.  0.
         25    1    1    2    0    0 -0.55657515944E+02  0.40031148835E+02 -0.39909606388E+03  0.42379584727E+03  0.12500000000E+03 0.  0.
</event>
<event>
 5    0  0.5583350E-005  0.2463784E+03  0.7546771E-02  0.1115615E+00
         21   -1    0    0  502  501  0.00000000000E+00  0.00000000000E+00  0.11612330707E+03  0.11612330707E+03  0.00000000000E+00 0. -1.
         21   -1    0    0  501  502 -0.00000000000E+00 -0.00000000000E+00 -0.52274015592E+03  0.52274015592E+03  0.00000000000E+00 0. -1.
         25    1    1    2    0    0  0.89556972370E+02 -0.41036497088E+02 -0.15737424282E+03  0.22382157558E+03  0.12500000000E+03 0.  0.
         25    1    1    2    0    0 -0.17581592908E+02  0.10080380738E+03 -0.18660271677E+03  0.24681185931E+03  0.12500000000E+03 0.  0.
         25    1    1    2    0    0 -0.71975379462E+02 -0.59767310295E+02 -0.62639889270E+02  0.16823002811E+03  0.12500000000E+03 0.  0.
</event>
<event>
 5    0  0.5583350E-005  0.2510485E+03  0.7546771E-02  0.1112644E+00
         21   -1    0    0  502  501  0.00000000000E+00  0.00000000000E+00  0.30714163741E+03  0.30714163741E+03  0.00000000000E+00 0. -1.
         21   -1    0    0  501  502 -0.00000000000E+00 -0.00000000000E+00 -0.20519955764E+03  0.20519955764E+03  0.00000000000E+00 0. -1.
         25    1    1    2    0    0 -0.48697031022E+02  0.46703467286E+02 -0.67720914144E+02  0.15736497990E+03  0.12500000000E+03 0.  0.
         25    1    1    2    0    0  0.10417924725E+03  0.10752511504E+02  0.97699091467E+02  0.19010272101E+03  0.12500000000E+03 0.  0.
         25    1    1    2    0    0 -0.55482216226E+02 -0.57455978790E+02  0.71963902445E+02  0.16487349414E+03  0.12500000000E+03 0.  0.
</event>
<event>
 5    0  0.5583350E-005  0.3050619E+03  0.7546771E-02  0.1082737E+00
         21   -1    0    0  502  501  0.00000000000E+00  0.00000000000E+00  0.43102775544E+03  0.43102775544E+03  0.00000000000E+00 0.  1.
         21   -1    0    0  501  502 -0.00000000000E+00 -0.00000000000E+00 -0.21590897316E+03  0.21590897316E+03  0.00000000000E+00 0.  1.
         25    1    1    2    0    0 -0.74879180001E+02  0.35331491382E+01 -0.64188403947E+02  0.15926244360E+03  0.12500000000E+03 0.  0.
         25    1    1    2    0    0  0.16524154121E+03 -0.54812783939E+02  0.76044868301E+02  0.22741378635E+03  0.12500000000E+03 0.  0.
         25    1    1    2    0    0 -0.90362361214E+02  0.51279634801E+02  0.20326231793E+03  0.26026049865E+03  0.12500000000E+03 0.  0.
</event>
<event>
 5    0  0.5583350E-005  0.3700027E+03  0.7546771E-02  0.1054692E+00
         21   -1    0    0  502  501  0.00000000000E+00  0.00000000000E+00  0.10154041524E+04  0.10154041524E+04  0.00000000000E+00 0. -1.
         21   -1    0    0  501  502 -0.00000000000E+00 -0.00000000000E+00 -0.13482515948E+03  0.13482515948E+03  0.00000000000E+00 0. -1.
         25    1    1    2    0    0  0.21074146129E+02 -0.20106200190E+03  0.66994198129E+03  0.71085674122E+03  0.12500000000E+03 0.  0.
         25    1    1    2    0    0 -0.72122160987E+00 -0.10050556307E+02  0.17820964379E+02  0.12666538838E+03  0.12500000000E+03 0.  0.
         25    1    1    2    0    0 -0.20352924519E+02  0.21111255821E+03  0.19281604726E+03  0.31270718228E+03  0.12500000000E+03 0.  0.
</event>
<event>
 5    0  0.5583350E-005  0.3890685E+03  0.7546771E-02  0.1047632E+00
         21   -1    0    0  502  501  0.00000000000E+00  0.00000000000E+00  0.96201517130E+02  0.96201517130E+02  0.00000000000E+00 0. -1.
         21   -1    0    0  501  502 -0.00000000000E+00 -0.00000000000E+00 -0.15735128114E+04  0.15735128114E+04  0.00000000000E+00 0. -1.
         25    1    1    2    0    0  0.14618880574E+03 -0.44576594625E+02 -0.12229523052E+03  0.23224849433E+03  0.12500000000E+03 0.  0.
         25    1    1    2    0    0 -0.35552382601E+02  0.14625993751E+03 -0.26136417619E+03  0.32648456905E+03  0.12500000000E+03 0.  0.
         25    1    1    2    0    0 -0.11063642314E+03 -0.10168334289E+03 -0.10936518876E+04  0.11109812652E+04  0.12500000000E+03 0.  0.
</event>
<event>
 5    0  0.5583350E-005  0.4559283E+03  0.7546771E-02  0.1025969E+00
         21   -1    0    0  502  501  0.00000000000E+00  0.00000000000E+00  0.13818672553E+04  0.13818672553E+04  0.00000000000E+00 0.  1.
         21   -1    0    0  501  502 -0.00000000000E+00 -0.00000000000E+00 -0.15042731269E+03  0.15042731269E+03  0.00000000000E+00 0.  1.
         25    1    1    2    0    0 -0.19973183311E+03 -0.78284713240E+02  0.38064664565E+02  0.25118761947E+03  0.12500000000E+03 0.  0.
         25    1    1    2    0    0  0.13991963979E+03  0.17917940768E+03  0.46147880767E+03  0.52940575711E+03  0.12500000000E+03 0.  0.
         25    1    1    2    0    0  0.59812193324E+02 -0.10089469444E+03  0.73189647037E+03  0.75170119142E+03  0.12500000000E+03 0.  0.
</event>
<event>
 5    0  0.5583350E-005  0.3494779E+03  0.7546771E-02  0.1062830E+00
         21   -1    0    0  502  501  0.00000000000E+00  0.00000000000E+00  0.14645345751E+03  0.14645345751E+03  0.00000000000E+00 0.  1.
         21   -1    0    0  501  502 -0.00000000000E+00 -0.00000000000E+00 -0.83394976419E+03  0.83394976419E+03  0.00000000000E+00 0.  1.
         25    1    1    2    0    0 -0.38558045164E+02  0.22125713369E+03 -0.48311747356E+03  0.54723754925E+03  0.12500000000E+03 0.  0.
         25    1    1    2    0    0 -0.53765823297E+02 -0.14069392030E+03 -0.55694675034E+02  0.20350046632E+03  0.12500000000E+03 0.  0.
         25    1    1    2    0    0  0.92323868461E+02 -0.80563213392E+02 -0.14868415809E+03  0.22966520613E+03  0.12500000000E+03 0.  0.
</event>
<event>
 5    0  0.5583350E-005  0.2962047E+03  0.7546771E-02  0.1087153E+00
         21   -1    0    0  502  501  0.00000000000E+00  0.00000000000E+00  0.14930832165E+04  0.14930832165E+04  0.00000000000E+00 0. -1.
         21   -1    0    0  501  502 -0.00000000000E+00 -0.00000000000E+00 -0.58762432185E+02  0.58762432185E+02  0.00000000000E+00 0. -1.
         25    1    1    2    0    0 -0.63284111587E+02 -0.57890949076E+02  0.43991868217E+03  0.46530601510E+03  0.12500000000E+03 0.  0.
         25    1    1    2    0    0  0.13872548856E+03  0.16456612312E+03  0.46999668344E+03  0.53183517419E+03  0.12500000000E+03 0.  0.
         25    1    1    2    0    0 -0.75441376968E+02 -0.10667517404E+03  0.52440541868E+03  0.55470445938E+03  0.12500000000E+03 0.  0.
</event>
<event>
 5    0  0.5583350E-005  0.2446297E+03  0.7546771E-02  0.1116747E+00
         21   -1    0    0  502  501  0.00000000000E+00  0.00000000000E+00  0.16719939967E+04  0.16719939967E+04  0.00000000000E+00 0.  1.
         21   -1    0    0  501  502 -0.00000000000E+00 -0.00000000000E+00 -0.35791801485E+02  0.35791801485E+02  0.00000000000E+00 0.  1.
         25    1    1    2    0    0  0.35969904327E+02 -0.55171668591E+02  0.55453312088E+03  0.57224970877E+03  0.12500000000E+03 0.  0.
         25    1    1    2    0    0 -0.13382638122E+02  0.13764227807E+03  0.71314328653E+03  0.73710436089E+03  0.12500000000E+03 0.  0.
         25    1    1    2    0    0 -0.22587266205E+02 -0.82470609484E+02  0.36852578784E+03  0.39843172856E+03  0.12500000000E+03 0.  0.
</event>
<event>
 5    0  0.5583350E-005  0.5028405E+03  0.7546771E-02  0.1013040E+00
         21   -1    0    0  502  501  0.00000000000E+00  0.00000000000E+00  0.28748048103E+03  0.28748048103E+03  0.00000000000E+00 0. -1.
         21   -1    0    0  501  502 -0.00000000000E+00 -0.00000000000E+00 -0.87953308801E+03  0.87953308801E+03  0.00000000000E+00 0. -1.
         25    1    1    2    0    0 -0.59960567619E+02 -0.33537697461E+03 -0.40219852230E+03  0.54172099471E+03  0.12500000000E+03 0.  0.
         25    1    1    2    0    0  0.22929414664E+03  0.11028011072E+03 -0.54334778379E+02  0.28864299168E+03  0.12500000000E+03 0.  0.
         25    1    1    2    0    0 -0.16933357903E+03  0.22509686389E+03 -0.13551930630E+03  0.33664958265E+03  0.12500000000E+03 0.  0.
</event>
<event>
 5    0  0.5583350E-005  0.5887583E+03  0.7546771E-02  0.9929007E-01
         21   -1    0    0  502  501  0.00000000000E+00  0.00000000000E+00  0.10282139208E+04  0.10282139208E+04  0.00000000000E+00 0.  1.
         21   -1    0    0  501  502 -0.00000000000E+00 -0.00000000000E+00 -0.33712477999E+03  0.33712477999E+03  0.00000000000E+00 0.  1.
         25    1    1    2    0    0 -0.55270446741E+02 -0.24571998235E+03 -0.58429216030E+02  0.28717956977E+03  0.12500000000E+03 0.  0.
         25    1    1    2    0    0 -0.57125690315E+02  0.47004364682E+03  0.41666680474E+03  0.64299346854E+03  0.12500000000E+03 0.  0.
         25    1    1    2    0    0  0.11239613706E+03 -0.22432366448E+03  0.33285155210E+03  0.43516566248E+03  0.12500000000E+03 0.  0.
</event>
<event>
 5    0  0.5583350E-005  0.2707716E+03  0.7546771E-02  0.1100839E+00
         21   -1    0    0  502  501  0.00000000000E+00  0.00000000000E+00  0.42715699300E+03  0.42715699300E+03  0.00000000000E+00 0.  1.
         21   -1    0    0  501  502 -0.00000000000E+00 -0.00000000000E+00 -0.17164008413E+03  0.17164008413E+03  0.00000000000E+00 0.  1.
         25    1    1    2    0    0 -0.11704623310E+03 -0.11742735504E+03  0.44078569882E+02  0.21226616480E+03  0.12500000000E+03 0.  0.
         25    1    1    2    0    0  0.31526132942E+02  0.93148684515E+02  0.57238246445E+02  0.16903192403E+03  0.12500000000E+03 0.  0.
         25    1    1    2    0    0  0.85520100155E+02  0.24278670529E+02  0.15420009255E+03  0.21749898831E+03  0.12500000000E+03 0.  0.
</event>
<event>
 5    0  0.5583350E-005  0.3573927E+03  0.7546771E-02  0.1059621E+00
         21   -1    0    0  502  501  0.00000000000E+00  0.00000000000E+00  0.20258863673E+03  0.20258863673E+03  0.00000000000E+00 0.  1.
         21   -1    0    0  501  502 -0.00000000000E+00 -0.00000000000E+00 -0.63048709473E+03  0.63048709473E+03  0.00000000000E+00 0.  1.
         25    1    1    2    0    0 -0.61585904798E+02  0.12889496135E+03 -0.41731157657E+03  0.45845467243E+03  0.12500000000E+03 0.  0.
         25    1    1    2    0    0 -0.46643848762E+01  0.55136098474E+02 -0.35304409105E+02  0.14118479785E+03  0.12500000000E+03 0.  0.
         25    1    1    2    0    0  0.66250289674E+02 -0.18403105983E+03  0.24717527677E+02  0.23343626119E+03  0.12500000000E+03 0.  0.
</event>
<event>
 5    0  0.5583350E-005  0.2630607E+03  0.7546771E-02  0.1105318E+00
         21   -1    0    0  502  501  0.00000000000E+00  0.00000000000E+00  0.25103966960E+03  0.25103966960E+03  0.00000000000E+00 0.  1.
         21   -1    0    0  501  502 -0.00000000000E+00 -0.00000000000E+00 -0.27565726867E+03  0.27565726867E+03  0.00000000000E+00 0.  1.
         25    1    1    2    0    0  0.13179575302E+02 -0.70262705605E+02 -0.61008533507E+02  0.15638922650E+03  0.12500000000E+03 0.  0.
         25    1    1    2    0    0  0.70943841682E+02  0.25392532160E+02 -0.87477094662E+02  0.17016183900E+03  0.12500000000E+03 0.  0.
         25    1    1    2    0    0 -0.84123416983E+02  0.44870173445E+02  0.12386802910E+03  0.20014587276E+03  0.12500000000E+03 0.  0.
</event>
<event>
 5    0  0.5583350E-005  0.3317169E+03  0.7546771E-02  0.1070380E+00
         21   -1    0    0  502  501  0.00000000000E+00  0.00000000000E+00  0.14655885495E+04  0.14655885495E+04  0.00000000000E+00 0.  1.
         21   -1    0    0  501  502 -0.00000000000E+00 -0.00000000000E+00 -0.75079783026E+02  0.75079783026E+02  0.00000000000E+00 0.  1.
         25    1    1    2    0    0 -0.48761806057E+02  0.14900454054E+03  0.46236440000E+03  0.50397014319E+03  0.12500000000E+03 0.  0.
         25    1    1    2    0    0 -0.92301235053E+02  0.62289904855E+02  0.24035138350E+03  0.29290499790E+03  0.12500000000E+03 0.  0.
         25    1    1    2    0    0  0.14106304111E+03 -0.21129444540E+03  0.68779298297E+03  0.74379319145E+03  0.12500000000E+03 0.  0.
</event>
<event>
 5    0  0.5583350E-005  0.2618568E+03  0.7546771E-02  0.1106033E+00
         21   -1    0    0  502  501  0.00000000000E+00  0.00000000000E+00  0.15919680146E+04  0.15919680146E+04  0.00000000000E+00 0.  1.
         21   -1    0    0  501  502 -0.00000000000E+00 -0.00000000000E+00 -0.43071848613E+02  0.43071848613E+02  0.00000000000E+00 0.  1.
         25    1    1    2    0    0  0.34475186533E+02  0.12214426221E+03  0.40598520701E+03  0.44334720884E+03  0.12500000000E+03 0.  0.
         25    1    1    2    0    0  0.39337456372E+02 -0.13879319788E+03  0.61600371927E+03  0.64490043372E+03  0.12500000000E+03 0.  0.
         25    1    1    2    0    0 -0.73812642905E+02  0.16648935670E+02  0.52690723969E+03  0.54679222064E+03  0.12500000000E+03 0.  0.
</event>
<event>
 5    0  0.5583350E-005  0.3473021E+03  0.7546771E-02  0.1063728E+00
         21   -1    0    0  502  501  0.00000000000E+00  0.00000000000E+00  0.55812845437E+03  0.55812845437E+03  0.00000000000E+00 0. -1.
         21   -1    0    0  501  502 -0.00000000000E+00 -0.00000000000E+00 -0.21611282960E+03  0.21611282960E+03  0.00000000000E+00 0. -1.
         25    1    1    2    0    0 -0.12504885904E+03 -0.90586448643E+02 -0.15970791404E+02  0.19930676858E+03  0.12500000000E+03 0.  0.
         25    1    1    2    0    0 -0.91344078220E+02  0.63166877463E+02  0.44377444174E+02  0.17299755081E+03  0.12500000000E+03 0.  0.
         25    1    1    2    0    0  0.21639293726E+03  0.27419571180E+02  0.31360897200E+03  0.40193696459E+03  0.12500000000E+03 0.  0.
</event>
<event>
 5    0  0.5583350E-005  0.3968197E+03  0.7546771E-02  0.1044886E+00
         21   -1    0    0  502  501  0.00000000000E+00  0.00000000000E+00  0.96149235660E+02  0.96149235660E+02  0.00000000000E+00 0.  1.
         21   -1    0    0  501  502 -0.00000000000E+00 -0.00000000000E+00 -0.16377238584E+04  0.16377238584E+04  0.00000000000E+00 0.  1.
         25    1    1    2    0    0 -0.11107456136E+02  0.22920808346E+03 -0.69859543911E+03  0.74586882805E+03  0.12500000000E+03 0.  0.
         25    1    1    2    0    0 -0.18315479756E+03 -0.65217335430E+02 -0.40750312418E+03  0.46848988989E+03  0.12500000000E+03 0.  0.
         25    1    1    2    0    0  0.19426225370E+03 -0.16399074803E+03 -0.43547605948E+03  0.51951437616E+03  0.12500000000E+03 0.  0.
</event>
<event>
 5    0  0.6345577E-005  0.2748706E+03  0.7546771E-02  0.1098524E+00
         21   -1    0    0  502  501  0.00000000000E+00  0.00000000000E+00  0.61805347021E+03  0.61805347021E+03  0.00000000000E+00 0. -1.
         21   -1    0    0  501  502 -0.00000000000E+00 -0.00000000000E+00 -0.12224481075E+03  0.12224481075E+03  0.00000000000E+00 0. -1.
         25    1    1    2    0    0  0.94004502446E+02  0.14334493225E+01 -0.19176729520E+02  0.15758060862E+03  0.12500000000E+03 0.  0.
         25    1    1    2    0    0 -0.42783224976E+02  0.22980680962E+02  0.28285239906E+03  0.31303194037E+03  0.12500000000E+03 0.  0.
         25    1    1    2    0    0 -0.51221277470E+02 -0.24414130284E+02  0.23213298993E+03  0.26968573198E+03  0.12500000000E+03 0.  0.
</event>
<event>
 5    0  0.5583350E-005  0.2467715E+03  0.7546771E-02  0.1115362E+00
         21   -1    0    0  502  501  0.00000000000E+00  0.00000000000E+00  0.81461369534E+03  0.81461369534E+03  0.00000000000E+00 0. -1.
         21   -1    0    0  501  502 -0.00000000000E+00 -0.00000000000E+00 -0.74754665079E+02  0.74754665079E+02  0.00000000000E+00 0. -1.
         25    1    1    2    0    0 -0.39683534553E+02  0.11346162453E+03  0.17922410076E+03  0.24938845492E+03  0.12500000000E+03 0.  0.
         25    1    1    2    0    0  0.50434495713E+02  0.59161217488E+01  0.26448927060E+03  0.29691448788E+03  0.12500000000E+03 0.  0.
         25    1    1    2    0    0 -0.10750961160E+02 -0.11937774628E+03  0.29614565891E+03  0.34306541762E+03  0.12500000000E+03 0.  0.
</event>
<event>
 5    0  0.5583350E-005  0.3647004E+03  0.7546771E-02  0.1056738E+00
         21   -1    0    0  502  501  0.00000000000E+00  0.00000000000E+00  0.68046082053E+03  0.68046082053E+03  0.00000000000E+00 0.  1.
         21   -1    0    0  501  502 -0.00000000000E+00 -0.00000000000E+00 -0.19546511873E+03  0.19546511873E+03  0.00000000000E+00 0.  1.
         25    1    1    2    0    0 -0.76062223735E+02 -0.13511963475E+03  0.13308318997E+03  0.23953895931E+03  0.12500000000E+03 0.  0.
         25    1    1    2    0    0  0.20739168811E+03 -0.59434908235E+02  0.95599169666E+02  0.26703561907E+03  0.12500000000E+03 0.  0.
         25    1    1    2    0    0 -0.13132946437E+03  0.19455454298E+03  0.25631334217E+03  0.36935136088E+03  0.12500000000E+03 0.  0.
</event>
<event>
 5    0  0.5583350E-005  0.6529442E+03  0.7546771E-02  0.9801270E-01
         21   -1    0    0  502  501  0.00000000000E+00  0.00000000000E+00  0.14849614722E+04  0.14849614722E+04  0.00000000000E+00 0.  1.
         21   -1    0    0  501  502 -0.00000000000E+00 -0.00000000000E+00 -0.28710249712E+03  0.28710249712E+03  0.00000000000E+00 0.  1.
         25    1    1    2    0    0  0.33539620973E+02 -0.10943886767E+03 -0.11648472732E+03  0.20565860943E+03  0.12500000000E+03 0.  0.
         25    1    1    2    0    0  0.31691016498E+03  0.25736733081E+03  0.48969512568E+03  0.64968939636E+03  0.12500000000E+03 0.  0.
         25    1    1    2    0    0 -0.35044978596E+03 -0.14792846314E+03  0.82464857672E+03  0.91671596352E+03  0.12500000000E+03 0.  0.
</event>
<event>
 5    0  0.5583350E-005  0.3649516E+03  0.7546771E-02  0.1056640E+00
         21   -1    0    0  502  501  0.00000000000E+00  0.00000000000E+00  0.33740379564E+03  0.33740379564E+03  0.00000000000E+00 0.  1.
         21   -1    0    0  501  502 -0.00000000000E+00 -0.00000000000E+00 -0.39474855891E+03  0.39474855891E+03  0.00000000000E+00 0.  1.
         25    1    1    2    0    0  0.18320824650E+02 -0.31519725972E+02 -0.12887005176E+02  0.13084426103E+03  0.12500000000E+03 0.  0.
         25    1    1    2    0    0 -0.13534156239E+03  0.71109187720E+01 -0.26388329665E+03  0.32191194126E+03  0.12500000000E+03 0.  0.
         25    1    1    2    0    0  0.11702073774E+03  0.24408807200E+02  0.21942553856E+03  0.27939615227E+03  0.12500000000E+03 0.  0.
</event>
<event>
 5    0  0.5583350E-005  0.2943261E+03  0.7546771E-02  0.1088112E+00
         21   -1    0    0  502  501  0.00000000000E+00  0.00000000000E+00  0.14772158946E+03  0.14772158946E+03  0.00000000000E+00 0. -1.
         21   -1    0    0  501  502 -0.00000000000E+00 -0.00000000000E+00 -0.58642647396E+03  0.58642647396E+03  0.00000000000E+00 0. -1.
         25    1    1    2    0    0  0.16255874949E+03  0.77653696197E+02 -0.80666058744E+02  0.23363958697E+03  0.12500000000E+03 0.  0.
         25    1    1    2    0    0 -0.13808838943E+03  0.22513080974E+02 -0.18675603546E+03  0.26472260744E+03  0.12500000000E+03 0.  0.
         25    1    1    2    0    0 -0.24470360059E+02 -0.10016677717E+03 -0.17128279029E+03  0.23578586900E+03  0.12500000000E+03 0.  0.
</event>
<event>
 5    0  0.5583350E-005  0.4067790E+03  0.7546771E-02  0.1041457E+00
         21   -1    0    0  502  501  0.00000000000E+00  0.00000000000E+00  0.78194752318E+03  0.78194752318E+03  0.00000000000E+00 0. -1.
         21   -1    0    0  501  502 -0.00000000000E+00 -0.00000000000E+00 -0.21161159737E+03  0.21161159737E+03  0.00000000000E+00 0. -1.
         25    1    1    2    0    0 -0.20653482259E+03 -0.12554487789E+02  0.25615033470E+03  0.35221050818E+03  0.12500000000E+03 0.  0.
         25    1    1    2    0    0  0.14195782617E+03 -0.21414677957E+03  0.11328774044E+03  0.30735969115E+03  0.12500000000E+03 0.  0.
         25    1    1    2    0    0  0.64576996417E+02  0.22670126736E+03  0.20089785067E+03  0.33398892121E+03  0.12500000000E+03 0.  0.
</event>
<event>
 5    0  0.5974318E-005  0.2851840E+03  0.7546771E-02  0.1092891E+00
         21   -1    0    0  502  501  0.00000000000E+00  0.00000000000E+00  0.26186445937E+03  0.26186445937E+03  0.00000000000E+00 0. -1.
         21   -1    0    0  501  502 -0.00000000000E+00 -0.00000000000E+00 -0.31058027013E+03  0.31058027013E+03  0.00000000000E+00 0. -1.
         25    1    1    2    0    0 -0.53983478587E+02  0.68806491263E+02 -0.17454495038E+03  0.23181779247E+03  0.12500000000E+03 0.  0.
         25    1    1    2    0    0 -0.24092215122E+02  0.18696247351E+01  0.12318744296E+03  0.17715551481E+03  0.12500000000E+03 0.  0.
         25    1    1    2    0    0  0.78075693709E+02 -0.70676115998E+02  0.26416966708E+01  0.16347142222E+03  0.12500000000E+03 0.  0.
</event>
<event>
 5    0  0.6182884E-005  0.3295601E+03  0.7546771E-02  0.1071332E+00
         21   -1    0    0  502  501  0.00000000000E+00  0.00000000000E+00  0.27181459428E+03  0.27181459428E+03  0.00000000000E+00 0. -1.
         21   -1    0    0  501  502 -0.00000000000E+00 -0.00000000000E+00 -0.39957333945E+03  0.39957333945E+03  0.00000000000E+00 0. -1.
         25    1    1    2    0    0 -0.79341295056E+02 -0.18673815610E+03 -0.14281705718E+03  0.27782708987E+03  0.12500000000E+03 0.  0.
         25    1    1    2    0    0  0.13433838504E+03  0.12313286493E+03 -0.54536020330E+02  0.22761300849E+03  0.12500000000E+03 0.  0.
         25    1    1    2    0    0 -0.54997089982E+02  0.63605291164E+02  0.69594332334E+02  0.16594783537E+03  0.12500000000E+03 0.  0.
</event>
<event>
 5    0  0.5583350E-005  0.6187857E+03  0.7546771E-02  0.9867180E-01
         21   -1    0    0  502  501  0.00000000000E+00  0.00000000000E+00  0.56973035108E+03  0.56973035108E+03  0.00000000000E+00 0. -1.
         21   -1    0    0  501  502 -0.00000000000E+00 -0.00000000000E+00 -0.67206477981E+03  0.67206477981E+03  0.00000000000E+00 0. -1.
         25    1    1    2    0    0  0.90488368120E+02 -0.40721679295E+03  0.31547332820E+03  0.53773793062E+03  0.12500000000E+03 0.  0.
         25    1    1    2    0    0 -0.15240277997E+03  0.33103440528E+03 -0.19904749120E+03  0.43365341988E+03  0.12500000000E+03 0.  0.
         25    1    1    2    0    0  0.61914411849E+02  0.76182387668E+02 -0.21876026573E+03  0.27040378039E+03  0.12500000000E+03 0.  0.
</event>
<event>
 5    0  0.5583350E-005  0.2538106E+03  0.7546771E-02  0.1110920E+00
         21   -1    0    0  502  501  0.00000000000E+00  0.00000000000E+00  0.10307597529E+03  0.10307597529E+03  0.00000000000E+00 0. -1.
         21   -1    0    0  501  502 -0.00000000000E+00 -0.00000000000E+00 -0.62497431013E+03  0.62497431013E+03  0.00000000000E+00 0. -1.
         25    1    1    2    0    0  0.24059859078E+02 -0.31283584940E+02 -0.11011770694E+02  0.13154390370E+03  0.12500000000E+03 0.  0.
         25    1    1    2    0    0 -0.53562688059E+02  0.50265359565E+02 -0.13229226315E+03  0.19626973993E+03  0.12500000000E+03 0.  0.
         25    1    1    2    0    0  0.29502828980E+02 -0.18981774626E+02 -0.37859430100E+03  0.40023664179E+03  0.12500000000E+03 0.  0.
</event>
<event>
 5    0  0.5583350E-005  0.2689759E+03  0.7546771E-02  0.1101867E+00
         21   -1    0    0  502  501  0.00000000000E+00  0.00000000000E+00  0.24065448283E+03  0.24065448283E+03  0.00000000000E+00 0. -1.
         21   -1    0    0  501  502 -0.00000000000E+00 -0.00000000000E+00 -0.30063041022E+03  0.30063041022E+03  0.00000000000E+00 0. -1.
         25    1    1    2    0    0  0.11743913505E+03 -0.12533375964E+01 -0.29919065138E+02  0.17410821852E+03  0.12500000000E+03 0.  0.
         25    1    1    2    0    0  0.22054529699E+02  0.60226920104E+02 -0.83795396591E+02  0.16358591833E+03  0.12500000000E+03 0.  0.
         25    1    1    2    0    0 -0.13949366475E+03 -0.58973582507E+02  0.53738534337E+02  0.20359075620E+03  0.12500000000E+03 0.  0.
</event>
<event>
 5    0  0.5583350E-005  0.4170961E+03  0.7546771E-02  0.1038016E+00
         21   -1    0    0  502  501  0.00000000000E+00  0.00000000000E+00  0.39680132287E+03  0.39680132287E+03  0.00000000000E+00 0. -1.
         21   -1    0    0  501  502 -0.00000000000E+00 -0.00000000000E+00 -0.43842890622E+03  0.43842890622E+03  0.00000000000E+00 0. -1.
         25    1    1    2    0    0 -0.11392980071E+03 -0.29814985658E+03 -0.74530194677E+02  0.35078923357E+03  0.12500000000E+03 0.  0.
         25    1    1    2    0    0  0.56508016165E+02  0.54842763741E+02  0.12145109035E+03  0.19124918816E+03  0.12500000000E+03 0.  0.
         25    1    1    2    0    0  0.57421784543E+02  0.24330709284E+03 -0.88548479022E+02  0.29319180736E+03  0.12500000000E+03 0.  0.
</event>
<event>
 5    0  0.5583350E-005  0.3331838E+03  0.7546771E-02  0.1069737E+00
         21   -1    0    0  502  501  0.00000000000E+00  0.00000000000E+00  0.15945799084E+04  0.15945799084E+04  0.00000000000E+00 0. -1.
         21   -1    0    0  501  502 -0.00000000000E+00 -0.00000000000E+00 -0.69617994293E+02  0.69617994293E+02  0.00000000000E+00 0. -1.
         25    1    1    2    0    0  0.26464667083E+02  0.24252500716E+02  0.11197054921E+03  0.17161283835E+03  0.12500000000E+03 0.  0.
         25    1    1    2    0    0  0.18245025384E+02 -0.80507133982E+02  0.12096981170E+03  0.19254343644E+03  0.12500000000E+03 0.  0.
         25    1    1    2    0    0 -0.44709692467E+02  0.56254633266E+02  0.12920215532E+04  0.13000416279E+04  0.12500000000E+03 0.  0.
</event>
<event>
 5    0  0.5583350E-005  0.2550238E+03  0.7546771E-02  0.1110170E+00
         21   -1    0    0  502  501  0.00000000000E+00  0.00000000000E+00  0.10382048713E+04  0.10382048713E+04  0.00000000000E+00 0.  1.
         21   -1    0    0  501  502 -0.00000000000E+00 -0.00000000000E+00 -0.62643816775E+02  0.62643816775E+02  0.00000000000E+00 0.  1.
         25    1    1    2    0    0 -0.10709507610E+03 -0.27257859133E+01  0.27821419433E+03  0.32327221217E+03  0.12500000000E+03 0.  0.
         25    1    1    2    0    0  0.39355023011E+02 -0.10259800566E+03  0.36144169704E+03  0.39791992782E+03  0.12500000000E+03 0.  0.
         25    1    1    2    0    0  0.67740053092E+02  0.10532379158E+03  0.33590516316E+03  0.37965654809E+03  0.12500000000E+03 0.  0.
</event>
<event>
 5    0  0.5583350E-005  0.2978949E+03  0.7546771E-02  0.1086298E+00
         21   -1    0    0  502  501  0.00000000000E+00  0.00000000000E+00  0.35353651213E+03  0.35353651213E+03  0.00000000000E+00 0. -1.
         21   -1    0    0  501  502 -0.00000000000E+00 -0.00000000000E+00 -0.25101051223E+03  0.25101051223E+03  0.00000000000E+00 0. -1.
         25    1    1    2    0    0 -0.72095697284E+02 -0.15962005229E+03  0.40473152703E+02  0.21895074046E+03  0.12500000000E+03 0.  0.
         25    1    1    2    0    0  0.98158680927E+02  0.19080964785E+03  0.52403795194E+02  0.25380032724E+03  0.12500000000E+03 0.  0.
         25    1    1    2    0    0 -0.26062983643E+02 -0.31189595568E+02  0.96490520058E+01  0.13179595666E+03  0.12500000000E+03 0.  0.
</event>
<event>
 5    0  0.5583350E-005  0.3048006E+03  0.7546771E-02  0.1082865E+00
         21   -1    0    0  502  501  0.00000000000E+00  0.00000000000E+00  0.36539927605E+03  0.36539927605E+03  0.00000000000E+00 0.  1.
         21   -1    0    0  501  502 -0.00000000000E+00 -0.00000000000E+00 -0.25425179250E+03  0.25425179250E+03  0.00000000000E+00 0.  1.
         25    1    1    2    0    0 -0.14006285673E+03  0.17103620224E+03  0.10210787420E+03  0.27371884167E+03  0.12500000000E+03 0.  0.
         25    1    1    2    0    0  0.51075019650E+02 -0.93396936012E+02 -0.36175841828E+02  0.16812298124E+03  0.12500000000E+03 0.  0.
         25    1    1    2    0    0  0.88987837076E+02 -0.77639266231E+02  0.45215451186E+02  0.17780924564E+03  0.12500000000E+03 0.  0.
</event>
<event>
 5    0  0.5583350E-005  0.5461082E+03  0.7546771E-02  0.1002399E+00
         21   -1    0    0  502  501  0.00000000000E+00  0.00000000000E+00  0.12510270427E+03  0.12510270427E+03  0.00000000000E+00 0. -1.
         21   -1    0    0  501  502 -0.00000000000E+00 -0.00000000000E+00 -0.23839148159E+04  0.23839148159E+04  0.00000000000E+00 0. -1.
         25    1    1    2    0    0  0.38813556969E+03 -0.61094472707E+02 -0.17699667776E+04  0.18173577382E+04  0.12500000000E+03 0.  0.
         25    1    1    2    0    0 -0.16019906389E+03 -0.40438550346E+02 -0.17064267508E+03  0.26840815745E+03  0.12500000000E+03 0.  0.
         25    1    1    2    0    0 -0.22793650580E+03  0.10153302305E+03 -0.31820265903E+03  0.42325162452E+03  0.12500000000E+03 0.  0.
</event>
<event>
 5    0  0.5583350E-005  0.3770941E+03  0.7546771E-02  0.1052013E+00
         21   -1    0    0  502  501  0.00000000000E+00  0.00000000000E+00  0.22856836664E+03  0.22856836664E+03  0.00000000000E+00 0.  1.
         21   -1    0    0  501  502 -0.00000000000E+00 -0.00000000000E+00 -0.62213323020E+03  0.62213323020E+03  0.00000000000E+00 0.  1.
         25    1    1    2    0    0 -0.13636480963E+02  0.15922931748E+03 -0.14574757489E+03  0.24981450067E+03  0.12500000000E+03 0.  0.
         25    1    1    2    0    0  0.40644593036E+01  0.12555263053E+03 -0.22845423811E+03  0.28913028512E+03  0.12500000000E+03 0.  0.
         25    1    1    2    0    0  0.95720216594E+01 -0.28478194801E+03 -0.19363050552E+02  0.31175681105E+03  0.12500000000E+03 0.  0.
</event>
<event>
 5    0  0.6216948E-005  0.3253693E+03  0.7546771E-02  0.1073204E+00
         21   -1    0    0  502  501  0.00000000000E+00  0.00000000000E+00  0.58940347224E+03  0.58940347224E+03  0.00000000000E+00 0. -1.
         21   -1    0    0  501  502 -0.00000000000E+00 -0.00000000000E+00 -0.17961408329E+03  0.17961408329E+03  0.00000000000E+00 0. -1.
         25    1    1    2    0    0  0.14321505424E+03 -0.19154371814E+03  0.93961167447E+02  0.28575032582E+03  0.12500000000E+03 0.  0.
         25    1    1    2    0    0 -0.66030629779E+02  0.13489667422E+03  0.11038135120E+03  0.22442415083E+03  0.12500000000E+03 0.  0.
         25    1    1    2    0    0 -0.77184424457E+02  0.56647043922E+02  0.20544687030E+03  0.25884307887E+03  0.12500000000E+03 0.  0.
</event>
<event>
 5    0  0.5583350E-005  0.2237527E+03  0.7546771E-02  0.1131116E+00
         21   -1    0    0  502  501  0.00000000000E+00  0.00000000000E+00  0.53079210050E+03  0.53079210050E+03  0.00000000000E+00 0. -1.
         21   -1    0    0  501  502 -0.00000000000E+00 -0.00000000000E+00 -0.94321772723E+02  0.94321772723E+02  0.00000000000E+00 0. -1.
         25    1    1    2    0    0 -0.16614782008E+02  0.49108948640E+01  0.12547300068E+03  0.17795685367E+03  0.12500000000E+03 0.  0.
         25    1    1    2    0    0  0.64609995860E+02  0.79765914731E+02  0.17576610712E+03  0.23886351151E+03  0.12500000000E+03 0.  0.
         25    1    1    2    0    0 -0.47995213851E+02 -0.84676809595E+02  0.13523121998E+03  0.20829350804E+03  0.12500000000E+03 0.  0.
</event>
<event>
 5    0  0.5896475E-005  0.3518553E+03  0.7546771E-02  0.1061856E+00
         21   -1    0    0  502  501  0.00000000000E+00  0.00000000000E+00  0.25580325092E+03  0.25580325092E+03  0.00000000000E+00 0. -1.
         21   -1    0    0  501  502 -0.00000000000E+00 -0.00000000000E+00 -0.48397407789E+03  0.48397407789E+03  0.00000000000E+00 0. -1.
         25    1    1    2    0    0 -0.10346547275E+02  0.18733708965E+03 -0.97645676853E+02  0.24568661829E+03  0.12500000000E+03 0.  0.
         25    1    1    2    0    0 -0.10889659467E+03  0.13702157580E+02  0.49634639863E+02  0.17359382169E+03  0.12500000000E+03 0.  0.
         25    1    1    2    0    0  0.11924314194E+03 -0.20103924723E+03 -0.18015978998E+03  0.32049688883E+03  0.12500000000E+03 0.  0.
</event>
<event>
 5    0  0.5583350E-005  0.2898553E+03  0.7546771E-02  0.1090425E+00
         21   -1    0    0  502  501  0.00000000000E+00  0.00000000000E+00  0.19729770800E+03  0.19729770800E+03  0.00000000000E+00 0.  1.
         21   -1    0    0  501  502 -0.00000000000E+00 -0.00000000000E+00 -0.42583405515E+03  0.42583405515E+03  0.00000000000E+00 0.  1.
         25    1    1    2    0    0 -0.95854381363E+02  0.38246234531E+02 -0.10033858610E+02  0.16240848254E+03  0.12500000000E+03 0.  0.
         25    1    1    2    0    0  0.10099557437E+03  0.10701271465E+03 -0.36719684752E+02  0.19653285320E+03  0.12500000000E+03 0.  0.
         25    1    1    2    0    0 -0.51411930088E+01 -0.14525894918E+03 -0.18178280379E+03  0.26419042741E+03  0.12500000000E+03 0.  0.
</event>
<event>
 5    0  0.5583350E-005  0.3105655E+03  0.7546771E-02  0.1080075E+00
         21   -1    0    0  502  501  0.00000000000E+00  0.00000000000E+00  0.45894983673E+03  0.45894983673E+03  0.00000000000E+00 0. -1.
         21   -1    0    0  501  502 -0.00000000000E+00 -0.00000000000E+00 -0.21015577361E+03  0.21015577361E+03  0.00000000000E+00 0. -1.
         25    1    1    2    0    0 -0.20991669265E+03 -0.59162247227E+01  0.15138988031E+03  0.28747854777E+03  0.12500000000E+03 0.  0.
         25    1    1    2    0    0  0.10862005049E+03 -0.54007277189E+02 -0.17462121530E+02  0.17505721078E+03  0.12500000000E+03 0.  0.
         25    1    1    2    0    0  0.10129664216E+03  0.59923501912E+02  0.11486630434E+03  0.20656985179E+03  0.12500000000E+03 0.  0.
</event>
<event>
 5    0  0.5583350E-005  0.3403551E+03  0.7546771E-02  0.1066645E+00
         21   -1    0    0  502  501  0.00000000000E+00  0.00000000000E+00  0.18715068721E+04  0.18715068721E+04  0.00000000000E+00 0.  1.
         21   -1    0    0  501  502 -0.00000000000E+00 -0.00000000000E+00 -0.61897485745E+02  0.61897485745E+02  0.00000000000E+00 0.  1.
         25    1    1    2    0    0  0.89773905689E+01  0.15102025332E+03  0.10452439461E+04  0.10635072249E+04  0.12500000000E+03 0.  0.
         25    1    1    2    0    0 -0.14608269261E+03 -0.58518111149E+02  0.29690570224E+03  0.35852826728E+03  0.12500000000E+03 0.  0.
         25    1    1    2    0    0  0.13710530205E+03 -0.92502142167E+02  0.46745973795E+03  0.51136886565E+03  0.12500000000E+03 0.  0.
</event>
<event>
 5    0  0.5583350E-005  0.2985311E+03  0.7546771E-02  0.1085977E+00
         21   -1    0    0  502  501  0.00000000000E+00  0.00000000000E+00  0.11483264240E+04  0.11483264240E+04  0.00000000000E+00 0.  1.
         21   -1    0    0  501  502 -0.00000000000E+00 -0.00000000000E+00 -0.77609311854E+02  0.77609311854E+02  0.00000000000E+00 0.  1.
         25    1    1    2    0    0 -0.10747750826E+03  0.60771614426E+02  0.72229415027E+03  0.74335620224E+03  0.12500000000E+03 0.  0.
         25    1    1    2    0    0  0.93596842934E+02  0.33458019192E+02  0.99382376412E+02  0.18810014566E+03  0.12500000000E+03 0.  0.
         25    1    1    2    0    0  0.13880665329E+02 -0.94229633618E+02  0.24904058549E+03  0.29447938797E+03  0.12500000000E+03 0.  0.
</event>
<event>
 5    0  0.5583350E-005  0.5393559E+03  0.7546771E-02  0.1003988E+00
         21   -1    0    0  502  501  0.00000000000E+00  0.00000000000E+00  0.64659890406E+03  0.64659890406E+03  0.00000000000E+00 0.  1.
         21   -1    0    0  501  502 -0.00000000000E+00 -0.00000000000E+00 -0.44989992014E+03  0.44989992014E+03  0.00000000000E+00 0.  1.
         25    1    1    2    0    0  0.61865050639E+02 -0.17352577581E+03 -0.15376400707E+03  0.27056764262E+03  0.12500000000E+03 0.  0.
         25    1    1    2    0    0 -0.76887343102E+02 -0.22884902191E+03  0.29420829223E+03  0.40058339653E+03  0.12500000000E+03 0.  0.
         25    1    1    2    0    0  0.15022292462E+02  0.40237479772E+03  0.56254698759E+02  0.42534778505E+03  0.12500000000E+03 0.  0.
</event>
<event>
 5    0  0.5583350E-005  0.3146579E+03  0.7546771E-02  0.1078134E+00
         21   -1    0    0  502  501  0.00000000000E+00  0.00000000000E+00  0.51055091513E+02  0.51055091513E+02  0.00000000000E+00 0. -1.
         21   -1    0    0  501  502 -0.00000000000E+00 -0.00000000000E+00 -0.19392702393E+04  0.19392702393E+04  0.00000000000E+00 0. -1.
         25    1    1    2    0    0  0.77374846207E+02  0.10665050236E+03 -0.74629951345E+03  0.76808148022E+03  0.12500000000E+03 0.  0.
         25    1    1    2    0    0 -0.15470984410E+03 -0.12199987285E+03 -0.37840066002E+03  0.44455726779E+03  0.12500000000E+03 0.  0.
         25    1    1    2    0    0  0.77334997893E+02  0.15349370488E+02 -0.76351497432E+03  0.77768658281E+03  0.12500000000E+03 0.  0.
</event>
<event>
 5    0  0.5583350E-005  0.2760276E+03  0.7546771E-02  0.1097879E+00
         21   -1    0    0  502  501  0.00000000000E+00  0.00000000000E+00  0.26972132385E+04  0.26972132385E+04  0.00000000000E+00 0. -1.
         21   -1    0    0  501  502 -0.00000000000E+00 -0.00000000000E+00 -0.28248139137E+02  0.28248139137E+02  0.00000000000E+00 0. -1.
         25    1    1    2    0    0 -0.10586095587E+03  0.94020918396E+02  0.93883328542E+03  0.95764263318E+03  0.12500000000E+03 0.  0.
         25    1    1    2    0    0 -0.83246764877E+01 -0.13840839044E+03  0.96943303459E+03  0.98724444356E+03  0.12500000000E+03 0.  0.
         25    1    1    2    0    0  0.11418563236E+03  0.44387472043E+02  0.76069877935E+03  0.78057430089E+03  0.12500000000E+03 0.  0.
</event>
<event>
 5    0  0.5583350E-005  0.2721383E+03  0.7546771E-02  0.1100062E+00
         21   -1    0    0  502  501  0.00000000000E+00  0.00000000000E+00  0.28688043602E+03  0.28688043602E+03  0.00000000000E+00 0. -1.
         21   -1    0    0  501  502 -0.00000000000E+00 -0.00000000000E+00 -0.25815371669E+03  0.25815371669E+03  0.00000000000E+00 0. -1.
         25    1    1    2    0    0  0.55614686680E+02  0.43626086332E+02 -0.34040069942E+02  0.14758033455E+03  0.12500000000E+03 0.  0.
         25    1    1    2    0    0 -0.35155558427E+02 -0.66550384087E+02 -0.10948504820E+03  0.18241941424E+03  0.12500000000E+03 0.  0.
         25    1    1    2    0    0 -0.20459128253E+02  0.22924297755E+02  0.17225183748E+03  0.21503440392E+03  0.12500000000E+03 0.  0.
</event>
<event>
 5    0  0.8082619E-005  0.2971019E+03  0.7546771E-02  0.1086698E+00
         21   -1    0    0  502  501  0.00000000000E+00  0.00000000000E+00  0.12047780048E+03  0.12047780048E+03  0.00000000000E+00 0.  1.
         21   -1    0    0  501  502 -0.00000000000E+00 -0.00000000000E+00 -0.73266230542E+03  0.73266230542E+03  0.00000000000E+00 0.  1.
         25    1    1    2    0    0 -0.56989943666E+02 -0.55204880171E+02 -0.13579792966E+02  0.14867697620E+03  0.12500000000E+03 0.  0.
         25    1    1    2    0    0 -0.64457534530E+02 -0.43107740938E+02 -0.13557629476E+03  0.20004745134E+03  0.12500000000E+03 0.  0.
         25    1    1    2    0    0  0.12144747820E+03  0.98312621109E+02 -0.46302841722E+03  0.50441567836E+03  0.12500000000E+03 0.  0.
</event>
<event>
 5    0  0.5583350E-005  0.3698130E+03  0.7546771E-02  0.1054764E+00
         21   -1    0    0  502  501  0.00000000000E+00  0.00000000000E+00  0.21191671093E+03  0.21191671093E+03  0.00000000000E+00 0. -1.
         21   -1    0    0  501  502 -0.00000000000E+00 -0.00000000000E+00 -0.64535586078E+03  0.64535586078E+03  0.00000000000E+00 0. -1.
         25    1    1    2    0    0  0.25556725396E+03  0.23222756097E+02 -0.31364107342E+03  0.42408683148E+03  0.12500000000E+03 0.  0.
         25    1    1    2    0    0  0.59666506396E+00 -0.71841845221E+01 -0.44767468426E+01  0.12528770801E+03  0.12500000000E+03 0.  0.
         25    1    1    2    0    0 -0.25616391903E+03 -0.16038571575E+02 -0.11532132958E+03  0.30789803222E+03  0.12500000000E+03 0.  0.
</event>
<event>
 5    0  0.5583350E-005  0.5500564E+03  0.7546771E-02  0.1001481E+00
         21   -1    0    0  502  501  0.00000000000E+00  0.00000000000E+00  0.32614627601E+03  0.32614627601E+03  0.00000000000E+00 0.  1.
         21   -1    0    0  501  502 -0.00000000000E+00 -0.00000000000E+00 -0.92768802359E+03  0.92768802359E+03  0.00000000000E+00 0.  1.
         25    1    1    2    0    0 -0.68459822505E+02  0.98514376814E+02 -0.21178068200E+03  0.27361996821E+03  0.12500000000E+03 0.  0.
         25    1    1    2    0    0 -0.77752887726E+01 -0.41421091191E+03 -0.45305410921E+03  0.62650950554E+03  0.12500000000E+03 0.  0.
         25    1    1    2    0    0  0.76235111278E+02  0.31569653509E+03  0.63293043627E+02  0.35370482586E+03  0.12500000000E+03 0.  0.
</event>
<event>
 5    0  0.5583350E-005  0.3100745E+03  0.7546771E-02  0.1080310E+00
         21   -1    0    0  502  501  0.00000000000E+00  0.00000000000E+00  0.58479840880E+02  0.58479840880E+02  0.00000000000E+00 0. -1.
         21   -1    0    0  501  502 -0.00000000000E+00 -0.00000000000E+00 -0.16440907880E+04  0.16440907880E+04  0.00000000000E+00 0. -1.
         25    1    1    2    0    0  0.15159773649E+03 -0.26546490131E+02 -0.62574053567E+03  0.65640140755E+03  0.12500000000E+03 0.  0.
         25    1    1    2    0    0  0.36640745926E+02  0.11441362374E+03 -0.38213236765E+03  0.41962264949E+03  0.12500000000E+03 0.  0.
         25    1    1    2    0    0 -0.18823848242E+03 -0.87867133610E+02 -0.57773804376E+03  0.62654657180E+03  0.12500000000E+03 0.  0.
</event>
<event>
 5    0  0.5583350E-005  0.4040885E+03  0.7546771E-02  0.1042373E+00
         21   -1    0    0  502  501  0.00000000000E+00  0.00000000000E+00  0.34209497749E+03  0.34209497749E+03  0.00000000000E+00 0. -1.
         21   -1    0    0  501  502 -0.00000000000E+00 -0.00000000000E+00 -0.47731633063E+03  0.47731633063E+03  0.00000000000E+00 0. -1.
         25    1    1    2    0    0 -0.14992662676E+02  0.11228242579E+02 -0.13948327884E+02  0.12716292391E+03  0.12500000000E+03 0.  0.
         25    1    1    2    0    0 -0.30746498881E+03 -0.38197391672E+01 -0.23387020925E+02  0.33274804657E+03  0.12500000000E+03 0.  0.
         25    1    1    2    0    0  0.32245765148E+03 -0.74085034119E+01 -0.97886004328E+02  0.35950033765E+03  0.12500000000E+03 0.  0.
</event>
<event>
 5    0  0.5583350E-005  0.2412101E+03  0.7546771E-02  0.1118989E+00
         21   -1    0    0  502  501  0.00000000000E+00  0.00000000000E+00  0.20370444690E+03  0.20370444690E+03  0.00000000000E+00 0.  1.
         21   -1    0    0  501  502 -0.00000000000E+00 -0.00000000000E+00 -0.28562118818E+03  0.28562118818E+03  0.00000000000E+00 0. -1.
         25    1    1    2    0    0 -0.51064415597E+01 -0.69328969688E+02 -0.13516110477E+03  0.19678949674E+03  0.12500000000E+03 0.  0.
         25    1    1    2    0    0 -0.16847474144E+02  0.91621748929E+02  0.84804557509E+01  0.15612591198E+03  0.12500000000E+03 0.  0.
         25    1    1    2    0    0  0.21953915704E+02 -0.22292779241E+02  0.44763907737E+02  0.13641022636E+03  0.12500000000E+03 0.  0.
</event>
<event>
 5    0  0.5583350E-005  0.3625461E+03  0.7546771E-02  0.1057580E+00
         21   -1    0    0  502  501  0.00000000000E+00  0.00000000000E+00  0.30158893574E+03  0.30158893574E+03  0.00000000000E+00 0. -1.
         21   -1    0    0  501  502 -0.00000000000E+00 -0.00000000000E+00 -0.43582390994E+03  0.43582390994E+03  0.00000000000E+00 0. -1.
         25    1    1    2    0    0  0.15673554907E+03 -0.41615903023E+02 -0.90903326346E+02  0.22402305789E+03  0.12500000000E+03 0.  0.
         25    1    1    2    0    0  0.12868940562E+03 -0.18217888364E+02 -0.73369926986E+02  0.19468179360E+03  0.12500000000E+03 0.  0.
         25    1    1    2    0    0 -0.28542495469E+03  0.59833791387E+02  0.30038279132E+02  0.31870799419E+03  0.12500000000E+03 0.  0.
</event>
<event>
 5    0  0.5583350E-005  0.2678106E+03  0.7546771E-02  0.1102539E+00
         21   -1    0    0  502  501  0.00000000000E+00  0.00000000000E+00  0.40570410651E+03  0.40570410651E+03  0.00000000000E+00 0.  1.
         21   -1    0    0  501  502 -0.00000000000E+00 -0.00000000000E+00 -0.17678525442E+03  0.17678525442E+03  0.00000000000E+00 0.  1.
         25    1    1    2    0    0 -0.13260859616E+03 -0.71176474412E+02  0.19071026010E+03  0.27321517819E+03  0.12500000000E+03 0.  0.
         25    1    1    2    0    0  0.10900389924E+03  0.54453917126E+02 -0.27727436520E+01  0.17458455615E+03  0.12500000000E+03 0.  0.
         25    1    1    2    0    0  0.23604696918E+02  0.16722557285E+02  0.40981335648E+02  0.13468962659E+03  0.12500000000E+03 0.  0.
</event>
<event>
 5    0  0.6053741E-005  0.3622883E+03  0.7546771E-02  0.1057681E+00
         21   -1    0    0  502  501  0.00000000000E+00  0.00000000000E+00  0.17742758760E+03  0.17742758760E+03  0.00000000000E+00 0. -1.
         21   -1    0    0  501  502 -0.00000000000E+00 -0.00000000000E+00 -0.73975426118E+03  0.73975426118E+03  0.00000000000E+00 0. -1.
         25    1    1    2    0    0  0.18419146824E+03 -0.11403225919E+03 -0.32568646691E+03  0.41064160510E+03  0.12500000000E+03 0.  0.
         25    1    1    2    0    0 -0.25995072457E+02  0.51120186995E+02  0.53584226022E+02  0.14759839629E+03  0.12500000000E+03 0.  0.
         25    1    1    2    0    0 -0.15819639579E+03  0.62912072197E+02 -0.29022443270E+03  0.35894184738E+03  0.12500000000E+03 0.  0.
</event>
<event>
 5    0  0.5583350E-005  0.3012968E+03  0.7546771E-02  0.1084594E+00
         21   -1    0    0  502  501  0.00000000000E+00  0.00000000000E+00  0.26111322863E+03  0.26111322863E+03  0.00000000000E+00 0. -1.
         21   -1    0    0  501  502 -0.00000000000E+00 -0.00000000000E+00 -0.34766438503E+03  0.34766438503E+03  0.00000000000E+00 0. -1.
         25    1    1    2    0    0 -0.92333397475E+02 -0.64143834626E+02  0.76245875399E+02  0.18460314549E+03  0.12500000000E+03 0.  0.
         25    1    1    2    0    0  0.14113135210E+03  0.26285347092E+02 -0.20377510014E+03  0.27885169796E+03  0.12500000000E+03 0.  0.
         25    1    1    2    0    0 -0.48797954628E+02  0.37858487533E+02  0.40978068346E+02  0.14532277020E+03  0.12500000000E+03 0.  0.
</event>
<event>
 5    0  0.5583350E-005  0.3969343E+03  0.7546771E-02  0.1044846E+00
         21   -1    0    0  502  501  0.00000000000E+00  0.00000000000E+00  0.14725746028E+03  0.14725746028E+03  0.00000000000E+00 0. -1.
         21   -1    0    0  501  502 -0.00000000000E+00 -0.00000000000E+00 -0.10699410713E+04  0.10699410713E+04  0.00000000000E+00 0. -1.
         25    1    1    2    0    0 -0.12393794726E+03 -0.11645520811E+03 -0.73161043009E+03  0.76144681474E+03  0.12500000000E+03 0.  0.
         25    1    1    2    0    0  0.25923743274E+02 -0.38661861569E+02  0.36016317325E+02  0.13816278486E+03  0.12500000000E+03 0.  0.
         25    1    1    2    0    0  0.98014203988E+02  0.15511706968E+03 -0.22708949822E+03  0.31758893194E+03  0.12500000000E+03 0.  0.
</event>
<event>
 5    0  0.5583350E-005  0.2702987E+03  0.7546771E-02  0.1101109E+00
         21   -1    0    0  502  501  0.00000000000E+00  0.00000000000E+00  0.15780821447E+04  0.15780821447E+04  0.00000000000E+00 0.  1.
         21   -1    0    0  501  502 -0.00000000000E+00 -0.00000000000E+00 -0.46297587282E+02  0.46297587282E+02  0.00000000000E+00 0. -1.
         25    1    1    2    0    0  0.12423473052E+03  0.34573128542E+02  0.82682282605E+03  0.84610315870E+03  0.12500000000E+03 0.  0.
         25    1    1    2    0    0 -0.20915762703E+02  0.15092359975E+00  0.49361839191E+03  0.50962889315E+03  0.12500000000E+03 0.  0.
         25    1    1    2    0    0 -0.10331896782E+03 -0.34724052141E+02  0.21134333951E+03  0.26864768017E+03  0.12500000000E+03 0.  0.
</event>
<event>
 5    0  0.5583350E-005  0.3990188E+03  0.7546771E-02  0.1044120E+00
         21   -1    0    0  502  501  0.00000000000E+00  0.00000000000E+00  0.27540571520E+03  0.27540571520E+03  0.00000000000E+00 0.  1.
         21   -1    0    0  501  502 -0.00000000000E+00 -0.00000000000E+00 -0.57811450577E+03  0.57811450577E+03  0.00000000000E+00 0.  1.
         25    1    1    2    0    0  0.29880403866E+02 -0.22523547066E+03  0.57516779243E+02  0.26562574361E+03  0.12500000000E+03 0.  0.
         25    1    1    2    0    0  0.61531947424E+02 -0.28306616701E+02 -0.33058518712E+02  0.14596338843E+03  0.12500000000E+03 0.  0.
         25    1    1    2    0    0 -0.91412351290E+02  0.25354208736E+03 -0.32716705111E+03  0.44193108892E+03  0.12500000000E+03 0.  0.
</event>
<event>
 5    0  0.5652913E-005  0.4569994E+03  0.7546771E-02  0.1025655E+00
         21   -1    0    0  502  501  0.00000000000E+00  0.00000000000E+00  0.11202271931E+04  0.11202271931E+04  0.00000000000E+00 0.  1.
         21   -1    0    0  501  502 -0.00000000000E+00 -0.00000000000E+00 -0.18643401662E+03  0.18643401662E+03  0.00000000000E+00 0.  1.
         25    1    1    2    0    0  0.21306956346E+03 -0.73405412839E+02  0.28270951015E+03  0.38253975040E+03  0.12500000000E+03 0.  0.
         25    1    1    2    0    0 -0.19513478945E+02  0.29612471749E+03  0.23358755855E+03  0.39781751052E+03  0.12500000000E+03 0.  0.
         25    1    1    2    0    0 -0.19355608452E+03 -0.22271930465E+03  0.41749610781E+03  0.52630394883E+03  0.12500000000E+03 0.  0.
</event>
<event>
 5    0  0.5583350E-005  0.2188536E+03  0.7546771E-02  0.1134741E+00
         21   -1    0    0  502  501  0.00000000000E+00  0.00000000000E+00  0.12795586106E+03  0.12795586106E+03  0.00000000000E+00 0.  1.
         21   -1    0    0  501  502 -0.00000000000E+00 -0.00000000000E+00 -0.37432369116E+03  0.37432369116E+03  0.00000000000E+00 0.  1.
         25    1    1    2    0    0  0.21433256564E+02 -0.39116234897E+02 -0.13503899528E+03  0.18934094794E+03  0.12500000000E+03 0.  0.
         25    1    1    2    0    0 -0.65337491582E+02  0.30609875612E+02 -0.10778067008E+03  0.18013224346E+03  0.12500000000E+03 0.  0.
         25    1    1    2    0    0  0.43904235019E+02  0.85063592851E+01 -0.35481647353E+01  0.13280636082E+03  0.12500000000E+03 0.  0.
</event>
<event>
 5    0  0.5583350E-005  0.3168507E+03  0.7546771E-02  0.1077108E+00
         21   -1    0    0  502  501  0.00000000000E+00  0.00000000000E+00  0.40486131291E+03  0.40486131291E+03  0.00000000000E+00 0.  1.
         21   -1    0    0  501  502 -0.00000000000E+00 -0.00000000000E+00 -0.24797224558E+03  0.24797224558E+03  0.00000000000E+00 0.  1.
         25    1    1    2    0    0  0.17716068458E+03  0.72058033533E+01  0.20584599079E+03  0.29905752572E+03  0.12500000000E+03 0.  0.
         25    1    1    2    0    0 -0.18492763204E+03 -0.21677293110E+02 -0.28885140349E+02  0.22611387719E+03  0.12500000000E+03 0.  0.
         25    1    1    2    0    0  0.77669474519E+01  0.14471489757E+02 -0.20071783115E+02  0.12766215557E+03  0.12500000000E+03 0.  0.
</event>
<event>
 5    0  0.5583350E-005  0.6011054E+03  0.7546771E-02  0.9903115E-01
         21   -1    0    0  502  501  0.00000000000E+00  0.00000000000E+00  0.81471408937E+03  0.81471408937E+03  0.00000000000E+00 0.  1.
         21   -1    0    0  501  502 -0.00000000000E+00 -0.00000000000E+00 -0.44350243232E+03  0.44350243232E+03  0.00000000000E+00 0.  1.
         25    1    1    2    0    0 -0.13711428164E+03  0.23030462392E+03 -0.12089892906E+03  0.31950289056E+03  0.12500000000E+03 0.  0.
         25    1    1    2    0    0 -0.23964878189E+03  0.45468942884E+02  0.32983021287E+03  0.42884954559E+03  0.12500000000E+03 0.  0.
         25    1    1    2    0    0  0.37676306353E+03 -0.27577356680E+03  0.16228037323E+03  0.50986408554E+03  0.12500000000E+03 0.  0.
</event>
<event>
 5    0  0.5583350E-005  0.3575686E+03  0.7546771E-02  0.1059551E+00
         21   -1    0    0  502  501  0.00000000000E+00  0.00000000000E+00  0.50721772040E+03  0.50721772040E+03  0.00000000000E+00 0. -1.
         21   -1    0    0  501  502 -0.00000000000E+00 -0.00000000000E+00 -0.25207182501E+03  0.25207182501E+03  0.00000000000E+00 0. -1.
         25    1    1    2    0    0 -0.25762187188E+02 -0.20058571387E+03  0.99058755830E+02  0.25755767510E+03  0.12500000000E+03 0.  0.
         25    1    1    2    0    0  0.16531844165E+03  0.14173758956E+03  0.17255746050E+03  0.30466507614E+03  0.12500000000E+03 0.  0.
         25    1    1    2    0    0 -0.13955625446E+03  0.58848124311E+02 -0.16470320936E+02  0.19706679417E+03  0.12500000000E+03 0.  0.
</event>
<event>
 5    0  0.5583350E-005  0.3043921E+03  0.7546771E-02  0.1083065E+00
         21   -1    0    0  502  501  0.00000000000E+00  0.00000000000E+00  0.33626844207E+03  0.33626844207E+03  0.00000000000E+00 0.  1.
         21   -1    0    0  501  502 -0.00000000000E+00 -0.00000000000E+00 -0.27553745752E+03  0.27553745752E+03  0.00000000000E+00 0.  1.
         25    1    1    2    0    0  0.58348145160E+02 -0.31475010160E+02 -0.17266908062E+01  0.14150322883E+03  0.12500000000E+03 0.  0.
         25    1    1    2    0    0 -0.10969232353E+03 -0.14452037157E+03 -0.43230632300E+02  0.22452712801E+03  0.12500000000E+03 0.  0.
         25    1    1    2    0    0  0.51344178372E+02  0.17599538173E+03  0.10568830765E+03  0.24577554276E+03  0.12500000000E+03 0.  0.
</event>
<event>
 5    0  0.5583350E-005  0.3206791E+03  0.7546771E-02  0.1075337E+00
         21   -1    0    0  502  501  0.00000000000E+00  0.00000000000E+00  0.46516193547E+03  0.46516193547E+03  0.00000000000E+00 0.  1.
         21   -1    0    0  501  502 -0.00000000000E+00 -0.00000000000E+00 -0.22107370951E+03  0.22107370951E+03  0.00000000000E+00 0.  1.
         25    1    1    2    0    0  0.10494598390E+03  0.16000966705E+03 -0.51163100394E+01  0.22862180499E+03  0.12500000000E+03 0.  0.
         25    1    1    2    0    0 -0.97725482160E+02 -0.17388577936E+03  0.84166604190E+02  0.24999110262E+03  0.12500000000E+03 0.  0.
         25    1    1    2    0    0 -0.72205017386E+01  0.13876112312E+02  0.16503793181E+03  0.20762273738E+03  0.12500000000E+03 0.  0.
</event>
<event>
 5    0  0.5583350E-005  0.2515999E+03  0.7546771E-02  0.1112298E+00
         21   -1    0    0  502  501  0.00000000000E+00  0.00000000000E+00  0.50004306029E+03  0.50004306029E+03  0.00000000000E+00 0. -1.
         21   -1    0    0  501  502 -0.00000000000E+00 -0.00000000000E+00 -0.12659409072E+03  0.12659409072E+03  0.00000000000E+00 0. -1.
         25    1    1    2    0    0 -0.41054080243E+02 -0.74252392139E+01  0.78006979310E+02  0.15313608491E+03  0.12500000000E+03 0.  0.
         25    1    1    2    0    0 -0.57682147560E+02  0.47206481529E+02  0.12113664979E+02  0.14603911437E+03  0.12500000000E+03 0.  0.
         25    1    1    2    0    0  0.98736227802E+02 -0.39781242315E+02  0.28332832528E+03  0.32746195173E+03  0.12500000000E+03 0.  0.
</event>
<event>
 5    0  0.5583350E-005  0.2720029E+03  0.7546771E-02  0.1100139E+00
         21   -1    0    0  502  501  0.00000000000E+00  0.00000000000E+00  0.11385563466E+04  0.11385563466E+04  0.00000000000E+00 0.  1.
         21   -1    0    0  501  502 -0.00000000000E+00 -0.00000000000E+00 -0.64981896697E+02  0.64981896697E+02  0.00000000000E+00 0.  1.
         25    1    1    2    0    0 -0.91027808143E+02 -0.49283349471E+02  0.52286075862E+03  0.54746989260E+03  0.12500000000E+03 0.  0.
         25    1    1    2    0    0  0.14027007661E+02  0.13663168136E+03  0.28341834106E+03  0.33884499309E+03  0.12500000000E+03 0.  0.
         25    1    1    2    0    0  0.77000800482E+02 -0.87348331889E+02  0.26729535018E+03  0.31722335757E+03  0.12500000000E+03 0.  0.
</event>
<event>
 5    0  0.5583350E-005  0.3357819E+03  0.7546771E-02  0.1068607E+00
         21   -1    0    0  502  501  0.00000000000E+00  0.00000000000E+00  0.63164591266E+02  0.63164591266E+02  0.00000000000E+00 0.  1.
         21   -1    0    0  501  502 -0.00000000000E+00 -0.00000000000E+00 -0.17850105449E+04  0.17850105449E+04  0.00000000000E+00 0.  1.
         25    1    1    2    0    0 -0.69261101541E+01  0.75619973432E+02 -0.12015379040E+04  0.12104068267E+04  0.12500000000E+03 0.  0.
         25    1    1    2    0    0  0.25515196260E+02  0.87202308359E+02 -0.15846153698E+03  0.22133758498E+03  0.12500000000E+03 0.  0.
         25    1    1    2    0    0 -0.18589086106E+02 -0.16282228179E+03 -0.36184651264E+03  0.41643072447E+03  0.12500000000E+03 0.  0.
</event>
<event>
 5    0  0.5583350E-005  0.3580340E+03  0.7546771E-02  0.1059365E+00
         21   -1    0    0  502  501  0.00000000000E+00  0.00000000000E+00  0.31614189393E+04  0.31614189393E+04  0.00000000000E+00 0.  1.
         21   -1    0    0  501  502 -0.00000000000E+00 -0.00000000000E+00 -0.40547727836E+02  0.40547727836E+02  0.00000000000E+00 0.  1.
         25    1    1    2    0    0  0.22604469935E+03 -0.15436879418E+03  0.17134400232E+04  0.17396630834E+04  0.12500000000E+03 0.  0.
         25    1    1    2    0    0 -0.23684405479E+02  0.53580177228E+02  0.45747409298E+03  0.47784864989E+03  0.12500000000E+03 0.  0.
         25    1    1    2    0    0 -0.20236029387E+03  0.10078861695E+03  0.94995709524E+03  0.98445493378E+03  0.12500000000E+03 0.  0.
</event>
<event>
 5    0  0.5583350E-005  0.3161146E+03  0.7546771E-02  0.1077452E+00
         21   -1    0    0  502  501  0.00000000000E+00  0.00000000000E+00  0.21344141775E+03  0.21344141775E+03  0.00000000000E+00 0. -1.
         21   -1    0    0  501  502 -0.00000000000E+00 -0.00000000000E+00 -0.46817731882E+03  0.46817731882E+03  0.00000000000E+00 0. -1.
         25    1    1    2    0    0 -0.80017621930E+02 -0.78481908773E+02 -0.76422146273E+02  0.18446564522E+03  0.12500000000E+03 0.  0.
         25    1    1    2    0    0 -0.14337155858E+02  0.59842026449E+02  0.10393850195E+03  0.17382414779E+03  0.12500000000E+03 0.  0.
         25    1    1    2    0    0  0.94354777787E+02  0.18639882323E+02 -0.28225225675E+03  0.32332894356E+03  0.12500000000E+03 0.  0.
</event>
<event>
 5    0  0.5583350E-005  0.3253733E+03  0.7546771E-02  0.1073203E+00
         21   -1    0    0  502  501  0.00000000000E+00  0.00000000000E+00  0.11343549063E+03  0.11343549063E+03  0.00000000000E+00 0. -1.
         21   -1    0    0  501  502 -0.00000000000E+00 -0.00000000000E+00 -0.93328625269E+03  0.93328625269E+03  0.00000000000E+00 0. -1.
         25    1    1    2    0    0 -0.89226178153E+01 -0.15546870609E+03 -0.31584394814E+03  0.37367436527E+03  0.12500000000E+03 0.  0.
         25    1    1    2    0    0 -0.54063062535E+01  0.18451818451E+03 -0.49584928295E+03  0.54366138355E+03  0.12500000000E+03 0.  0.
         25    1    1    2    0    0  0.14328924069E+02 -0.29049478419E+02 -0.81575309640E+01  0.12938599450E+03  0.12500000000E+03 0.  0.
</event>
<event>
 5    0  0.5583350E-005  0.2383799E+03  0.7546771E-02  0.1120877E+00
         21   -1    0    0  502  501  0.00000000000E+00  0.00000000000E+00  0.72670476076E+03  0.72670476076E+03  0.00000000000E+00 0. -1.
         21   -1    0    0  501  502 -0.00000000000E+00 -0.00000000000E+00 -0.78195387535E+02  0.78195387535E+02  0.00000000000E+00 0. -1.
         25    1    1    2    0    0  0.21675313946E+02 -0.93812160456E+02  0.27376742938E+03  0.31598124323E+03  0.12500000000E+03 0.  0.
         25    1    1    2    0    0 -0.80432823931E+02  0.93960672859E+02  0.20546856507E+03  0.27044477892E+03  0.12500000000E+03 0.  0.
         25    1    1    2    0    0  0.58757509985E+02 -0.14851240270E+00  0.16927337877E+03  0.21847412615E+03  0.12500000000E+03 0.  0.
</event>
<event>
 5    0  0.5583350E-005  0.3516388E+03  0.7546771E-02  0.1061944E+00
         21   -1    0    0  502  501  0.00000000000E+00  0.00000000000E+00  0.10546320516E+04  0.10546320516E+04  0.00000000000E+00 0.  1.
         21   -1    0    0  501  502 -0.00000000000E+00 -0.00000000000E+00 -0.11724451035E+03  0.11724451035E+03  0.00000000000E+00 0.  1.
         25    1    1    2    0    0 -0.26549369875E+02  0.64524166416E+02  0.65428009662E+03  0.66975792785E+03  0.12500000000E+03 0.  0.
         25    1    1    2    0    0  0.12623456411E+03  0.30423849881E+02  0.25764939063E+03  0.31443438793E+03  0.12500000000E+03 0.  0.
         25    1    1    2    0    0 -0.99685194233E+02 -0.94948016297E+02  0.25458054010E+02  0.18768424617E+03  0.12500000000E+03 0.  0.
</event>
<event>
 5    0  0.5583350E-005  0.2373141E+03  0.7546771E-02  0.1121595E+00
         21   -1    0    0  502  501  0.00000000000E+00  0.00000000000E+00  0.14783681885E+03  0.14783681885E+03  0.00000000000E+00 0.  1.
         21   -1    0    0  501  502 -0.00000000000E+00 -0.00000000000E+00 -0.38094703753E+03  0.38094703753E+03  0.00000000000E+00 0.  1.
         25    1    1    2    0    0  0.90420000561E+02 -0.64900448505E+02 -0.53247688410E+02  0.17563644564E+03  0.12500000000E+03 0.  0.
         25    1    1    2    0    0 -0.94789920663E+02  0.55223393203E+02 -0.52561069732E+02  0.17442023469E+03  0.12500000000E+03 0.  0.
         25    1    1    2    0    0  0.43699201026E+01  0.96770553019E+01 -0.12730146054E+03  0.17872717604E+03  0.12500000000E+03 0.  0.
</event>
<event>
 5    0  0.5583350E-005  0.2160251E+03  0.7546771E-02  0.1136882E+00
         21   -1    0    0  502  501  0.00000000000E+00  0.00000000000E+00  0.49584021753E+03  0.49584021753E+03  0.00000000000E+00 0.  1.
         21   -1    0    0  501  502 -0.00000000000E+00 -0.00000000000E+00 -0.94116668196E+02  0.94116668196E+02  0.00000000000E+00 0.  1.
         25    1    1    2    0    0 -0.13547880011E+02 -0.13923541002E+02  0.15659496850E+03  0.20130671675E+03  0.12500000000E+03 0.  0.
         25    1    1    2    0    0  0.49655885415E+02 -0.55897609404E+02  0.16699627735E+03  0.22159198168E+03  0.12500000000E+03 0.  0.
         25    1    1    2    0    0 -0.36108005404E+02  0.69821150406E+02  0.78132303477E+02  0.16705818730E+03  0.12500000000E+03 0.  0.
</event>
<event>
 5    0  0.5583350E-005  0.3661475E+03  0.7546771E-02  0.1056176E+00
         21   -1    0    0  502  501  0.00000000000E+00  0.00000000000E+00  0.15096826546E+03  0.15096826546E+03  0.00000000000E+00 0. -1.
         21   -1    0    0  501  502 -0.00000000000E+00 -0.00000000000E+00 -0.88802754382E+03  0.88802754382E+03  0.00000000000E+00 0. -1.
         25    1    1    2    0    0 -0.90323041702E+02  0.25710895220E+03 -0.19330693655E+03  0.35672936083E+03  0.12500000000E+03 0.  0.
         25    1    1    2    0    0  0.12503319790E+03 -0.85872672711E+02 -0.23980458012E+03  0.31006233751E+03  0.12500000000E+03 0.  0.
         25    1    1    2    0    0 -0.34710156202E+02 -0.17123627949E+03 -0.30394776169E+03  0.37220411093E+03  0.12500000000E+03 0.  0.
</event>
<event>
 5    0  0.5583350E-005  0.3046385E+03  0.7546771E-02  0.1082945E+00
         21   -1    0    0  502  501  0.00000000000E+00  0.00000000000E+00  0.17964226551E+03  0.17964226551E+03  0.00000000000E+00 0. -1.
         21   -1    0    0  501  502 -0.00000000000E+00 -0.00000000000E+00 -0.51660806333E+03  0.51660806333E+03  0.00000000000E+00 0. -1.
         25    1    1    2    0    0 -0.57142588299E+02 -0.40748267477E+02 -0.58185441764E+02  0.15471342002E+03  0.12500000000E+03 0.  0.
         25    1    1    2    0    0  0.21300740876E+03  0.65130855611E+02 -0.10702213593E+03  0.27693486982E+03  0.12500000000E+03 0.  0.
         25    1    1    2    0    0 -0.15586482047E+03 -0.24382588134E+02 -0.17175822013E+03  0.26460203900E+03  0.12500000000E+03 0.  0.
</event>
<event>
 5    0  0.5583350E-005  0.3749253E+03  0.7546771E-02  0.1052825E+00
         21   -1    0    0  502  501  0.00000000000E+00  0.00000000000E+00  0.20333950714E+03  0.20333950714E+03  0.00000000000E+00 0.  1.
         21   -1    0    0  501  502 -0.00000000000E+00 -0.00000000000E+00 -0.69130195124E+03  0.69130195124E+03  0.00000000000E+00 0.  1.
         25    1    1    2    0    0  0.12471912611E+03  0.13898976268E+03 -0.27169653337E+03  0.35258618917E+03  0.12500000000E+03 0.  0.
         25    1    1    2    0    0  0.28687120908E+02 -0.20853016931E+03 -0.57443610080E+01  0.24487911325E+03  0.12500000000E+03 0.  0.
         25    1    1    2    0    0 -0.15340624702E+03  0.69540406636E+02 -0.21052154972E+03  0.29717615597E+03  0.12500000000E+03 0.  0.
</event>
<event>
 5    0  0.5764105E-005  0.3712300E+03  0.7546771E-02  0.1054224E+00
         21   -1    0    0  502  501  0.00000000000E+00  0.00000000000E+00  0.50096093698E+03  0.50096093698E+03  0.00000000000E+00 0.  1.
         21   -1    0    0  501  502 -0.00000000000E+00 -0.00000000000E+00 -0.27509477403E+03  0.27509477403E+03  0.00000000000E+00 0.  1.
         25    1    1    2    0    0 -0.12403375255E+03 -0.99390169741E+02  0.16310475744E+03  0.25979018363E+03  0.12500000000E+03 0.  0.
         25    1    1    2    0    0 -0.12605882158E+02 -0.13235136419E+03 -0.64396142580E+02  0.19351396603E+03  0.12500000000E+03 0.  0.
         25    1    1    2    0    0  0.13663963471E+03  0.23174153393E+03  0.12715754809E+03  0.32275156135E+03  0.12500000000E+03 0.  0.
</event>
<event>
 5    0  0.5583350E-005  0.2808313E+03  0.7546771E-02  0.1095236E+00
         21   -1    0    0  502  501  0.00000000000E+00  0.00000000000E+00  0.15914667296E+03  0.15914667296E+03  0.00000000000E+00 0. -1.
         21   -1    0    0  501  502 -0.00000000000E+00 -0.00000000000E+00 -0.49555695133E+03  0.49555695133E+03  0.00000000000E+00 0. -1.
         25    1    1    2    0    0  0.10173445585E+03  0.18505838773E+02 -0.84895611608E+02  0.18309732506E+03  0.12500000000E+03 0.  0.
         25    1    1    2    0    0  0.82293881279E-01  0.87706672505E+02 -0.23175134067E+03  0.27753585548E+03  0.12500000000E+03 0.  0.
         25    1    1    2    0    0 -0.10181674973E+03 -0.10621251128E+03 -0.19763326099E+02  0.19407044375E+03  0.12500000000E+03 0.  0.
</event>
<event>
 5    0  0.5583350E-005  0.4177141E+03  0.7546771E-02  0.1037813E+00
         21   -1    0    0  502  501  0.00000000000E+00  0.00000000000E+00  0.24700695107E+03  0.24700695107E+03  0.00000000000E+00 0.  1.
         21   -1    0    0  501  502 -0.00000000000E+00 -0.00000000000E+00 -0.70639757109E+03  0.70639757109E+03  0.00000000000E+00 0.  1.
         25    1    1    2    0    0  0.80981746490E+02  0.25639928851E+03 -0.15590796606E+03  0.33500885405E+03  0.12500000000E+03 0.  0.
         25    1    1    2    0    0 -0.13989489868E+03 -0.30763428422E+03 -0.30335049748E+03  0.47101588065E+03  0.12500000000E+03 0.  0.
         25    1    1    2    0    0  0.58913152191E+02  0.51234995713E+02 -0.13215647997E+00  0.14737978746E+03  0.12500000000E+03 0.  0.
</event>
<event>
 5    0  0.5583350E-005  0.4539015E+03  0.7546771E-02  0.1026565E+00
         21   -1    0    0  502  501  0.00000000000E+00  0.00000000000E+00  0.88526467676E+03  0.88526467676E+03  0.00000000000E+00 0. -1.
         21   -1    0    0  501  502 -0.00000000000E+00 -0.00000000000E+00 -0.23272877228E+03  0.23272877228E+03  0.00000000000E+00 0. -1.
         25    1    1    2    0    0  0.14649073318E+03  0.17277639836E+03  0.29134601713E+02  0.26035561018E+03  0.12500000000E+03 0.  0.
         25    1    1    2    0    0 -0.15954591382E+03 -0.32474371473E+03  0.33760425662E+03  0.51040671328E+03  0.12500000000E+03 0.  0.
         25    1    1    2    0    0  0.13055180644E+02  0.15196731637E+03  0.28579704614E+03  0.34723112558E+03  0.12500000000E+03 0.  0.
</event>
<event>
 5    0  0.5583350E-005  0.3102792E+03  0.7546771E-02  0.1080212E+00
         21   -1    0    0  502  501  0.00000000000E+00  0.00000000000E+00  0.14270346315E+03  0.14270346315E+03  0.00000000000E+00 0. -1.
         21   -1    0    0  501  502 -0.00000000000E+00 -0.00000000000E+00 -0.67463817184E+03  0.67463817184E+03  0.00000000000E+00 0. -1.
         25    1    1    2    0    0 -0.12000677042E+03  0.12851054905E+03 -0.15665349767E+03  0.26661189864E+03  0.12500000000E+03 0.  0.
         25    1    1    2    0    0 -0.43422212809E+01 -0.14218662753E+03 -0.30791533762E+03  0.36148685602E+03  0.12500000000E+03 0.  0.
         25    1    1    2    0    0  0.12434899170E+03  0.13676078478E+02 -0.67365873398E+02  0.18924288034E+03  0.12500000000E+03 0.  0.
</event>
<event>
 5    0  0.5583350E-005  0.2201818E+03  0.7546771E-02  0.1133748E+00
         21   -1    0    0  502  501  0.00000000000E+00  0.00000000000E+00  0.15353360240E+04  0.15353360240E+04  0.00000000000E+00 0.  1.
         21   -1    0    0  501  502 -0.00000000000E+00 -0.00000000000E+00 -0.31576154185E+02  0.31576154185E+02  0.00000000000E+00 0.  1.
         25    1    1    2    0    0 -0.12288339792E+02 -0.74776239755E+02  0.45918749872E+03  0.48189277677E+03  0.12500000000E+03 0.  0.
         25    1    1    2    0    0 -0.36133949080E+02  0.69793755508E+02  0.39394031381E+03  0.42070274712E+03  0.12500000000E+03 0.  0.
         25    1    1    2    0    0  0.48422288872E+02  0.49824842470E+01  0.65063205724E+03  0.66431665426E+03  0.12500000000E+03 0.  0.
</event>
<event>
 5    0  0.5583350E-005  0.2285455E+03  0.7546771E-02  0.1127668E+00
         21   -1    0    0  502  501  0.00000000000E+00  0.00000000000E+00  0.45904908849E+02  0.45904908849E+02  0.00000000000E+00 0. -1.
         21   -1    0    0  501  502 -0.00000000000E+00 -0.00000000000E+00 -0.11378529565E+04  0.11378529565E+04  0.00000000000E+00 0. -1.
         25    1    1    2    0    0  0.40742311145E+02 -0.10324532613E+02 -0.51963170826E+03  0.53610506817E+03  0.12500000000E+03 0.  0.
         25    1    1    2    0    0  0.36841681970E+02  0.17108555481E+02 -0.39965027901E+03  0.42070816217E+03  0.12500000000E+03 0.  0.
         25    1    1    2    0    0 -0.77583993115E+02 -0.67840228681E+01 -0.17266606039E+03  0.22694463502E+03  0.12500000000E+03 0.  0.
</event>
<event>
 5    0  0.5583350E-005  0.2588403E+03  0.7546771E-02  0.1107842E+00
         21   -1    0    0  502  501  0.00000000000E+00  0.00000000000E+00  0.10940824868E+03  0.10940824868E+03  0.00000000000E+00 0. -1.
         21   -1    0    0  501  502 -0.00000000000E+00 -0.00000000000E+00 -0.61236975910E+03  0.61236975910E+03  0.00000000000E+00 0. -1.
         25    1    1    2    0    0  0.52869431665E+02 -0.67210172894E+02 -0.77673865478E+02  0.17020756012E+03  0.12500000000E+03 0.  0.
         25    1    1    2    0    0 -0.27783048570E+02  0.66908348175E+02 -0.39490985554E+03  0.42050852411E+03  0.12500000000E+03 0.  0.
         25    1    1    2    0    0 -0.25086383095E+02  0.30182471904E+00 -0.30377789397E+02  0.13106192355E+03  0.12500000000E+03 0.  0.
</event>
<event>
 5    0  0.5583350E-005  0.2660858E+03  0.7546771E-02  0.1103541E+00
         21   -1    0    0  502  501  0.00000000000E+00  0.00000000000E+00  0.79564636769E+03  0.79564636769E+03  0.00000000000E+00 0. -1.
         21   -1    0    0  501  502 -0.00000000000E+00 -0.00000000000E+00 -0.88986304900E+02  0.88986304900E+02  0.00000000000E+00 0. -1.
         25    1    1    2    0    0  0.11902076535E+02 -0.17294040981E+02  0.89162084721E+02  0.15496974102E+03  0.12500000000E+03 0.  0.
         25    1    1    2    0    0 -0.24551300191E+02 -0.12158210421E+03  0.17090969050E+03  0.24539783355E+03  0.12500000000E+03 0.  0.
         25    1    1    2    0    0  0.12649223655E+02  0.13887614520E+03  0.44658828757E+03  0.48426509802E+03  0.12500000000E+03 0.  0.
</event>
<event>
 5    0  0.5583350E-005  0.2552987E+03  0.7546771E-02  0.1110001E+00
         21   -1    0    0  502  501  0.00000000000E+00  0.00000000000E+00  0.72942863751E+03  0.72942863751E+03  0.00000000000E+00 0. -1.
         21   -1    0    0  501  502 -0.00000000000E+00 -0.00000000000E+00 -0.89354078478E+02  0.89354078478E+02  0.00000000000E+00 0. -1.
         25    1    1    2    0    0 -0.34456278112E+02 -0.18144546294E+02  0.15729233274E+03  0.20465174712E+03  0.12500000000E+03 0.  0.
         25    1    1    2    0    0 -0.26151065753E+02 -0.51191583998E+02  0.42786930800E+03  0.44944588244E+03  0.12500000000E+03 0.  0.
         25    1    1    2    0    0  0.60607343866E+02  0.69336130292E+02  0.54912918284E+02  0.16468508642E+03  0.12500000000E+03 0.  0.
</event>
<event>
 5    0  0.5583350E-005  0.3257205E+03  0.7546771E-02  0.1073046E+00
         21   -1    0    0  502  501  0.00000000000E+00  0.00000000000E+00  0.53704141711E+03  0.53704141711E+03  0.00000000000E+00 0. -1.
         21   -1    0    0  501  502 -0.00000000000E+00 -0.00000000000E+00 -0.19755240671E+03  0.19755240671E+03  0.00000000000E+00 0. -1.
         25    1    1    2    0    0  0.91828734014E+02  0.77431071288E+02  0.24286781231E+03  0.29839212699E+03  0.12500000000E+03 0.  0.
         25    1    1    2    0    0  0.44591804154E+02  0.65874632122E+02 -0.54213316550E+02  0.15777192350E+03  0.12500000000E+03 0.  0.
         25    1    1    2    0    0 -0.13642053817E+03 -0.14330570341E+03  0.15083451464E+03  0.27842977332E+03  0.12500000000E+03 0.  0.
</event>
<event>
 5    0  0.5583350E-005  0.5729850E+03  0.7546771E-02  0.9963095E-01
         21   -1    0    0  502  501  0.00000000000E+00  0.00000000000E+00  0.13359033020E+03  0.13359033020E+03  0.00000000000E+00 0.  1.
         21   -1    0    0  501  502 -0.00000000000E+00 -0.00000000000E+00 -0.24576018387E+04  0.24576018387E+04  0.00000000000E+00 0.  1.
         25    1    1    2    0    0  0.48142076643E+03  0.49632346683E+02 -0.10044241992E+04  0.11219279371E+04  0.12500000000E+03 0.  0.
         25    1    1    2    0    0 -0.34973605353E+03  0.12377933247E+03 -0.72758380593E+03  0.82622020366E+03  0.12500000000E+03 0.  0.
         25    1    1    2    0    0 -0.13168471290E+03 -0.17341167915E+03 -0.59200350339E+03  0.64304402812E+03  0.12500000000E+03 0.  0.
</event>
<event>
 5    0  0.5583350E-005  0.2513760E+03  0.7546771E-02  0.1112438E+00
         21   -1    0    0  502  501  0.00000000000E+00  0.00000000000E+00  0.11540936128E+03  0.11540936128E+03  0.00000000000E+00 0. -1.
         21   -1    0    0  501  502 -0.00000000000E+00 -0.00000000000E+00 -0.54752834895E+03  0.54752834895E+03  0.00000000000E+00 0. -1.
         25    1    1    2    0    0  0.43119100083E+00 -0.78867267970E+02 -0.14242993821E+01  0.14780818824E+03  0.12500000000E+03 0.  0.
         25    1    1    2    0    0 -0.22514368100E+02 -0.12238541029E+00 -0.25153985942E+03  0.28178753100E+03  0.12500000000E+03 0.  0.
         25    1    1    2    0    0  0.22083177099E+02  0.78989653381E+02 -0.17915482887E+03  0.23334199099E+03  0.12500000000E+03 0.  0.
</event>
<event>
 5    0  0.5583350E-005  0.2718011E+03  0.7546771E-02  0.1100253E+00
         21   -1    0    0  502  501  0.00000000000E+00  0.00000000000E+00  0.28701570027E+03  0.28701570027E+03  0.00000000000E+00 0.  1.
         21   -1    0    0  501  502 -0.00000000000E+00 -0.00000000000E+00 -0.25739307850E+03  0.25739307850E+03  0.00000000000E+00 0.  1.
         25    1    1    2    0    0  0.81313322334E+01  0.81138689634E+02 -0.44274873020E+02  0.15567552762E+03  0.12500000000E+03 0.  0.
         25    1    1    2    0    0  0.82947648238E+02 -0.27003399533E+02  0.14475121355E+03  0.21020801545E+03  0.12500000000E+03 0.  0.
         25    1    1    2    0    0 -0.91078980471E+02 -0.54135290101E+02 -0.70853718766E+02  0.17852523570E+03  0.12500000000E+03 0.  0.
</event>
<event>
 5    0  0.5583350E-005  0.3717203E+03  0.7546771E-02  0.1054037E+00
         21   -1    0    0  502  501  0.00000000000E+00  0.00000000000E+00  0.73740967501E+03  0.73740967501E+03  0.00000000000E+00 0. -1.
         21   -1    0    0  501  502 -0.00000000000E+00 -0.00000000000E+00 -0.18738023240E+03  0.18738023240E+03  0.00000000000E+00 0. -1.
         25    1    1    2    0    0 -0.46356966230E+02 -0.74087623912E+02  0.39299729484E+03  0.42155642337E+03  0.12500000000E+03 0.  0.
         25    1    1    2    0    0  0.78608265796E+01 -0.14643767582E+03  0.15424330956E+03  0.24682338633E+03  0.12500000000E+03 0.  0.
         25    1    1    2    0    0  0.38496139650E+02  0.22052529973E+03  0.27888382034E+01  0.25641009771E+03  0.12500000000E+03 0.  0.
</event>
<event>
 5    0  0.5583350E-005  0.2536578E+03  0.7546771E-02  0.1111015E+00
         21   -1    0    0  502  501  0.00000000000E+00  0.00000000000E+00  0.49942896292E+03  0.49942896292E+03  0.00000000000E+00 0. -1.
         21   -1    0    0  501  502 -0.00000000000E+00 -0.00000000000E+00 -0.12883164488E+03  0.12883164488E+03  0.00000000000E+00 0. -1.
         25    1    1    2    0    0  0.65399136414E+02 -0.12338821241E+03  0.13491978968E+03  0.23093299386E+03  0.12500000000E+03 0.  0.
         25    1    1    2    0    0 -0.40246729560E+02  0.90444893177E+02  0.20913377285E+03  0.26298671619E+03  0.12500000000E+03 0.  0.
         25    1    1    2    0    0 -0.25152406854E+02  0.32943319237E+02  0.26543755516E+02  0.13434089776E+03  0.12500000000E+03 0.  0.
</event>
<event>
 5    0  0.5583350E-005  0.2948732E+03  0.7546771E-02  0.1087832E+00
         21   -1    0    0  502  501  0.00000000000E+00  0.00000000000E+00  0.10433149285E+04  0.10433149285E+04  0.00000000000E+00 0. -1.
         21   -1    0    0  501  502 -0.00000000000E+00 -0.00000000000E+00 -0.83340305122E+02  0.83340305122E+02  0.00000000000E+00 0. -1.
         25    1    1    2    0    0  0.32608353922E+02 -0.15208086545E+03  0.46966077440E+03  0.51029220785E+03  0.12500000000E+03 0.  0.
         25    1    1    2    0    0  0.10394938959E+02  0.17771633154E+03  0.39651188490E+03  0.45225858104E+03  0.12500000000E+03 0.  0.
         25    1    1    2    0    0 -0.43003292881E+02 -0.25635466094E+02  0.93801964097E+02  0.16410444476E+03  0.12500000000E+03 0.  0.
</event>
<event>
 5    0  0.5583350E-005  0.3462026E+03  0.7546771E-02  0.1064185E+00
         21   -1    0    0  502  501  0.00000000000E+00  0.00000000000E+00  0.31293784593E+03  0.31293784593E+03  0.00000000000E+00 0.  1.
         21   -1    0    0  501  502 -0.00000000000E+00 -0.00000000000E+00 -0.38300326412E+03  0.38300326412E+03  0.00000000000E+00 0.  1.
         25    1    1    2    0    0  0.39031613357E+02 -0.74486709927E+01 -0.21726854369E+02  0.13295114043E+03  0.12500000000E+03 0.  0.
         25    1    1    2    0    0 -0.17785134804E+03  0.17921640695E+03  0.58332574416E+02  0.28771046515E+03  0.12500000000E+03 0.  0.
         25    1    1    2    0    0  0.13881973468E+03 -0.17176773595E+03 -0.10667113824E+03  0.27527950448E+03  0.12500000000E+03 0.  0.
</event>
<event>
 5    0  0.6498890E-005  0.6394907E+03  0.7546771E-02  0.9826701E-01
         21   -1    0    0  502  501  0.00000000000E+00  0.00000000000E+00  0.46698472736E+03  0.46698472736E+03  0.00000000000E+00 0. -1.
         21   -1    0    0  501  502 -0.00000000000E+00 -0.00000000000E+00 -0.87572114272E+03  0.87572114272E+03  0.00000000000E+00 0. -1.
         25    1    1    2    0    0 -0.23241331322E+03 -0.38559589939E+03 -0.23939545143E+03  0.52500983605E+03  0.12500000000E+03 0.  0.
         25    1    1    2    0    0  0.22051050971E+03 -0.29054458239E+02  0.13460484766E+03  0.28846578904E+03  0.12500000000E+03 0.  0.
         25    1    1    2    0    0  0.11902803516E+02  0.41465035763E+03 -0.30394581160E+03  0.52923024498E+03  0.12500000000E+03 0.  0.
</event>
<event>
 5    0  0.5583350E-005  0.2822766E+03  0.7546771E-02  0.1094452E+00
         21   -1    0    0  502  501  0.00000000000E+00  0.00000000000E+00  0.25317832530E+03  0.25317832530E+03  0.00000000000E+00 0.  1.
         21   -1    0    0  501  502 -0.00000000000E+00 -0.00000000000E+00 -0.31471928329E+03  0.31471928329E+03  0.00000000000E+00 0.  1.
         25    1    1    2    0    0 -0.22983550652E+01  0.50560121916E+02  0.98623676993E+02  0.16707255319E+03  0.12500000000E+03 0.  0.
         25    1    1    2    0    0 -0.12640728284E+02 -0.11430889487E+03  0.21042834485E+02  0.17115522879E+03  0.12500000000E+03 0.  0.
         25    1    1    2    0    0  0.14939083349E+02  0.63748772956E+02 -0.18120746948E+03  0.22966982662E+03  0.12500000000E+03 0.  0.
</event>
<event>
 5    0  0.5583350E-005  0.3048718E+03  0.7546771E-02  0.1082830E+00
         21   -1    0    0  502  501  0.00000000000E+00  0.00000000000E+00  0.17107097222E+03  0.17107097222E+03  0.00000000000E+00 0.  1.
         21   -1    0    0  501  502 -0.00000000000E+00 -0.00000000000E+00 -0.54332299693E+03  0.54332299693E+03  0.00000000000E+00 0.  1.
         25    1    1    2    0    0  0.28229520560E+02  0.89925284541E+02 -0.76974752814E+02  0.17445221466E+03  0.12500000000E+03 0.  0.
         25    1    1    2    0    0  0.46733083016E+02  0.83153152780E+02  0.12730747973E+02  0.15775138608E+03  0.12500000000E+03 0.  0.
         25    1    1    2    0    0 -0.74962603576E+02 -0.17307843732E+03 -0.30800801987E+03  0.38219036841E+03  0.12500000000E+03 0.  0.
</event>
<event>
 5    0  0.5583350E-005  0.6848030E+03  0.7546771E-02  0.9743580E-01
         21   -1    0    0  502  501  0.00000000000E+00  0.00000000000E+00  0.63497755619E+03  0.63497755619E+03  0.00000000000E+00 0.  1.
         21   -1    0    0  501  502 -0.00000000000E+00 -0.00000000000E+00 -0.73853807693E+03  0.73853807693E+03  0.00000000000E+00 0.  1.
         25    1    1    2    0    0 -0.16999034474E+03  0.10150090785E+03 -0.23946071528E+03  0.33491131029E+03  0.12500000000E+03 0.  0.
         25    1    1    2    0    0  0.18074675275E+03 -0.28318921347E+03 -0.35242203826E+03  0.50268460520E+03  0.12500000000E+03 0.  0.
         25    1    1    2    0    0 -0.10756408018E+02  0.18168830562E+03  0.48832223279E+03  0.53591971764E+03  0.12500000000E+03 0.  0.
</event>
<event>
 5    0  0.5583350E-005  0.3377894E+03  0.7546771E-02  0.1067741E+00
         21   -1    0    0  502  501  0.00000000000E+00  0.00000000000E+00  0.31684398910E+03  0.31684398910E+03  0.00000000000E+00 0. -1.
         21   -1    0    0  501  502 -0.00000000000E+00 -0.00000000000E+00 -0.36011948280E+03  0.36011948280E+03  0.00000000000E+00 0. -1.
         25    1    1    2    0    0 -0.18095048725E+02  0.17578889343E+03  0.17439715800E+03  0.27797218307E+03  0.12500000000E+03 0.  0.
         25    1    1    2    0    0 -0.53754639774E+01 -0.16378160387E+03 -0.14522812247E+03  0.25212996041E+03  0.12500000000E+03 0.  0.
         25    1    1    2    0    0  0.23470512702E+02 -0.12007289558E+02 -0.72444529224E+02  0.14686132841E+03  0.12500000000E+03 0.  0.
</event>
<event>
 5    0  0.5583350E-005  0.2211346E+03  0.7546771E-02  0.1133040E+00
         21   -1    0    0  502  501  0.00000000000E+00  0.00000000000E+00  0.46665003617E+03  0.46665003617E+03  0.00000000000E+00 0. -1.
         21   -1    0    0  501  502 -0.00000000000E+00 -0.00000000000E+00 -0.10479054384E+03  0.10479054384E+03  0.00000000000E+00 0. -1.
         25    1    1    2    0    0  0.62492080527E+02  0.21213234874E+02  0.17025092423E+03  0.22128180826E+03  0.12500000000E+03 0.  0.
         25    1    1    2    0    0  0.34958603388E+02 -0.32310615025E+02  0.97144354374E+02  0.16531214529E+03  0.12500000000E+03 0.  0.
         25    1    1    2    0    0 -0.97450683915E+02  0.11097380150E+02  0.94464213723E+02  0.18484662647E+03  0.12500000000E+03 0.  0.
</event>
<event>
 5    0  0.5583350E-005  0.2385312E+03  0.7546771E-02  0.1120775E+00
         21   -1    0    0  502  501  0.00000000000E+00  0.00000000000E+00  0.25022722887E+04  0.25022722887E+04  0.00000000000E+00 0. -1.
         21   -1    0    0  501  502 -0.00000000000E+00 -0.00000000000E+00 -0.22738193719E+02  0.22738193719E+02  0.00000000000E+00 0. -1.
         25    1    1    2    0    0 -0.91020908909E+02 -0.90083141728E+02  0.77323065864E+03  0.79366896735E+03  0.12500000000E+03 0.  0.
         25    1    1    2    0    0  0.76717785269E+02  0.59997530903E+02  0.11030073460E+04  0.11143318750E+04  0.12500000000E+03 0.  0.
         25    1    1    2    0    0  0.14303123640E+02  0.30085610825E+02  0.60329609043E+03  0.61700964016E+03  0.12500000000E+03 0.  0.
</event>
<event>
 5    0  0.5583350E-005  0.2421690E+03  0.7546771E-02  0.1118356E+00
         21   -1    0    0  502  501  0.00000000000E+00  0.00000000000E+00  0.20653679584E+03  0.20653679584E+03  0.00000000000E+00 0. -1.
         21   -1    0    0  501  502 -0.00000000000E+00 -0.00000000000E+00 -0.28394862873E+03  0.28394862873E+03  0.00000000000E+00 0. -1.
         25    1    1    2    0    0  0.86341133154E+02 -0.75891477949E+02  0.45724338354E+02  0.17586933450E+03  0.12500000000E+03 0.  0.
         25    1    1    2    0    0 -0.41160742057E+02  0.82593274303E+02 -0.79709285893E+02  0.17462653265E+03  0.12500000000E+03 0.  0.
         25    1    1    2    0    0 -0.45180391097E+02 -0.67017963536E+01 -0.43426885351E+02  0.13998955742E+03  0.12500000000E+03 0.  0.
</event>
<event>
 5    0  0.5583350E-005  0.2805400E+03  0.7546771E-02  0.1095394E+00
         21   -1    0    0  502  501  0.00000000000E+00  0.00000000000E+00  0.99734591047E+03  0.99734591047E+03  0.00000000000E+00 0. -1.
         21   -1    0    0  501  502 -0.00000000000E+00 -0.00000000000E+00 -0.78912148378E+02  0.78912148378E+02  0.00000000000E+00 0. -1.
         25    1    1    2    0    0 -0.79503010221E+02 -0.26838644888E+02  0.69234997862E+03  0.70852984016E+03  0.12500000000E+03 0.  0.
         25    1    1    2    0    0  0.96050730764E+02  0.18985956798E+02  0.92022623482E+02  0.18351940679E+03  0.12500000000E+03 0.  0.
         25    1    1    2    0    0 -0.16547720542E+02  0.78526880900E+01  0.13406115999E+03  0.18420881190E+03  0.12500000000E+03 0.  0.
</event>
<event>
 5    0  0.5583350E-005  0.3921991E+03  0.7546771E-02  0.1046515E+00
         21   -1    0    0  502  501  0.00000000000E+00  0.00000000000E+00  0.40992961041E+03  0.40992961041E+03  0.00000000000E+00 0.  1.
         21   -1    0    0  501  502 -0.00000000000E+00 -0.00000000000E+00 -0.37523538994E+03  0.37523538994E+03  0.00000000000E+00 0.  1.
         25    1    1    2    0    0 -0.22992052660E+03 -0.19782533098E+02  0.10179765420E+03  0.28150054985E+03  0.12500000000E+03 0.  0.
         25    1    1    2    0    0  0.63423364734E+02  0.14642650737E+03  0.81237223145E+02  0.21837520848E+03  0.12500000000E+03 0.  0.
         25    1    1    2    0    0  0.16649716186E+03 -0.12664397428E+03 -0.14834065687E+03  0.28528924201E+03  0.12500000000E+03 0.  0.
</event>
<event>
 5    0  0.5583350E-005  0.2547533E+03  0.7546771E-02  0.1110337E+00
         21   -1    0    0  502  501  0.00000000000E+00  0.00000000000E+00  0.81026661213E+03  0.81026661213E+03  0.00000000000E+00 0.  1.
         21   -1    0    0  501  502 -0.00000000000E+00 -0.00000000000E+00 -0.80096183857E+02  0.80096183857E+02  0.00000000000E+00 0.  1.
         25    1    1    2    0    0  0.55605758768E+02 -0.12337174240E+03  0.38791552786E+03  0.42943689174E+03  0.12500000000E+03 0.  0.
         25    1    1    2    0    0 -0.51977551959E+02  0.61751948894E+02  0.93393862308E+02  0.17567692682E+03  0.12500000000E+03 0.  0.
         25    1    1    2    0    0 -0.36282068089E+01  0.61619793511E+02  0.24886103811E+03  0.28524897743E+03  0.12500000000E+03 0.  0.
</event>
<event>
 5    0  0.5583350E-005  0.2588165E+03  0.7546771E-02  0.1107856E+00
         21   -1    0    0  502  501  0.00000000000E+00  0.00000000000E+00  0.97194526420E+03  0.97194526420E+03  0.00000000000E+00 0.  1.
         21   -1    0    0  501  502 -0.00000000000E+00 -0.00000000000E+00 -0.68919517389E+02  0.68919517389E+02  0.00000000000E+00 0.  1.
         25    1    1    2    0    0  0.10808318443E+03 -0.44451250984E+02  0.17565027171E+03  0.24522623519E+03  0.12500000000E+03 0.  0.
         25    1    1    2    0    0 -0.12446067810E+02  0.64037842824E+02  0.49206080671E+03  0.51186383679E+03  0.12500000000E+03 0.  0.
         25    1    1    2    0    0 -0.95637116620E+02 -0.19586591840E+02  0.23531466839E+03  0.28377470961E+03  0.12500000000E+03 0.  0.
</event>
<event>
 5    0  0.5583350E-005  0.2668263E+03  0.7546771E-02  0.1103110E+00
         21   -1    0    0  502  501  0.00000000000E+00  0.00000000000E+00  0.12786296649E+03  0.12786296649E+03  0.00000000000E+00 0.  1.
         21   -1    0    0  501  502 -0.00000000000E+00 -0.00000000000E+00 -0.55681703120E+03  0.55681703120E+03  0.00000000000E+00 0.  1.
         25    1    1    2    0    0 -0.36751894955E+02  0.17899986437E+02 -0.34984972193E+02  0.13608842558E+03  0.12500000000E+03 0.  0.
         25    1    1    2    0    0  0.16025125307E+03 -0.28599546421E+02 -0.19837157091E+03  0.28543769602E+03  0.12500000000E+03 0.  0.
         25    1    1    2    0    0 -0.12349935811E+03  0.10699559984E+02 -0.19559752161E+03  0.26315387609E+03  0.12500000000E+03 0.  0.
</event>
<event>
 5    0  0.6483631E-005  0.2921045E+03  0.7546771E-02  0.1089255E+00
         21   -1    0    0  502  501  0.00000000000E+00  0.00000000000E+00  0.26255629762E+03  0.26255629762E+03  0.00000000000E+00 0. -1.
         21   -1    0    0  501  502 -0.00000000000E+00 -0.00000000000E+00 -0.32497813351E+03  0.32497813351E+03  0.00000000000E+00 0. -1.
         25    1    1    2    0    0 -0.73147585254E+02  0.55139153391E+02 -0.11380425250E+03  0.19226883094E+03  0.12500000000E+03 0.  0.
         25    1    1    2    0    0  0.77906406193E+02 -0.16799225901E+03  0.27353436656E+02  0.22508668932E+03  0.12500000000E+03 0.  0.
         25    1    1    2    0    0 -0.47588209391E+01  0.11285310562E+03  0.24028979957E+02  0.17017891086E+03  0.12500000000E+03 0.  0.
</event>
<event>
 5    0  0.5583350E-005  0.3657130E+03  0.7546771E-02  0.1056344E+00
         21   -1    0    0  502  501  0.00000000000E+00  0.00000000000E+00  0.10318511260E+04  0.10318511260E+04  0.00000000000E+00 0.  1.
         21   -1    0    0  501  502 -0.00000000000E+00 -0.00000000000E+00 -0.12961755935E+03  0.12961755935E+03  0.00000000000E+00 0.  1.
         25    1    1    2    0    0 -0.13792518090E+03  0.15149004970E+03  0.29701489992E+03  0.38185788123E+03  0.12500000000E+03 0.  0.
         25    1    1    2    0    0  0.22565708483E+02  0.35220542866E+02  0.90235735905E+01  0.13212162094E+03  0.12500000000E+03 0.  0.
         25    1    1    2    0    0  0.11535947242E+03 -0.18671059256E+03  0.59619509312E+03  0.64748918316E+03  0.12500000000E+03 0.  0.
</event>
<event>
 5    0  0.5583350E-005  0.3103155E+03  0.7546771E-02  0.1080195E+00
         21   -1    0    0  502  501  0.00000000000E+00  0.00000000000E+00  0.43822429641E+03  0.43822429641E+03  0.00000000000E+00 0.  1.
         21   -1    0    0  501  502 -0.00000000000E+00 -0.00000000000E+00 -0.21974069058E+03  0.21974069058E+03  0.00000000000E+00 0.  1.
         25    1    1    2    0    0 -0.26747809851E+02  0.19142684638E+02  0.15721994309E+03  0.20353131998E+03  0.12500000000E+03 0.  0.
         25    1    1    2    0    0  0.86391064174E+02 -0.17795302949E+03  0.67762019982E+02  0.24361319346E+03  0.12500000000E+03 0.  0.
         25    1    1    2    0    0 -0.59643254323E+02  0.15881034486E+03 -0.64983572389E+01  0.21082047355E+03  0.12500000000E+03 0.  0.
</event>
<event>
 5    0  0.5583350E-005  0.3307351E+03  0.7546771E-02  0.1070812E+00
         21   -1    0    0  502  501  0.00000000000E+00  0.00000000000E+00  0.58037307555E+03  0.58037307555E+03  0.00000000000E+00 0. -1.
         21   -1    0    0  501  502 -0.00000000000E+00 -0.00000000000E+00 -0.18847486304E+03  0.18847486304E+03  0.00000000000E+00 0. -1.
         25    1    1    2    0    0 -0.13719573620E+03 -0.18647454282E+03  0.13217046159E+03  0.29443073221E+03  0.12500000000E+03 0.  0.
         25    1    1    2    0    0  0.12337736972E+03  0.18781202357E+03  0.11218771669E+03  0.28054663664E+03  0.12500000000E+03 0.  0.
         25    1    1    2    0    0  0.13818366479E+02 -0.13374807538E+01  0.14754003424E+03  0.19387056974E+03  0.12500000000E+03 0.  0.
</event>
<event>
 5    0  0.5583350E-005  0.2869413E+03  0.7546771E-02  0.1091957E+00
         21   -1    0    0  502  501  0.00000000000E+00  0.00000000000E+00  0.10412985848E+04  0.10412985848E+04  0.00000000000E+00 0. -1.
         21   -1    0    0  501  502 -0.00000000000E+00 -0.00000000000E+00 -0.79069812913E+02  0.79069812913E+02  0.00000000000E+00 0. -1.
         25    1    1    2    0    0 -0.55275768933E+02  0.12190678281E+03  0.42585601063E+03  0.46356770392E+03  0.12500000000E+03 0.  0.
         25    1    1    2    0    0  0.13852499927E+03 -0.11635247029E+03  0.38577137881E+03  0.44404012146E+03  0.12500000000E+03 0.  0.
         25    1    1    2    0    0 -0.83249230333E+02 -0.55543125140E+01  0.15060138242E+03  0.21276057230E+03  0.12500000000E+03 0.  0.
</event>
<event>
 5    0  0.5583350E-005  0.2664876E+03  0.7546771E-02  0.1103307E+00
         21   -1    0    0  502  501  0.00000000000E+00  0.00000000000E+00  0.10604255600E+03  0.10604255600E+03  0.00000000000E+00 0.  1.
         21   -1    0    0  501  502 -0.00000000000E+00 -0.00000000000E+00 -0.66968987174E+03  0.66968987174E+03  0.00000000000E+00 0.  1.
         25    1    1    2    0    0  0.83960241561E+02 -0.74041473861E+02 -0.10546625001E+03  0.19819079672E+03  0.12500000000E+03 0.  0.
         25    1    1    2    0    0 -0.17500826562E+02  0.87586514747E+02 -0.39131098668E+03  0.42038906360E+03  0.12500000000E+03 0.  0.
         25    1    1    2    0    0 -0.66459414999E+02 -0.13545040886E+02 -0.66870079048E+02  0.15715256742E+03  0.12500000000E+03 0.  0.
</event>
<event>
 5    0  0.5583350E-005  0.4081881E+03  0.7546771E-02  0.1040981E+00
         21   -1    0    0  502  501  0.00000000000E+00  0.00000000000E+00  0.44298720526E+03  0.44298720526E+03  0.00000000000E+00 0. -1.
         21   -1    0    0  501  502 -0.00000000000E+00 -0.00000000000E+00 -0.37612272116E+03  0.37612272116E+03  0.00000000000E+00 0. -1.
         25    1    1    2    0    0 -0.75687700506E+02  0.10540493696E+03  0.11275199955E+02  0.18052966204E+03  0.12500000000E+03 0.  0.
         25    1    1    2    0    0  0.28712916069E+03 -0.14312791252E+03 -0.82808809272E+02  0.35413423042E+03  0.12500000000E+03 0.  0.
         25    1    1    2    0    0 -0.21144146019E+03  0.37722975560E+02  0.13839809341E+03  0.28444603395E+03  0.12500000000E+03 0.  0.
</event>
<event>
 5    0  0.5583350E-005  0.2291272E+03  0.7546771E-02  0.1127256E+00
         21   -1    0    0  502  501  0.00000000000E+00  0.00000000000E+00  0.91615669066E+02  0.91615669066E+02  0.00000000000E+00 0.  1.
         21   -1    0    0  501  502 -0.00000000000E+00 -0.00000000000E+00 -0.57303818367E+03  0.57303818367E+03  0.00000000000E+00 0.  1.
         25    1    1    2    0    0  0.37917560204E+01  0.25561871748E+02 -0.11735575611E+03  0.17339308000E+03  0.12500000000E+03 0.  0.
         25    1    1    2    0    0  0.98939878304E+02 -0.45342740315E+02 -0.20351778849E+03  0.26246819588E+03  0.12500000000E+03 0.  0.
         25    1    1    2    0    0 -0.10273163432E+03  0.19780868567E+02 -0.16054897001E+03  0.22879257685E+03  0.12500000000E+03 0.  0.
</event>
<event>
 5    0  0.5583350E-005  0.3941216E+03  0.7546771E-02  0.1045834E+00
         21   -1    0    0  502  501  0.00000000000E+00  0.00000000000E+00  0.48660122836E+03  0.48660122836E+03  0.00000000000E+00 0. -1.
         21   -1    0    0  501  502 -0.00000000000E+00 -0.00000000000E+00 -0.31921789939E+03  0.31921789939E+03  0.00000000000E+00 0. -1.
         25    1    1    2    0    0  0.27169329680E+02  0.10212444838E+02  0.26329677447E+03  0.29290383738E+03  0.12500000000E+03 0.  0.
         25    1    1    2    0    0 -0.74892499664E+02 -0.14113555387E+03  0.11315404543E+03  0.23228639450E+03  0.12500000000E+03 0.  0.
         25    1    1    2    0    0  0.47723169983E+02  0.13092310903E+03 -0.20906749094E+03  0.28062889587E+03  0.12500000000E+03 0.  0.
</event>
<event>
 5    0  0.5583350E-005  0.3866685E+03  0.7546771E-02  0.1048496E+00
         21   -1    0    0  502  501  0.00000000000E+00  0.00000000000E+00  0.71773297572E+03  0.71773297572E+03  0.00000000000E+00 0.  1.
         21   -1    0    0  501  502 -0.00000000000E+00 -0.00000000000E+00 -0.20831223984E+03  0.20831223984E+03  0.00000000000E+00 0.  1.
         25    1    1    2    0    0 -0.16492738985E+03  0.15052469473E+03  0.34002637472E+03  0.42556041070E+03  0.12500000000E+03 0.  0.
         25    1    1    2    0    0 -0.70983723095E+02 -0.11467172957E+03  0.13670178625E+03  0.22913025307E+03  0.12500000000E+03 0.  0.
         25    1    1    2    0    0  0.23591111295E+03 -0.35852965162E+02  0.32692574911E+02  0.27135455179E+03  0.12500000000E+03 0.  0.
</event>
<event>
 5    0  0.5583350E-005  0.6872190E+03  0.7546771E-02  0.9739343E-01
         21   -1    0    0  502  501  0.00000000000E+00  0.00000000000E+00  0.80366212730E+03  0.80366212730E+03  0.00000000000E+00 0. -1.
         21   -1    0    0  501  502 -0.00000000000E+00 -0.00000000000E+00 -0.58764739232E+03  0.58764739232E+03  0.00000000000E+00 0. -1.
         25    1    1    2    0    0  0.21297110927E+02  0.40694990535E+03  0.55298421605E+03  0.69819648781E+03  0.12500000000E+03 0.  0.
         25    1    1    2    0    0  0.10965719597E+03 -0.43670085880E+02 -0.10535810368E+02  0.17224337528E+03  0.12500000000E+03 0.  0.
         25    1    1    2    0    0 -0.13095430690E+03 -0.36327981947E+03 -0.32643367069E+03  0.52086965653E+03  0.12500000000E+03 0.  0.
</event>
<event>
 5    0  0.5583350E-005  0.3262089E+03  0.7546771E-02  0.1072827E+00
         21   -1    0    0  502  501  0.00000000000E+00  0.00000000000E+00  0.52225043170E+03  0.52225043170E+03  0.00000000000E+00 0.  1.
         21   -1    0    0  501  502 -0.00000000000E+00 -0.00000000000E+00 -0.20375710098E+03  0.20375710098E+03  0.00000000000E+00 0.  1.
         25    1    1    2    0    0 -0.51742550053E+02  0.12681850888E+03 -0.32263271695E+02  0.18821834230E+03  0.12500000000E+03 0.  0.
         25    1    1    2    0    0  0.16516817714E+02 -0.21542096494E+03  0.19825374348E+03  0.31876095151E+03  0.12500000000E+03 0.  0.
         25    1    1    2    0    0  0.35225732339E+02  0.88602456065E+02  0.15250285894E+03  0.21902823887E+03  0.12500000000E+03 0.  0.
</event>
<event>
 5    0  0.5583350E-005  0.3587518E+03  0.7546771E-02  0.1059079E+00
         21   -1    0    0  502  501  0.00000000000E+00  0.00000000000E+00  0.12129355432E+04  0.12129355432E+04  0.00000000000E+00 0.  1.
         21   -1    0    0  501  502 -0.00000000000E+00 -0.00000000000E+00 -0.10610855556E+03  0.10610855556E+03  0.00000000000E+00 0.  1.
         25    1    1    2    0    0  0.38816096133E+02  0.27349023174E+02  0.56291212232E+03  0.57857559216E+03  0.12500000000E+03 0.  0.
         25    1    1    2    0    0 -0.20655409798E+03 -0.12152432162E+03  0.33244780062E+03  0.42846154585E+03  0.12500000000E+03 0.  0.
         25    1    1    2    0    0  0.16773800185E+03  0.94175298446E+02  0.21146706468E+03  0.31200696074E+03  0.12500000000E+03 0.  0.
</event>
<event>
 5    0  0.5583350E-005  0.4527337E+03  0.7546771E-02  0.1026910E+00
         21   -1    0    0  502  501  0.00000000000E+00  0.00000000000E+00  0.34008059554E+03  0.34008059554E+03  0.00000000000E+00 0. -1.
         21   -1    0    0  501  502 -0.00000000000E+00 -0.00000000000E+00 -0.60270362323E+03  0.60270362323E+03  0.00000000000E+00 0. -1.
         25    1    1    2    0    0  0.68995557304E+02  0.84311220057E+02 -0.41787297204E+03  0.44956822565E+03  0.12500000000E+03 0.  0.
         25    1    1    2    0    0 -0.10704512392E+03  0.13449214926E+03  0.56633673431E+02  0.21995265340E+03  0.12500000000E+03 0.  0.
         25    1    1    2    0    0  0.38049566618E+02 -0.21880336932E+03  0.98616270912E+02  0.27326333972E+03  0.12500000000E+03 0.  0.
</event>
<event>
 5    0  0.5583350E-005  0.4833385E+03  0.7546771E-02  0.1018222E+00
         21   -1    0    0  502  501  0.00000000000E+00  0.00000000000E+00  0.37700810282E+03  0.37700810282E+03  0.00000000000E+00 0. -1.
         21   -1    0    0  501  502 -0.00000000000E+00 -0.00000000000E+00 -0.61965804391E+03  0.61965804391E+03  0.00000000000E+00 0. -1.
         25    1    1    2    0    0 -0.81579727062E+02  0.18200469066E+03 -0.70742535378E+02  0.24578540559E+03  0.12500000000E+03 0.  0.
         25    1    1    2    0    0 -0.24547428523E+03 -0.14037525447E+03 -0.24047277939E+03  0.39168226205E+03  0.12500000000E+03 0.  0.
         25    1    1    2    0    0  0.32705401229E+03 -0.41629436187E+02  0.68565373685E+02  0.35919847909E+03  0.12500000000E+03 0.  0.
</event>
<event>
 5    0  0.5583350E-005  0.2457031E+03  0.7546771E-02  0.1116051E+00
         21   -1    0    0  502  501  0.00000000000E+00  0.00000000000E+00  0.32279589016E+03  0.32279589016E+03  0.00000000000E+00 0. -1.
         21   -1    0    0  501  502 -0.00000000000E+00 -0.00000000000E+00 -0.18702227397E+03  0.18702227397E+03  0.00000000000E+00 0. -1.
         25    1    1    2    0    0 -0.45487643552E+02  0.31185582710E+02  0.10618746570E+03  0.17303885158E+03  0.12500000000E+03 0.  0.
         25    1    1    2    0    0 -0.15878090814E+02  0.83159541813E+02  0.40364730968E+02  0.15627518891E+03  0.12500000000E+03 0.  0.
         25    1    1    2    0    0  0.61365734366E+02 -0.11434512452E+03 -0.10778580476E+02  0.18050412365E+03  0.12500000000E+03 0.  0.
</event>
<event>
 5    0  0.5583350E-005  0.3582028E+03  0.7546771E-02  0.1059298E+00
         21   -1    0    0  502  501  0.00000000000E+00  0.00000000000E+00  0.11717683059E+03  0.11717683059E+03  0.00000000000E+00 0.  1.
         21   -1    0    0  501  502 -0.00000000000E+00 -0.00000000000E+00 -0.10950051128E+04  0.10950051128E+04  0.00000000000E+00 0.  1.
         25    1    1    2    0    0  0.14383595705E+03 -0.13091924102E+03 -0.29275020216E+03  0.37303660822E+03  0.12500000000E+03 0.  0.
         25    1    1    2    0    0 -0.18604761574E+03 -0.72072785878E+02 -0.26658608932E+03  0.35567027540E+03  0.12500000000E+03 0.  0.
         25    1    1    2    0    0  0.42211658688E+02  0.20299202689E+03 -0.41849199072E+03  0.48347505976E+03  0.12500000000E+03 0.  0.
</event>
<event>
 5    0  0.5583350E-005  0.2840380E+03  0.7546771E-02  0.1093504E+00
         21   -1    0    0  502  501  0.00000000000E+00  0.00000000000E+00  0.28761154025E+03  0.28761154025E+03  0.00000000000E+00 0.  1.
         21   -1    0    0  501  502 -0.00000000000E+00 -0.00000000000E+00 -0.28050885505E+03  0.28050885505E+03  0.00000000000E+00 0.  1.
         25    1    1    2    0    0 -0.36276539998E+02  0.42349968526E+02  0.16628436570E+02  0.13788042679E+03  0.12500000000E+03 0.  0.
         25    1    1    2    0    0  0.21026864082E+02  0.13603848544E+03 -0.77650249714E+02  0.20150225759E+03  0.12500000000E+03 0.  0.
         25    1    1    2    0    0  0.15249675916E+02 -0.17838845396E+03  0.68124498344E+02  0.22873771092E+03  0.12500000000E+03 0.  0.
</event>
<event>
 5    0  0.5583350E-005  0.4027731E+03  0.7546771E-02  0.1042824E+00
         21   -1    0    0  502  501  0.00000000000E+00  0.00000000000E+00  0.72976712888E+02  0.72976712888E+02  0.00000000000E+00 0.  1.
         21   -1    0    0  501  502 -0.00000000000E+00 -0.00000000000E+00 -0.22229852384E+04  0.22229852384E+04  0.00000000000E+00 0.  1.
         25    1    1    2    0    0  0.18178911819E+02  0.23960519438E+02 -0.22033978959E+02  0.13044184741E+03  0.12500000000E+03 0.  0.
         25    1    1    2    0    0  0.13757998611E+02  0.13052465142E+03 -0.68488220224E+03  0.70845931294E+03  0.12500000000E+03 0.  0.
         25    1    1    2    0    0 -0.31936910430E+02 -0.15448517086E+03 -0.14430923443E+04  0.14570607910E+04  0.12500000000E+03 0.  0.
</event>
<event>
 5    0  0.5583350E-005  0.2186991E+03  0.7546771E-02  0.1134857E+00
         21   -1    0    0  502  501  0.00000000000E+00  0.00000000000E+00  0.26450120648E+02  0.26450120648E+02  0.00000000000E+00 0. -1.
         21   -1    0    0  501  502 -0.00000000000E+00 -0.00000000000E+00 -0.18082821259E+04  0.18082821259E+04  0.00000000000E+00 0. -1.
         25    1    1    2    0    0  0.39813474986E+02 -0.22322449038E+02 -0.51538598885E+03  0.53228857025E+03  0.12500000000E+03 0.  0.
         25    1    1    2    0    0 -0.99194590407E+02 -0.48332585608E+01 -0.57436558861E+03  0.59614071874E+03  0.12500000000E+03 0.  0.
         25    1    1    2    0    0  0.59381115422E+02  0.27155707598E+02 -0.69208042782E+03  0.70630295758E+03  0.12500000000E+03 0.  0.
</event>
<event>
 5    0  0.5583350E-005  0.2164348E+03  0.7546771E-02  0.1136569E+00
         21   -1    0    0  502  501  0.00000000000E+00  0.00000000000E+00  0.70272846128E+03  0.70272846128E+03  0.00000000000E+00 0.  1.
         21   -1    0    0  501  502 -0.00000000000E+00 -0.00000000000E+00 -0.66660216170E+02  0.66660216170E+02  0.00000000000E+00 0.  1.
         25    1    1    2    0    0  0.20166715727E+02  0.34899089959E+02  0.15578337139E+03  0.20375991192E+03  0.12500000000E+03 0.  0.
         25    1    1    2    0    0  0.19462330755E+02 -0.68555579084E+02  0.14607805798E+03  0.20504255354E+03  0.12500000000E+03 0.  0.
         25    1    1    2    0    0 -0.39629046482E+02  0.33656489126E+02  0.33420681575E+03  0.36058621199E+03  0.12500000000E+03 0.  0.
</event>
<event>
 5    0  0.5583350E-005  0.3543804E+03  0.7546771E-02  0.1060831E+00
         21   -1    0    0  502  501  0.00000000000E+00  0.00000000000E+00  0.47417248047E+03  0.47417248047E+03  0.00000000000E+00 0. -1.
         21   -1    0    0  501  502 -0.00000000000E+00 -0.00000000000E+00 -0.26485182559E+03  0.26485182559E+03  0.00000000000E+00 0. -1.
         25    1    1    2    0    0 -0.43652251295E+02  0.98730488607E+02  0.21816088425E+03  0.27362821463E+03  0.12500000000E+03 0.  0.
         25    1    1    2    0    0  0.46063617632E+02 -0.22024835919E+03 -0.90530054086E+02  0.27285873137E+03  0.12500000000E+03 0.  0.
         25    1    1    2    0    0 -0.24113663368E+01  0.12151787058E+03  0.81689824711E+02  0.19253736006E+03  0.12500000000E+03 0.  0.
</event>
<event>
 5    0  0.5583350E-005  0.3657930E+03  0.7546771E-02  0.1056313E+00
         21   -1    0    0  502  501  0.00000000000E+00  0.00000000000E+00  0.58483507471E+03  0.58483507471E+03  0.00000000000E+00 0.  1.
         21   -1    0    0  501  502 -0.00000000000E+00 -0.00000000000E+00 -0.22879013181E+03  0.22879013181E+03  0.00000000000E+00 0.  1.
         25    1    1    2    0    0 -0.27703438940E+03 -0.10027697996E+03  0.16805824387E+03  0.36148595955E+03  0.12500000000E+03 0.  0.
         25    1    1    2    0    0  0.20718360479E+03  0.73640444572E+02  0.17143344278E+03  0.30555259199E+03  0.12500000000E+03 0.  0.
         25    1    1    2    0    0  0.69850784611E+02  0.26636535384E+02  0.16553256246E+02  0.14658665499E+03  0.12500000000E+03 0.  0.
</event>
<event>
 5    0  0.5583350E-005  0.3955585E+03  0.7546771E-02  0.1045329E+00
         21   -1    0    0  502  501  0.00000000000E+00  0.00000000000E+00  0.20366913432E+03  0.20366913432E+03  0.00000000000E+00 0.  1.
         21   -1    0    0  501  502 -0.00000000000E+00 -0.00000000000E+00 -0.76823874678E+03  0.76823874678E+03  0.00000000000E+00 0.  1.
         25    1    1    2    0    0 -0.24029950041E+02  0.47533604957E+02 -0.26058694342E+03  0.29388337344E+03  0.12500000000E+03 0.  0.
         25    1    1    2    0    0  0.12313890079E+03 -0.25603711150E+03 -0.53112957459E+02  0.31490344171E+03  0.12500000000E+03 0.  0.
         25    1    1    2    0    0 -0.99108950747E+02  0.20850350654E+03 -0.25086971158E+03  0.36312106596E+03  0.12500000000E+03 0.  0.
</event>
<event>
 5    0  0.5583350E-005  0.2464721E+03  0.7546771E-02  0.1115555E+00
         21   -1    0    0  502  501  0.00000000000E+00  0.00000000000E+00  0.14981086243E+03  0.14981086243E+03  0.00000000000E+00 0. -1.
         21   -1    0    0  501  502 -0.00000000000E+00 -0.00000000000E+00 -0.40550117912E+03  0.40550117912E+03  0.00000000000E+00 0. -1.
         25    1    1    2    0    0  0.10044910594E+03 -0.59577788064E+02 -0.24251044261E+01  0.17108599255E+03  0.12500000000E+03 0.  0.
         25    1    1    2    0    0 -0.87394834056E+02  0.48936909726E+02 -0.11573616550E+03  0.19761715047E+03  0.12500000000E+03 0.  0.
         25    1    1    2    0    0 -0.13054271889E+02  0.10640878338E+02 -0.13752904677E+03  0.18660889853E+03  0.12500000000E+03 0.  0.
</event>
<event>
 5    0  0.5583350E-005  0.3063602E+03  0.7546771E-02  0.1082104E+00
         21   -1    0    0  502  501  0.00000000000E+00  0.00000000000E+00  0.35711513989E+03  0.35711513989E+03  0.00000000000E+00 0.  1.
         21   -1    0    0  501  502 -0.00000000000E+00 -0.00000000000E+00 -0.26281887344E+03  0.26281887344E+03  0.00000000000E+00 0.  1.
         25    1    1    2    0    0 -0.13199367389E+03  0.23823581536E+02  0.47589020540E+02  0.18941913277E+03  0.12500000000E+03 0.  0.
         25    1    1    2    0    0  0.19896215819E+03 -0.10044114506E+02  0.12667550985E+03  0.26713013574E+03  0.12500000000E+03 0.  0.
         25    1    1    2    0    0 -0.66968484302E+02 -0.13779467030E+02 -0.79968263933E+02  0.16338474481E+03  0.12500000000E+03 0.  0.
</event>
<event>
 5    0  0.5583350E-005  0.5260181E+03  0.7546771E-02  0.1007202E+00
         21   -1    0    0  502  501  0.00000000000E+00  0.00000000000E+00  0.27516932434E+03  0.27516932434E+03  0.00000000000E+00 0. -1.
         21   -1    0    0  501  502 -0.00000000000E+00 -0.00000000000E+00 -0.10055447818E+04  0.10055447818E+04  0.00000000000E+00 0. -1.
         25    1    1    2    0    0 -0.27972997714E+03 -0.27303977208E+03 -0.63958013005E+02  0.41534949702E+03  0.12500000000E+03 0.  0.
         25    1    1    2    0    0 -0.32925131933E+02  0.13427248453E+03 -0.25597945200E+03  0.31664434980E+03  0.12500000000E+03 0.  0.
         25    1    1    2    0    0  0.31265510908E+03  0.13876728754E+03 -0.41043799243E+03  0.54872025929E+03  0.12500000000E+03 0.  0.
</event>
<event>
 5    0  0.5583350E-005  0.4756102E+03  0.7546771E-02  0.1020349E+00
         21   -1    0    0  502  501  0.00000000000E+00  0.00000000000E+00  0.69988549073E+03  0.69988549073E+03  0.00000000000E+00 0. -1.
         21   -1    0    0  501  502 -0.00000000000E+00 -0.00000000000E+00 -0.32320296337E+03  0.32320296337E+03  0.00000000000E+00 0. -1.
         25    1    1    2    0    0 -0.68330641578E+02 -0.11979618850E+02  0.97008323030E+02  0.17276632364E+03  0.12500000000E+03 0.  0.
         25    1    1    2    0    0  0.34515005760E+03 -0.11080531569E+03 -0.48630491696E+02  0.38651818194E+03  0.12500000000E+03 0.  0.
         25    1    1    2    0    0 -0.27681941602E+03  0.12278493454E+03  0.32830469602E+03  0.46380394852E+03  0.12500000000E+03 0.  0.
</event>
<event>
 5    0  0.5583350E-005  0.2866283E+03  0.7546771E-02  0.1092123E+00
         21   -1    0    0  502  501  0.00000000000E+00  0.00000000000E+00  0.46304786786E+02  0.46304786786E+02  0.00000000000E+00 0.  1.
         21   -1    0    0  501  502 -0.00000000000E+00 -0.00000000000E+00 -0.17742394147E+04  0.17742394147E+04  0.00000000000E+00 0.  1.
         25    1    1    2    0    0  0.18269919915E+03 -0.67948510565E+02 -0.52312877845E+03  0.57208803195E+03  0.12500000000E+03 0.  0.
         25    1    1    2    0    0 -0.82200267395E+02 -0.62010992162E+01 -0.59647509624E+03  0.61498201439E+03  0.12500000000E+03 0.  0.
         25    1    1    2    0    0 -0.10049893176E+03  0.74149609782E+02 -0.60833075318E+03  0.63347415510E+03  0.12500000000E+03 0.  0.
</event>
<event>
 5    0  0.5583350E-005  0.3014626E+03  0.7546771E-02  0.1084512E+00
         21   -1    0    0  502  501  0.00000000000E+00  0.00000000000E+00  0.15444851594E+04  0.15444851594E+04  0.00000000000E+00 0.  1.
         21   -1    0    0  501  502 -0.00000000000E+00 -0.00000000000E+00 -0.58841401996E+02  0.58841401996E+02  0.00000000000E+00 0.  1.
         25    1    1    2    0    0  0.78153023908E+02 -0.16346217786E+02  0.10645143921E+03  0.18257054223E+03  0.12500000000E+03 0.  0.
         25    1    1    2    0    0 -0.82224483568E+02 -0.69807427061E+02  0.97687709629E+03  0.99073094422E+03  0.12500000000E+03 0.  0.
         25    1    1    2    0    0  0.40714596593E+01  0.86153644848E+02  0.40231522188E+03  0.43002507492E+03  0.12500000000E+03 0.  0.
</event>
<event>
 5    0  0.5583350E-005  0.3606456E+03  0.7546771E-02  0.1058329E+00
         21   -1    0    0  502  501  0.00000000000E+00  0.00000000000E+00  0.16492536712E+03  0.16492536712E+03  0.00000000000E+00 0. -1.
         21   -1    0    0  501  502 -0.00000000000E+00 -0.00000000000E+00 -0.78863087683E+03  0.78863087683E+03  0.00000000000E+00 0. -1.
         25    1    1    2    0    0 -0.19315854440E+03 -0.14905607345E+03 -0.22574386228E+03  0.35512424257E+03  0.12500000000E+03 0.  0.
         25    1    1    2    0    0  0.18789152278E+03  0.19736626178E+03 -0.20402690898E+03  0.36264120727E+03  0.12500000000E+03 0.  0.
         25    1    1    2    0    0  0.52670216175E+01 -0.48310188329E+02 -0.19393473845E+03  0.23579079412E+03  0.12500000000E+03 0.  0.
</event>
<event>
 5    0  0.5583350E-005  0.3058679E+03  0.7546771E-02  0.1082344E+00
         21   -1    0    0  502  501  0.00000000000E+00  0.00000000000E+00  0.28884375664E+03  0.28884375664E+03  0.00000000000E+00 0.  1.
         21   -1    0    0  501  502 -0.00000000000E+00 -0.00000000000E+00 -0.32389537627E+03  0.32389537627E+03  0.00000000000E+00 0.  1.
         25    1    1    2    0    0  0.11346557540E+03  0.47499054285E+02  0.15502023490E+03  0.23406595264E+03  0.12500000000E+03 0.  0.
         25    1    1    2    0    0 -0.69087362283E+01 -0.46393542884E+02 -0.16541872554E+03  0.21257574231E+03  0.12500000000E+03 0.  0.
         25    1    1    2    0    0 -0.10655683917E+03 -0.11055114007E+01 -0.24653128990E+02  0.16609743796E+03  0.12500000000E+03 0.  0.
</event>
<event>
 5    0  0.5583350E-005  0.3148319E+03  0.7546771E-02  0.1078053E+00
         21   -1    0    0  502  501  0.00000000000E+00  0.00000000000E+00  0.19326746706E+04  0.19326746706E+04  0.00000000000E+00 0.  1.
         21   -1    0    0  501  502 -0.00000000000E+00 -0.00000000000E+00 -0.51285999992E+02  0.51285999992E+02  0.00000000000E+00 0.  1.
         25    1    1    2    0    0  0.16442628853E+02 -0.18769151329E+03  0.86921610873E+03  0.89814258772E+03  0.12500000000E+03 0.  0.
         25    1    1    2    0    0 -0.15141332332E+02  0.21058583948E+03  0.81590044849E+03  0.85199424739E+03  0.12500000000E+03 0.  0.
         25    1    1    2    0    0 -0.13012965206E+01 -0.22894326185E+02  0.19627211336E+03  0.23382383546E+03  0.12500000000E+03 0.  0.
</event>
<event>
 5    0  0.5583350E-005  0.3104319E+03  0.7546771E-02  0.1080139E+00
         21   -1    0    0  502  501  0.00000000000E+00  0.00000000000E+00  0.27560447234E+03  0.27560447234E+03  0.00000000000E+00 0.  1.
         21   -1    0    0  501  502 -0.00000000000E+00 -0.00000000000E+00 -0.34966039119E+03  0.34966039119E+03  0.00000000000E+00 0.  1.
         25    1    1    2    0    0  0.35315617706E+02 -0.11432363801E+03 -0.40719235937E+02  0.17776429123E+03  0.12500000000E+03 0.  0.
         25    1    1    2    0    0 -0.11604197610E+02  0.17767328727E+03  0.11160150654E+03  0.24450429582E+03  0.12500000000E+03 0.  0.
         25    1    1    2    0    0 -0.23711420097E+02 -0.63349649265E+02 -0.14493818945E+03  0.20299627648E+03  0.12500000000E+03 0.  0.
</event>
<event>
 5    0  0.5944877E-005  0.2965448E+03  0.7546771E-02  0.1086981E+00
         21   -1    0    0  502  501  0.00000000000E+00  0.00000000000E+00  0.22841467328E+03  0.22841467328E+03  0.00000000000E+00 0. -1.
         21   -1    0    0  501  502 -0.00000000000E+00 -0.00000000000E+00 -0.38499645992E+03  0.38499645992E+03  0.00000000000E+00 0. -1.
         25    1    1    2    0    0  0.15490635966E+03 -0.28790936309E+02 -0.68130387866E+02  0.21234794096E+03  0.12500000000E+03 0.  0.
         25    1    1    2    0    0 -0.52861693308E+02 -0.97622130589E+02 -0.10164415622E+03  0.19565524142E+03  0.12500000000E+03 0.  0.
         25    1    1    2    0    0 -0.10204466636E+03  0.12641306690E+03  0.13192757442E+02  0.20540795083E+03  0.12500000000E+03 0.  0.
</event>
<event>
 5    0  0.5583350E-005  0.4109056E+03  0.7546771E-02  0.1040068E+00
         21   -1    0    0  502  501  0.00000000000E+00  0.00000000000E+00  0.75234381960E+03  0.75234381960E+03  0.00000000000E+00 0. -1.
         21   -1    0    0  501  502 -0.00000000000E+00 -0.00000000000E+00 -0.22442321410E+03  0.22442321410E+03  0.00000000000E+00 0. -1.
         25    1    1    2    0    0 -0.22508505367E+03 -0.14311882387E+03  0.51709480227E+02  0.29907381945E+03  0.12500000000E+03 0.  0.
         25    1    1    2    0    0  0.90631595174E+02  0.96662632330E+02  0.45131886708E+03  0.48669443218E+03  0.12500000000E+03 0.  0.
         25    1    1    2    0    0  0.13445345850E+03  0.46456191541E+02  0.24892258185E+02  0.19099878207E+03  0.12500000000E+03 0.  0.
</event>
<event>
 5    0  0.5849759E-005  0.3491412E+03  0.7546771E-02  0.1062968E+00
         21   -1    0    0  502  501  0.00000000000E+00  0.00000000000E+00  0.82710376840E+03  0.82710376840E+03  0.00000000000E+00 0.  1.
         21   -1    0    0  501  502 -0.00000000000E+00 -0.00000000000E+00 -0.14738126800E+03  0.14738126800E+03  0.00000000000E+00 0.  1.
         25    1    1    2    0    0  0.23699425068E+03 -0.34418119888E+02  0.19729140418E+03  0.33451424483E+03  0.12500000000E+03 0.  0.
         25    1    1    2    0    0 -0.86642625002E+02  0.11950320489E+03  0.14889106183E+03  0.24409323780E+03  0.12500000000E+03 0.  0.
         25    1    1    2    0    0 -0.15035162568E+03 -0.85085085005E+02  0.33354003440E+03  0.39587755377E+03  0.12500000000E+03 0.  0.
</event>
<event>
 5    0  0.5583350E-005  0.2387920E+03  0.7546771E-02  0.1120600E+00
         21   -1    0    0  502  501  0.00000000000E+00  0.00000000000E+00  0.28300335805E+03  0.28300335805E+03  0.00000000000E+00 0.  1.
         21   -1    0    0  501  502 -0.00000000000E+00 -0.00000000000E+00 -0.20148750685E+03  0.20148750685E+03  0.00000000000E+00 0.  1.
         25    1    1    2    0    0  0.29832381651E+02 -0.12441961330E+03  0.10051988049E+02  0.17915427328E+03  0.12500000000E+03 0.  0.
         25    1    1    2    0    0  0.11400894073E+02  0.32518836912E+02  0.64081494058E+02  0.14463365107E+03  0.12500000000E+03 0.  0.
         25    1    1    2    0    0 -0.41233275723E+02  0.91900776392E+02  0.73823690949E+01  0.16070294055E+03  0.12500000000E+03 0.  0.
</event>
<event>
 5    0  0.5583350E-005  0.2752327E+03  0.7546771E-02  0.1098322E+00
         21   -1    0    0  502  501  0.00000000000E+00  0.00000000000E+00  0.12940607727E+04  0.12940607727E+04  0.00000000000E+00 0. -1.
         21   -1    0    0  501  502 -0.00000000000E+00 -0.00000000000E+00 -0.58538996258E+02  0.58538996258E+02  0.00000000000E+00 0. -1.
         25    1    1    2    0    0 -0.10617121015E+03  0.22428843226E+02  0.54271807883E+03  0.56740046877E+03  0.12500000000E+03 0.  0.
         25    1    1    2    0    0  0.63203431250E+02 -0.31789259228E+02  0.93414135138E+02  0.17133718618E+03  0.12500000000E+03 0.  0.
         25    1    1    2    0    0  0.42967778898E+02  0.93604160019E+01  0.59938956244E+03  0.61386211398E+03  0.12500000000E+03 0.  0.
</event>
<event>
 5    0  0.5583350E-005  0.2395690E+03  0.7546771E-02  0.1120080E+00
         21   -1    0    0  502  501  0.00000000000E+00  0.00000000000E+00  0.59247217828E+03  0.59247217828E+03  0.00000000000E+00 0. -1.
         21   -1    0    0  501  502 -0.00000000000E+00 -0.00000000000E+00 -0.96870876084E+02  0.96870876084E+02  0.00000000000E+00 0. -1.
         25    1    1    2    0    0 -0.70865880925E+01 -0.65439492573E+02  0.18776502526E+03  0.23497500213E+03  0.12500000000E+03 0.  0.
         25    1    1    2    0    0 -0.94958149866E+02  0.53404448859E+02  0.20055230605E+03  0.26022166099E+03  0.12500000000E+03 0.  0.
         25    1    1    2    0    0  0.10204473796E+03  0.12035043714E+02  0.10728397089E+03  0.19414639124E+03  0.12500000000E+03 0.  0.
</event>
<event>
 5    0  0.6321027E-005  0.4095042E+03  0.7546771E-02  0.1040537E+00
         21   -1    0    0  502  501  0.00000000000E+00  0.00000000000E+00  0.65151584488E+03  0.65151584488E+03  0.00000000000E+00 0.  1.
         21   -1    0    0  501  502 -0.00000000000E+00 -0.00000000000E+00 -0.25739010047E+03  0.25739010047E+03  0.00000000000E+00 0.  1.
         25    1    1    2    0    0  0.15425014416E+03 -0.89408374947E+02 -0.73490641223E+02  0.22981044109E+03  0.12500000000E+03 0.  0.
         25    1    1    2    0    0 -0.82681322926E+02  0.21999233591E+03  0.14685728644E+03  0.30401462399E+03  0.12500000000E+03 0.  0.
         25    1    1    2    0    0 -0.71568821236E+02 -0.13058396096E+03  0.32075909919E+03  0.37508088028E+03  0.12500000000E+03 0.  0.
</event>
<event>
 5    0  0.5583350E-005  0.2314180E+03  0.7546771E-02  0.1125646E+00
         21   -1    0    0  502  501  0.00000000000E+00  0.00000000000E+00  0.11018855066E+03  0.11018855066E+03  0.00000000000E+00 0. -1.
         21   -1    0    0  501  502 -0.00000000000E+00 -0.00000000000E+00 -0.48602403321E+03  0.48602403321E+03  0.00000000000E+00 0. -1.
         25    1    1    2    0    0  0.55760004907E+01  0.60513407808E+02 -0.13473531767E+03  0.19357574779E+03  0.12500000000E+03 0.  0.
         25    1    1    2    0    0  0.27337622087E+02 -0.70856695496E+02 -0.22989628513E+03  0.27247994200E+03  0.12500000000E+03 0.  0.
         25    1    1    2    0    0 -0.32913622578E+02  0.10343287689E+02 -0.11203879753E+02  0.13015689407E+03  0.12500000000E+03 0.  0.
</event>
<event>
 5    0  0.5583350E-005  0.5730681E+03  0.7546771E-02  0.9962912E-01
         21   -1    0    0  502  501  0.00000000000E+00  0.00000000000E+00  0.31168559468E+03  0.31168559468E+03  0.00000000000E+00 0. -1.
         21   -1    0    0  501  502 -0.00000000000E+00 -0.00000000000E+00 -0.10536484184E+04  0.10536484184E+04  0.00000000000E+00 0. -1.
         25    1    1    2    0    0  0.86025564914E+02  0.87504028160E+02 -0.88487530327E+03  0.90204581652E+03  0.12500000000E+03 0.  0.
         25    1    1    2    0    0  0.10850470277E+03  0.29766091812E+02  0.11228578550E+03  0.20221866474E+03  0.12500000000E+03 0.  0.
         25    1    1    2    0    0 -0.19453026768E+03 -0.11727011997E+03  0.30626694010E+02  0.26106953186E+03  0.12500000000E+03 0.  0.
</event>
<event>
 5    0  0.5583350E-005  0.3918201E+03  0.7546771E-02  0.1046649E+00
         21   -1    0    0  502  501  0.00000000000E+00  0.00000000000E+00  0.89143533983E+02  0.89143533983E+02  0.00000000000E+00 0. -1.
         21   -1    0    0  501  502 -0.00000000000E+00 -0.00000000000E+00 -0.17221997269E+04  0.17221997269E+04  0.00000000000E+00 0. -1.
         25    1    1    2    0    0  0.17992555966E+03 -0.14701476797E+03 -0.48020680051E+03  0.54791433663E+03  0.12500000000E+03 0.  0.
         25    1    1    2    0    0  0.11669129688E+03  0.31409001489E+02 -0.35157224253E+03  0.39221349525E+03  0.12500000000E+03 0.  0.
         25    1    1    2    0    0 -0.29661685654E+03  0.11560576648E+03 -0.80127714991E+03  0.87121542904E+03  0.12500000000E+03 0.  0.
</event>
<event>
 5    0  0.5583350E-005  0.3193651E+03  0.7546771E-02  0.1075942E+00
         21   -1    0    0  502  501  0.00000000000E+00  0.00000000000E+00  0.50437644379E+03  0.50437644379E+03  0.00000000000E+00 0.  1.
         21   -1    0    0  501  502 -0.00000000000E+00 -0.00000000000E+00 -0.20221810383E+03  0.20221810383E+03  0.00000000000E+00 0.  1.
         25    1    1    2    0    0  0.10769619737E+02  0.88842520535E+02  0.81446734812E+02  0.17397571318E+03  0.12500000000E+03 0.  0.
         25    1    1    2    0    0 -0.59690332476E+01 -0.12920417829E+03 -0.85669409384E+02  0.19923251931E+03  0.12500000000E+03 0.  0.
         25    1    1    2    0    0 -0.48005864890E+01  0.40361657760E+02  0.30638101454E+03  0.33338631513E+03  0.12500000000E+03 0.  0.
</event>
<event>
 5    0  0.5583350E-005  0.5080528E+03  0.7546771E-02  0.1011698E+00
         21   -1    0    0  502  501  0.00000000000E+00  0.00000000000E+00  0.17546505500E+03  0.17546505500E+03  0.00000000000E+00 0. -1.
         21   -1    0    0  501  502 -0.00000000000E+00 -0.00000000000E+00 -0.14710487782E+04  0.14710487782E+04  0.00000000000E+00 0. -1.
         25    1    1    2    0    0 -0.11163483071E+03 -0.89841418761E+02 -0.74636378208E+03  0.77020627832E+03  0.12500000000E+03 0.  0.
         25    1    1    2    0    0  0.31660415604E+03  0.56569843923E+02 -0.53098216360E+03  0.63324986927E+03  0.12500000000E+03 0.  0.
         25    1    1    2    0    0 -0.20496932533E+03  0.33271574838E+02 -0.18237777549E+02  0.24305768564E+03  0.12500000000E+03 0.  0.
</event>
<event>
 5    0  0.5583350E-005  0.3678344E+03  0.7546771E-02  0.1055524E+00
         21   -1    0    0  502  501  0.00000000000E+00  0.00000000000E+00  0.55952284825E+03  0.55952284825E+03  0.00000000000E+00 0. -1.
         21   -1    0    0  501  502 -0.00000000000E+00 -0.00000000000E+00 -0.24181697548E+03  0.24181697548E+03  0.00000000000E+00 0. -1.
         25    1    1    2    0    0  0.70066262429E+02  0.14993256324E+03  0.15860014824E+03  0.26109014090E+03  0.12500000000E+03 0.  0.
         25    1    1    2    0    0  0.42200480310E+02 -0.22525964081E+03  0.22505252455E+03  0.34466857287E+03  0.12500000000E+03 0.  0.
         25    1    1    2    0    0 -0.11226674274E+03  0.75327077574E+02 -0.65946800019E+02  0.19558110996E+03  0.12500000000E+03 0.  0.
</event>
<event>
 5    0  0.5583350E-005  0.5508877E+03  0.7546771E-02  0.1001289E+00
         21   -1    0    0  502  501  0.00000000000E+00  0.00000000000E+00  0.11010991890E+04  0.11010991890E+04  0.00000000000E+00 0.  1.
         21   -1    0    0  501  502 -0.00000000000E+00 -0.00000000000E+00 -0.27561297736E+03  0.27561297736E+03  0.00000000000E+00 0.  1.
         25    1    1    2    0    0  0.39710882676E+03  0.47897295734E+02  0.18549848974E+03  0.45828403957E+03  0.12500000000E+03 0.  0.
         25    1    1    2    0    0 -0.13973903990E+02  0.13446327854E+03  0.33128258769E+03  0.37901028505E+03  0.12500000000E+03 0.  0.
         25    1    1    2    0    0 -0.38313492277E+03 -0.18236057428E+03  0.30870513421E+03  0.53941784174E+03  0.12500000000E+03 0.  0.
</event>
<event>
 5    0  0.5583350E-005  0.2862526E+03  0.7546771E-02  0.1092322E+00
         21   -1    0    0  502  501  0.00000000000E+00  0.00000000000E+00  0.33987839313E+03  0.33987839313E+03  0.00000000000E+00 0.  1.
         21   -1    0    0  501  502 -0.00000000000E+00 -0.00000000000E+00 -0.24108788198E+03  0.24108788198E+03  0.00000000000E+00 0.  1.
         25    1    1    2    0    0 -0.67980025389E+02  0.15750353666E+03  0.13799214413E+02  0.21270652607E+03  0.12500000000E+03 0.  0.
         25    1    1    2    0    0  0.16790844846E+02 -0.18121465775E+03  0.44020996882E+02  0.22513003536E+03  0.12500000000E+03 0.  0.
         25    1    1    2    0    0  0.51189180544E+02  0.23711121090E+02  0.40970299861E+02  0.14312971368E+03  0.12500000000E+03 0.  0.
</event>
<event>
 5    0  0.5583350E-005  0.3151154E+03  0.7546771E-02  0.1077920E+00
         21   -1    0    0  502  501  0.00000000000E+00  0.00000000000E+00  0.55082700502E+03  0.55082700502E+03  0.00000000000E+00 0. -1.
         21   -1    0    0  501  502 -0.00000000000E+00 -0.00000000000E+00 -0.18027022754E+03  0.18027022754E+03  0.00000000000E+00 0. -1.
         25    1    1    2    0    0  0.69187693037E+02  0.15567240690E+03  0.13904639922E+02  0.21175262489E+03  0.12500000000E+03 0.  0.
         25    1    1    2    0    0 -0.11586709494E+03 -0.86451708002E+02  0.30589595936E+03  0.36068881250E+03  0.12500000000E+03 0.  0.
         25    1    1    2    0    0  0.46679401903E+02 -0.69220698895E+02  0.50756178192E+02  0.15865579517E+03  0.12500000000E+03 0.  0.
</event>
<event>
 5    0  0.5583350E-005  0.5108730E+03  0.7546771E-02  0.1010979E+00
         21   -1    0    0  502  501  0.00000000000E+00  0.00000000000E+00  0.10252060608E+04  0.10252060608E+04  0.00000000000E+00 0. -1.
         21   -1    0    0  501  502 -0.00000000000E+00 -0.00000000000E+00 -0.25457435986E+03  0.25457435986E+03  0.00000000000E+00 0. -1.
         25    1    1    2    0    0  0.31928252320E+03 -0.13272988623E+03  0.57794771054E+03  0.68498694034E+03  0.12500000000E+03 0.  0.
         25    1    1    2    0    0 -0.98307439430E+02 -0.51506674057E+02  0.22405879538E+03  0.27954361718E+03  0.12500000000E+03 0.  0.
         25    1    1    2    0    0 -0.22097508377E+03  0.18423656028E+03 -0.31374805016E+02  0.31524986309E+03  0.12500000000E+03 0.  0.
</event>
<event>
 5    0  0.5583350E-005  0.3284222E+03  0.7546771E-02  0.1071837E+00
         21   -1    0    0  502  501  0.00000000000E+00  0.00000000000E+00  0.15885441712E+03  0.15885441712E+03  0.00000000000E+00 0. -1.
         21   -1    0    0  501  502 -0.00000000000E+00 -0.00000000000E+00 -0.67899367042E+03  0.67899367042E+03  0.00000000000E+00 0. -1.
         25    1    1    2    0    0 -0.18113523569E+03 -0.11083467506E+03 -0.62769481866E+02  0.25428194324E+03  0.12500000000E+03 0.  0.
         25    1    1    2    0    0  0.19435504367E+02  0.92844940346E+02 -0.21098748825E+03  0.26294227879E+03  0.12500000000E+03 0.  0.
         25    1    1    2    0    0  0.16169973132E+03  0.17989734716E+02 -0.24638228319E+03  0.32062386551E+03  0.12500000000E+03 0.  0.
</event>
<event>
 5    0  0.5583350E-005  0.3864224E+03  0.7546771E-02  0.1048585E+00
         21   -1    0    0  502  501  0.00000000000E+00  0.00000000000E+00  0.13870253968E+04  0.13870253968E+04  0.00000000000E+00 0.  1.
         21   -1    0    0  501  502 -0.00000000000E+00 -0.00000000000E+00 -0.10765646642E+03  0.10765646642E+03  0.00000000000E+00 0.  1.
         25    1    1    2    0    0 -0.82387633474E+02 -0.51634265741E+02  0.44931927961E+03  0.47641015373E+03  0.12500000000E+03 0.  0.
         25    1    1    2    0    0  0.13770160176E+02  0.13945049180E+03  0.82982413487E+03  0.85080500221E+03  0.12500000000E+03 0.  0.
         25    1    1    2    0    0  0.68617473297E+02 -0.87816226054E+02  0.22551593856E+00  0.16746670731E+03  0.12500000000E+03 0.  0.
</event>
<event>
 5    0  0.5583350E-005  0.3361710E+03  0.7546771E-02  0.1068439E+00
         21   -1    0    0  502  501  0.00000000000E+00  0.00000000000E+00  0.92066045987E+02  0.92066045987E+02  0.00000000000E+00 0.  1.
         21   -1    0    0  501  502 -0.00000000000E+00 -0.00000000000E+00 -0.12274985250E+04  0.12274985250E+04  0.00000000000E+00 0.  1.
         25    1    1    2    0    0  0.64199909307E+02  0.45155254729E+02 -0.21027230216E+03  0.25690478088E+03  0.12500000000E+03 0.  0.
         25    1    1    2    0    0 -0.22529573368E+03  0.82761715468E+02 -0.59902792248E+03  0.65731812775E+03  0.12500000000E+03 0.  0.
         25    1    1    2    0    0  0.16109582438E+03 -0.12791697020E+03 -0.32613225438E+03  0.40534166236E+03  0.12500000000E+03 0.  0.
</event>
<event>
 5    0  0.5583350E-005  0.7651223E+03  0.7546771E-02  0.9611920E-01
         21   -1    0    0  502  501  0.00000000000E+00  0.00000000000E+00  0.13335889692E+04  0.13335889692E+04  0.00000000000E+00 0.  1.
         21   -1    0    0  501  502 -0.00000000000E+00 -0.00000000000E+00 -0.43897495612E+03  0.43897495612E+03  0.00000000000E+00 0.  1.
         25    1    1    2    0    0  0.24353573151E+03 -0.52222786364E+03  0.72966968780E+03  0.93812283171E+03  0.12500000000E+03 0.  0.
         25    1    1    2    0    0 -0.32656928484E+03  0.26023982571E+03 -0.83047208889E+02  0.44372751052E+03  0.12500000000E+03 0.  0.
         25    1    1    2    0    0  0.83033553326E+02  0.26198803793E+03  0.24799153415E+03  0.39071358308E+03  0.12500000000E+03 0.  0.
</event>
<event>
 5    0  0.5583350E-005  0.4375921E+03  0.7546771E-02  0.1031488E+00
         21   -1    0    0  502  501  0.00000000000E+00  0.00000000000E+00  0.14396071871E+03  0.14396071871E+03  0.00000000000E+00 0. -1.
         21   -1    0    0  501  502 -0.00000000000E+00 -0.00000000000E+00 -0.13301323981E+04  0.13301323981E+04  0.00000000000E+00 0. -1.
         25    1    1    2    0    0 -0.10455800860E+03 -0.11003871070E+03 -0.72890412816E+03  0.75496166994E+03  0.12500000000E+03 0.  0.
         25    1    1    2    0    0  0.23322278510E+03 -0.88681368800E+02 -0.29497166754E+03  0.40606715863E+03  0.12500000000E+03 0.  0.
         25    1    1    2    0    0 -0.12866477650E+03  0.19872007950E+03 -0.16229588368E+03  0.31306428824E+03  0.12500000000E+03 0.  0.
</event>
<event>
 5    0  0.5583350E-005  0.3325763E+03  0.7546771E-02  0.1070003E+00
         21   -1    0    0  502  501  0.00000000000E+00  0.00000000000E+00  0.73318643689E+03  0.73318643689E+03  0.00000000000E+00 0.  1.
         21   -1    0    0  501  502 -0.00000000000E+00 -0.00000000000E+00 -0.15085794912E+03  0.15085794912E+03  0.00000000000E+00 0.  1.
         25    1    1    2    0    0  0.11303355735E+03 -0.16139773976E+03  0.22531153696E+03  0.32437031950E+03  0.12500000000E+03 0.  0.
         25    1    1    2    0    0 -0.16162048058E+03  0.16600154818E+03  0.12449051464E+03  0.29120539483E+03  0.12500000000E+03 0.  0.
         25    1    1    2    0    0  0.48586923224E+02 -0.46038084198E+01  0.23252643616E+03  0.26846867168E+03  0.12500000000E+03 0.  0.
</event>
<event>
 5    0  0.5603059E-005  0.2833720E+03  0.7546771E-02  0.1093861E+00
         21   -1    0    0  502  501  0.00000000000E+00  0.00000000000E+00  0.84233450367E+03  0.84233450367E+03  0.00000000000E+00 0.  1.
         21   -1    0    0  501  502 -0.00000000000E+00 -0.00000000000E+00 -0.95329934902E+02  0.95329934902E+02  0.00000000000E+00 0.  1.
         25    1    1    2    0    0 -0.31429345147E+02 -0.80022081242E+02  0.48858024351E+02  0.15938457819E+03  0.12500000000E+03 0.  0.
         25    1    1    2    0    0 -0.91850324251E+02  0.38930797870E+02  0.38563664609E+03  0.41748378638E+03  0.12500000000E+03 0.  0.
         25    1    1    2    0    0  0.12327966940E+03  0.41091283372E+02  0.31250989833E+03  0.36079607400E+03  0.12500000000E+03 0.  0.
</event>
<event>
 5    0  0.5583350E-005  0.2615191E+03  0.7546771E-02  0.1106234E+00
         21   -1    0    0  502  501  0.00000000000E+00  0.00000000000E+00  0.18289801590E+03  0.18289801590E+03  0.00000000000E+00 0.  1.
         21   -1    0    0  501  502 -0.00000000000E+00 -0.00000000000E+00 -0.37393655021E+03  0.37393655021E+03  0.00000000000E+00 0.  1.
         25    1    1    2    0    0 -0.12821891880E+03  0.62789773843E+02 -0.63014526047E+02  0.19994618609E+03  0.12500000000E+03 0.  0.
         25    1    1    2    0    0  0.10694609010E+02 -0.67949523160E+02  0.12912335932E+00  0.14267630859E+03  0.12500000000E+03 0.  0.
         25    1    1    2    0    0  0.11752430979E+03  0.51597493179E+01 -0.12815313161E+03  0.21421207143E+03  0.12500000000E+03 0.  0.
</event>
<event>
 5    0  0.5583350E-005  0.4258513E+03  0.7546771E-02  0.1035179E+00
         21   -1    0    0  502  501  0.00000000000E+00  0.00000000000E+00  0.10514549374E+04  0.10514549374E+04  0.00000000000E+00 0.  1.
         21   -1    0    0  501  502 -0.00000000000E+00 -0.00000000000E+00 -0.17247468777E+03  0.17247468777E+03  0.00000000000E+00 0.  1.
         25    1    1    2    0    0  0.25240110422E+01  0.89269532366E+01  0.17113033012E+03  0.21212414057E+03  0.12500000000E+03 0.  0.
         25    1    1    2    0    0 -0.27337618515E+03 -0.87801993036E+02  0.97654167143E+02  0.32803210963E+03  0.12500000000E+03 0.  0.
         25    1    1    2    0    0  0.27085217410E+03  0.78875039800E+02  0.61019575239E+03  0.68377337500E+03  0.12500000000E+03 0.  0.
</event>
<event>
 5    0  0.5583350E-005  0.3646306E+03  0.7546771E-02  0.1056765E+00
         21   -1    0    0  502  501  0.00000000000E+00  0.00000000000E+00  0.54342170833E+03  0.54342170833E+03  0.00000000000E+00 0. -1.
         21   -1    0    0  501  502 -0.00000000000E+00 -0.00000000000E+00 -0.24466347080E+03  0.24466347080E+03  0.00000000000E+00 0. -1.
         25    1    1    2    0    0  0.28274332099E+03  0.40637049604E+02  0.20845573617E+03  0.37506526006E+03  0.12500000000E+03 0.  0.
         25    1    1    2    0    0 -0.68017392120E+02 -0.23115899017E+01  0.75681787389E+02  0.16119690450E+03  0.12500000000E+03 0.  0.
         25    1    1    2    0    0 -0.21472592887E+03 -0.38325459703E+02  0.14620713970E+02  0.25182301457E+03  0.12500000000E+03 0.  0.
</event>
<event>
 5    0  0.5583350E-005  0.2927639E+03  0.7546771E-02  0.1088915E+00
         21   -1    0    0  502  501  0.00000000000E+00  0.00000000000E+00  0.10779868939E+03  0.10779868939E+03  0.00000000000E+00 0.  1.
         21   -1    0    0  501  502 -0.00000000000E+00 -0.00000000000E+00 -0.79509989422E+03  0.79509989422E+03  0.00000000000E+00 0.  1.
         25    1    1    2    0    0  0.38315731694E+02 -0.72200560913E+02 -0.85229575321E+02  0.17195957897E+03  0.12500000000E+03 0.  0.
         25    1    1    2    0    0 -0.14563980176E+03  0.81414170819E+02 -0.17191976640E+03  0.27022328757E+03  0.12500000000E+03 0.  0.
         25    1    1    2    0    0  0.10732407007E+03 -0.92136099062E+01 -0.43015186311E+03  0.46071571707E+03  0.12500000000E+03 0.  0.
</event>
<event>
 5    0  0.5583350E-005  0.2723652E+03  0.7546771E-02  0.1099934E+00
         21   -1    0    0  502  501  0.00000000000E+00  0.00000000000E+00  0.11573247642E+03  0.11573247642E+03  0.00000000000E+00 0.  1.
         21   -1    0    0  501  502 -0.00000000000E+00 -0.00000000000E+00 -0.64098503294E+03  0.64098503294E+03  0.00000000000E+00 0.  1.
         25    1    1    2    0    0  0.59677971780E+01  0.34342457293E+02 -0.16200244425E+03  0.20756881008E+03  0.12500000000E+03 0.  0.
         25    1    1    2    0    0  0.15161803819E+03 -0.48901905211E+02 -0.23475286060E+03  0.31002150151E+03  0.12500000000E+03 0.  0.
         25    1    1    2    0    0 -0.15758583536E+03  0.14559447918E+02 -0.12849725167E+03  0.23912719778E+03  0.12500000000E+03 0.  0.
</event>
<event>
 5    0  0.5583350E-005  0.2655665E+03  0.7546771E-02  0.1103844E+00
         21   -1    0    0  502  501  0.00000000000E+00  0.00000000000E+00  0.54006817607E+03  0.54006817607E+03  0.00000000000E+00 0.  1.
         21   -1    0    0  501  502 -0.00000000000E+00 -0.00000000000E+00 -0.13058638083E+03  0.13058638083E+03  0.00000000000E+00 0.  1.
         25    1    1    2    0    0  0.15118356362E+03  0.10729097717E+01  0.21942597963E+03  0.29433039528E+03  0.12500000000E+03 0.  0.
         25    1    1    2    0    0 -0.11276946372E+03 -0.68435365216E+01  0.32685427283E+02  0.17163077550E+03  0.12500000000E+03 0.  0.
         25    1    1    2    0    0 -0.38414099900E+02  0.57706267500E+01  0.15737038832E+03  0.20469338613E+03  0.12500000000E+03 0.  0.
</event>
<event>
 5    0  0.5583350E-005  0.2453651E+03  0.7546771E-02  0.1116269E+00
         21   -1    0    0  502  501  0.00000000000E+00  0.00000000000E+00  0.73858540644E+02  0.73858540644E+02  0.00000000000E+00 0.  1.
         21   -1    0    0  501  502 -0.00000000000E+00 -0.00000000000E+00 -0.81512649687E+03  0.81512649687E+03  0.00000000000E+00 0.  1.
         25    1    1    2    0    0  0.39515814539E+02 -0.59949901900E+02 -0.28308178796E+03  0.31767245554E+03  0.12500000000E+03 0.  0.
         25    1    1    2    0    0  0.76338088512E+02 -0.17382557879E+02 -0.25858309265E+03  0.29769090157E+03  0.12500000000E+03 0.  0.
         25    1    1    2    0    0 -0.11585390305E+03  0.77332459779E+02 -0.19960307562E+03  0.27362168040E+03  0.12500000000E+03 0.  0.
</event>
<event>
 5    0  0.5583350E-005  0.3614013E+03  0.7546771E-02  0.1058030E+00
         21   -1    0    0  502  501  0.00000000000E+00  0.00000000000E+00  0.78874928730E+02  0.78874928730E+02  0.00000000000E+00 0.  1.
         21   -1    0    0  501  502 -0.00000000000E+00 -0.00000000000E+00 -0.16559237512E+04  0.16559237512E+04  0.00000000000E+00 0.  1.
         25    1    1    2    0    0  0.15064190968E+03  0.14954157490E+03 -0.47280122391E+03  0.53312443661E+03  0.12500000000E+03 0.  0.
         25    1    1    2    0    0 -0.22309187524E+03  0.13455296519E+02 -0.58493714180E+03  0.63853542554E+03  0.12500000000E+03 0.  0.
         25    1    1    2    0    0  0.72449965558E+02 -0.16299687142E+03 -0.51931045677E+03  0.56313881780E+03  0.12500000000E+03 0.  0.
</event>
<event>
 5    0  0.5583350E-005  0.2447323E+03  0.7546771E-02  0.1116680E+00
         21   -1    0    0  502  501  0.00000000000E+00  0.00000000000E+00  0.77688124205E+03  0.77688124205E+03  0.00000000000E+00 0. -1.
         21   -1    0    0  501  502 -0.00000000000E+00 -0.00000000000E+00 -0.77095320632E+02  0.77095320632E+02  0.00000000000E+00 0. -1.
         25    1    1    2    0    0  0.10388011677E+02 -0.68974883795E+02  0.24689689404E+03  0.28539187387E+03  0.12500000000E+03 0.  0.
         25    1    1    2    0    0 -0.47559171269E+02 -0.67679367145E+02  0.24906613720E+03  0.29069109413E+03  0.12500000000E+03 0.  0.
         25    1    1    2    0    0  0.37171159592E+02  0.13665425094E+03  0.20382289017E+03  0.27789359468E+03  0.12500000000E+03 0.  0.
</event>
<event>
 5    0  0.5954129E-005  0.2878644E+03  0.7546771E-02  0.1091469E+00
         21   -1    0    0  502  501  0.00000000000E+00  0.00000000000E+00  0.10972446581E+04  0.10972446581E+04  0.00000000000E+00 0.  1.
         21   -1    0    0  501  502 -0.00000000000E+00 -0.00000000000E+00 -0.75521827712E+02  0.75521827712E+02  0.00000000000E+00 0.  1.
         25    1    1    2    0    0 -0.16965379509E+02 -0.64612916489E+02  0.77139090593E+03  0.78430324673E+03  0.12500000000E+03 0.  0.
         25    1    1    2    0    0 -0.40166181114E+02 -0.23917618774E+02  0.11776967705E+03  0.17798896433E+03  0.12500000000E+03 0.  0.
         25    1    1    2    0    0  0.57131560623E+02  0.88530535262E+02  0.13256224742E+03  0.21047427475E+03  0.12500000000E+03 0.  0.
</event>
<event>
 5    0  0.5583350E-005  0.2509131E+03  0.7546771E-02  0.1112729E+00
         21   -1    0    0  502  501  0.00000000000E+00  0.00000000000E+00  0.15380580389E+03  0.15380580389E+03  0.00000000000E+00 0.  1.
         21   -1    0    0  501  502 -0.00000000000E+00 -0.00000000000E+00 -0.40933030584E+03  0.40933030584E+03  0.00000000000E+00 0.  1.
         25    1    1    2    0    0 -0.37509764450E+02  0.54714348066E+02 -0.13570151644E+03  0.19606260193E+03  0.12500000000E+03 0.  0.
         25    1    1    2    0    0  0.87166988959E+02  0.63861822538E+02 -0.79151470433E+02  0.18321127589E+03  0.12500000000E+03 0.  0.
         25    1    1    2    0    0 -0.49657224509E+02 -0.11857617060E+03 -0.40671515076E+02  0.18386223190E+03  0.12500000000E+03 0.  0.
</event>
<event>
 5    0  0.5583350E-005  0.2371731E+03  0.7546771E-02  0.1121690E+00
         21   -1    0    0  502  501  0.00000000000E+00  0.00000000000E+00  0.12688125448E+03  0.12688125448E+03  0.00000000000E+00 0.  1.
         21   -1    0    0  501  502 -0.00000000000E+00 -0.00000000000E+00 -0.44333624632E+03  0.44333624632E+03  0.00000000000E+00 0.  1.
         25    1    1    2    0    0 -0.59448773928E+02  0.47996262474E+02 -0.42487622705E+02  0.15253850667E+03  0.12500000000E+03 0.  0.
         25    1    1    2    0    0 -0.57293238851E+02 -0.19644454665E+02 -0.93570282388E+02  0.16747781215E+03  0.12500000000E+03 0.  0.
         25    1    1    2    0    0  0.11674201278E+03 -0.28351807808E+02 -0.18039708675E+03  0.25020118197E+03  0.12500000000E+03 0.  0.
</event>
<event>
 5    0  0.5583350E-005  0.4255054E+03  0.7546771E-02  0.1035289E+00
         21   -1    0    0  502  501  0.00000000000E+00  0.00000000000E+00  0.14664495731E+03  0.14664495731E+03  0.00000000000E+00 0.  1.
         21   -1    0    0  501  502 -0.00000000000E+00 -0.00000000000E+00 -0.12346478560E+04  0.12346478560E+04  0.00000000000E+00 0.  1.
         25    1    1    2    0    0 -0.20057404051E+03 -0.25255729466E+03 -0.70202489411E+03  0.78261042975E+03  0.12500000000E+03 0.  0.
         25    1    1    2    0    0  0.16165834469E+03  0.12695675677E+03 -0.33084430284E+03  0.40906526524E+03  0.12500000000E+03 0.  0.
         25    1    1    2    0    0  0.38915695814E+02  0.12560053788E+03 -0.55133701745E+02  0.18961711833E+03  0.12500000000E+03 0.  0.
</event>
<event>
 5    0  0.5583350E-005  0.2469681E+03  0.7546771E-02  0.1115236E+00
         21   -1    0    0  502  501  0.00000000000E+00  0.00000000000E+00  0.28817468268E+03  0.28817468268E+03  0.00000000000E+00 0.  1.
         21   -1    0    0  501  502 -0.00000000000E+00 -0.00000000000E+00 -0.21165375542E+03  0.21165375542E+03  0.00000000000E+00 0.  1.
         25    1    1    2    0    0 -0.11203628112E+03  0.72275978338E+02  0.85004733472E+02  0.20156078499E+03  0.12500000000E+03 0.  0.
         25    1    1    2    0    0  0.49108349418E+02 -0.68319878880E+01 -0.40606322533E+02  0.14047127632E+03  0.12500000000E+03 0.  0.
         25    1    1    2    0    0  0.62927931703E+02 -0.65443990450E+02  0.32122516325E+02  0.15779637679E+03  0.12500000000E+03 0.  0.
</event>
<event>
 5    0  0.5583350E-005  0.3013006E+03  0.7546771E-02  0.1084592E+00
         21   -1    0    0  502  501  0.00000000000E+00  0.00000000000E+00  0.31475428591E+03  0.31475428591E+03  0.00000000000E+00 0.  1.
         21   -1    0    0  501  502 -0.00000000000E+00 -0.00000000000E+00 -0.28842189740E+03  0.28842189740E+03  0.00000000000E+00 0.  1.
         25    1    1    2    0    0 -0.13036415571E+03  0.27841925961E+02  0.40140770608E+02  0.18709961892E+03  0.12500000000E+03 0.  0.
         25    1    1    2    0    0  0.19740016844E+03  0.63060684298E+02 -0.40903846462E+02  0.24544164491E+03  0.12500000000E+03 0.  0.
         25    1    1    2    0    0 -0.67036012721E+02 -0.90902610258E+02  0.27095464367E+02  0.17063491947E+03  0.12500000000E+03 0.  0.
</event>
<event>
 5    0  0.5583350E-005  0.2454505E+03  0.7546771E-02  0.1116214E+00
         21   -1    0    0  502  501  0.00000000000E+00  0.00000000000E+00  0.12009117916E+04  0.12009117916E+04  0.00000000000E+00 0.  1.
         21   -1    0    0  501  502 -0.00000000000E+00 -0.00000000000E+00 -0.50166854618E+02  0.50166854618E+02  0.00000000000E+00 0.  1.
         25    1    1    2    0    0 -0.34216627363E+02  0.32676995510E+02  0.57126915163E+03  0.58669583877E+03  0.12500000000E+03 0.  0.
         25    1    1    2    0    0 -0.12302927291E+02  0.24901829421E+02  0.97369067927E+02  0.16086391304E+03  0.12500000000E+03 0.  0.
         25    1    1    2    0    0  0.46519554654E+02 -0.57578824931E+02  0.48210671745E+03  0.50351889444E+03  0.12500000000E+03 0.  0.
</event>
<event>
 5    0  0.5583350E-005  0.3266856E+03  0.7546771E-02  0.1072613E+00
         21   -1    0    0  502  501  0.00000000000E+00  0.00000000000E+00  0.21904101392E+03  0.21904101392E+03  0.00000000000E+00 0.  1.
         21   -1    0    0  501  502 -0.00000000000E+00 -0.00000000000E+00 -0.48723067998E+03  0.48723067998E+03  0.00000000000E+00 0.  1.
         25    1    1    2    0    0 -0.89285936092E+02 -0.87947051491E+02 -0.22309656704E+03  0.28478718453E+03  0.12500000000E+03 0.  0.
         25    1    1    2    0    0  0.43271422894E+02  0.22585647155E+02 -0.17757224460E+03  0.22257454830E+03  0.12500000000E+03 0.  0.
         25    1    1    2    0    0  0.46014513198E+02  0.65361404336E+02  0.13247914557E+03  0.19890996107E+03  0.12500000000E+03 0.  0.
</event>
<event>
 5    0  0.5583350E-005  0.3156755E+03  0.7546771E-02  0.1077657E+00
         21   -1    0    0  502  501  0.00000000000E+00  0.00000000000E+00  0.17279972312E+03  0.17279972312E+03  0.00000000000E+00 0.  1.
         21   -1    0    0  501  502 -0.00000000000E+00 -0.00000000000E+00 -0.57668523515E+03  0.57668523515E+03  0.00000000000E+00 0.  1.
         25    1    1    2    0    0  0.23967489142E+02 -0.54530375163E+02 -0.17556602795E+03  0.22359882048E+03  0.12500000000E+03 0.  0.
         25    1    1    2    0    0 -0.13187481450E+03 -0.24930884183E+02 -0.28068595991E+03  0.33529408550E+03  0.12500000000E+03 0.  0.
         25    1    1    2    0    0  0.10790732536E+03  0.79461259346E+02  0.52366475830E+02  0.19059205228E+03  0.12500000000E+03 0.  0.
</event>
<event>
 5    0  0.5583350E-005  0.3146709E+03  0.7546771E-02  0.1078128E+00
         21   -1    0    0  502  501  0.00000000000E+00  0.00000000000E+00  0.65924572278E+02  0.65924572278E+02  0.00000000000E+00 0. -1.
         21   -1    0    0  501  502 -0.00000000000E+00 -0.00000000000E+00 -0.15019858529E+04  0.15019858529E+04  0.00000000000E+00 0. -1.
         25    1    1    2    0    0 -0.10961780724E+03 -0.10565638947E+02 -0.30522876126E+03  0.34773163947E+03  0.12500000000E+03 0.  0.
         25    1    1    2    0    0  0.45541956606E+02 -0.17845132457E+03 -0.52991221643E+03  0.57476160465E+03  0.12500000000E+03 0.  0.
         25    1    1    2    0    0  0.64075850637E+02  0.18901696351E+03 -0.60092030293E+03  0.64541718105E+03  0.12500000000E+03 0.  0.
</event>
<event>
 5    0  0.5583350E-005  0.3416120E+03  0.7546771E-02  0.1066111E+00
         21   -1    0    0  502  501  0.00000000000E+00  0.00000000000E+00  0.30133016124E+03  0.30133016124E+03  0.00000000000E+00 0.  1.
         21   -1    0    0  501  502 -0.00000000000E+00 -0.00000000000E+00 -0.38727875321E+03  0.38727875321E+03  0.00000000000E+00 0.  1.
         25    1    1    2    0    0 -0.16725990812E+03  0.10888415468E+02 -0.20415748277E+03  0.29223229155E+03  0.12500000000E+03 0.  0.
         25    1    1    2    0    0  0.19932419416E+03 -0.45815104810E+02  0.44761144139E+02  0.24383953378E+03  0.12500000000E+03 0.  0.
         25    1    1    2    0    0 -0.32064286039E+02  0.34926689343E+02  0.73447746659E+02  0.15253708912E+03  0.12500000000E+03 0.  0.
</event>
<event>
 5    0  0.5583350E-005  0.3060625E+03  0.7546771E-02  0.1082249E+00
         21   -1    0    0  502  501  0.00000000000E+00  0.00000000000E+00  0.24057387239E+03  0.24057387239E+03  0.00000000000E+00 0. -1.
         21   -1    0    0  501  502 -0.00000000000E+00 -0.00000000000E+00 -0.38937824504E+03  0.38937824504E+03  0.00000000000E+00 0. -1.
         25    1    1    2    0    0 -0.25105145383E+02  0.70300865959E+02  0.82271265071E+02  0.16723050301E+03  0.12500000000E+03 0.  0.
         25    1    1    2    0    0 -0.39785593172E+02 -0.15957365335E+02 -0.27533706165E+03  0.30540633335E+03  0.12500000000E+03 0.  0.
         25    1    1    2    0    0  0.64890738556E+02 -0.54343500624E+02  0.44261423935E+02  0.15731528107E+03  0.12500000000E+03 0.  0.
</event>
<event>
 5    0  0.5583350E-005  0.2319685E+03  0.7546771E-02  0.1125262E+00
         21   -1    0    0  502  501  0.00000000000E+00  0.00000000000E+00  0.31790778132E+03  0.31790778132E+03  0.00000000000E+00 0.  1.
         21   -1    0    0  501  502 -0.00000000000E+00 -0.00000000000E+00 -0.16926101280E+03  0.16926101280E+03  0.00000000000E+00 0.  1.
         25    1    1    2    0    0  0.42388341391E+02  0.10214543233E+03  0.16004386366E+02  0.16766514609E+03  0.12500000000E+03 0.  0.
         25    1    1    2    0    0  0.84924929159E+01 -0.38094485752E+02  0.20137221709E+02  0.13249082979E+03  0.12500000000E+03 0.  0.
         25    1    1    2    0    0 -0.50880834307E+02 -0.64050946574E+02  0.11250516044E+03  0.18701281823E+03  0.12500000000E+03 0.  0.
</event>
<event>
 5    0  0.5583350E-005  0.3318534E+03  0.7546771E-02  0.1070320E+00
         21   -1    0    0  502  501  0.00000000000E+00  0.00000000000E+00  0.87274587067E+03  0.87274587067E+03  0.00000000000E+00 0. -1.
         21   -1    0    0  501  502 -0.00000000000E+00 -0.00000000000E+00 -0.12618411280E+03  0.12618411280E+03  0.00000000000E+00 0. -1.
         25    1    1    2    0    0  0.23099726068E+02  0.17305502668E+03  0.11333125872E+03  0.24279747487E+03  0.12500000000E+03 0.  0.
         25    1    1    2    0    0 -0.81020115071E+02 -0.14944037288E+03  0.55979215341E+03  0.59823819596E+03  0.12500000000E+03 0.  0.
         25    1    1    2    0    0  0.57920389003E+02 -0.23614653799E+02  0.73438345746E+02  0.15789431263E+03  0.12500000000E+03 0.  0.
</event>
<event>
 5    0  0.5583350E-005  0.3570170E+03  0.7546771E-02  0.1059771E+00
         21   -1    0    0  502  501  0.00000000000E+00  0.00000000000E+00  0.21157222001E+04  0.21157222001E+04  0.00000000000E+00 0. -1.
         21   -1    0    0  501  502 -0.00000000000E+00 -0.00000000000E+00 -0.60244738828E+02  0.60244738828E+02  0.00000000000E+00 0. -1.
         25    1    1    2    0    0  0.95601627402E+02 -0.61375443235E+02  0.12845414028E+04  0.12955995646E+04  0.12500000000E+03 0.  0.
         25    1    1    2    0    0  0.88687395381E+02  0.93706802027E+02  0.21223796791E+03  0.27805822028E+03  0.12500000000E+03 0.  0.
         25    1    1    2    0    0 -0.18428902278E+03 -0.32331358792E+02  0.55869809048E+03  0.60230915399E+03  0.12500000000E+03 0.  0.
</event>
<event>
 5    0  0.5583350E-005  0.3107571E+03  0.7546771E-02  0.1079984E+00
         21   -1    0    0  502  501  0.00000000000E+00  0.00000000000E+00  0.25420046400E+03  0.25420046400E+03  0.00000000000E+00 0. -1.
         21   -1    0    0  501  502 -0.00000000000E+00 -0.00000000000E+00 -0.37989682093E+03  0.37989682093E+03  0.00000000000E+00 0. -1.
         25    1    1    2    0    0  0.78392731723E+02 -0.71922266002E+02  0.75771147478E+02  0.18078854921E+03  0.12500000000E+03 0.  0.
         25    1    1    2    0    0 -0.68956175072E+02  0.46331134552E+02 -0.26944720912E+03  0.30842880315E+03  0.12500000000E+03 0.  0.
         25    1    1    2    0    0 -0.94365566508E+01  0.25591131449E+02  0.67979704712E+02  0.14487993258E+03  0.12500000000E+03 0.  0.
</event>
<event>
 5    0  0.5583350E-005  0.2994722E+03  0.7546771E-02  0.1085505E+00
         21   -1    0    0  502  501  0.00000000000E+00  0.00000000000E+00  0.30386948180E+03  0.30386948180E+03  0.00000000000E+00 0. -1.
         21   -1    0    0  501  502 -0.00000000000E+00 -0.00000000000E+00 -0.29513857556E+03  0.29513857556E+03  0.00000000000E+00 0. -1.
         25    1    1    2    0    0 -0.14460177397E+03  0.77471650989E+02  0.12898096067E+03  0.24325422496E+03  0.12500000000E+03 0.  0.
         25    1    1    2    0    0  0.43213089179E+02 -0.50389042109E+02 -0.13010241476E+03  0.19224480478E+03  0.12500000000E+03 0.  0.
         25    1    1    2    0    0  0.10138868479E+03 -0.27082608881E+02  0.98523603236E+01  0.16350902762E+03  0.12500000000E+03 0.  0.
</event>
<event>
 5    0  0.5583350E-005  0.3089072E+03  0.7546771E-02  0.1080871E+00
         21   -1    0    0  502  501  0.00000000000E+00  0.00000000000E+00  0.66026770279E+03  0.66026770279E+03  0.00000000000E+00 0. -1.
         21   -1    0    0  501  502 -0.00000000000E+00 -0.00000000000E+00 -0.14452264357E+03  0.14452264357E+03  0.00000000000E+00 0. -1.
         25    1    1    2    0    0 -0.16280117068E+03 -0.60691368976E+02  0.29394714523E+03  0.36361736432E+03  0.12500000000E+03 0.  0.
         25    1    1    2    0    0  0.14362459440E+02 -0.14300078456E+02  0.19344160562E+03  0.23120429769E+03  0.12500000000E+03 0.  0.
         25    1    1    2    0    0  0.14843871124E+03  0.74991447432E+02  0.28356308367E+02  0.20996868435E+03  0.12500000000E+03 0.  0.
</event>
<event>
 5    0  0.7105616E-005  0.3047740E+03  0.7546771E-02  0.1082878E+00
         21   -1    0    0  502  501  0.00000000000E+00  0.00000000000E+00  0.36377499985E+03  0.36377499985E+03  0.00000000000E+00 0.  1.
         21   -1    0    0  501  502 -0.00000000000E+00 -0.00000000000E+00 -0.25534242420E+03  0.25534242420E+03  0.00000000000E+00 0.  1.
         25    1    1    2    0    0 -0.94393594862E+02 -0.42399419523E+02  0.20297520322E+03  0.25986880276E+03  0.12500000000E+03 0.  0.
         25    1    1    2    0    0  0.14565020259E+03  0.75037703137E+02 -0.72847750436E+02  0.21857820831E+03  0.12500000000E+03 0.  0.
         25    1    1    2    0    0 -0.51256607727E+02 -0.32638283614E+02 -0.21694877141E+02  0.14067041298E+03  0.12500000000E+03 0.  0.
</event>
<event>
 5    0  0.6627196E-005  0.2883384E+03  0.7546771E-02  0.1091220E+00
         21   -1    0    0  502  501  0.00000000000E+00  0.00000000000E+00  0.24767370153E+03  0.24767370153E+03  0.00000000000E+00 0.  1.
         21   -1    0    0  501  502 -0.00000000000E+00 -0.00000000000E+00 -0.33567961936E+03  0.33567961936E+03  0.00000000000E+00 0.  1.
         25    1    1    2    0    0  0.11177066723E+03  0.63018588086E+01 -0.46596184971E+02  0.17415108364E+03  0.12500000000E+03 0.  0.
         25    1    1    2    0    0 -0.16912563173E+03 -0.93452337107E+02 -0.76745495903E+02  0.24259367214E+03  0.12500000000E+03 0.  0.
         25    1    1    2    0    0  0.57354964501E+02  0.87150478299E+02  0.35335763046E+02  0.16660856512E+03  0.12500000000E+03 0.  0.
</event>
<event>
 5    0  0.5583350E-005  0.3001093E+03  0.7546771E-02  0.1085186E+00
         21   -1    0    0  502  501  0.00000000000E+00  0.00000000000E+00  0.26760927586E+04  0.26760927586E+04  0.00000000000E+00 0.  1.
         21   -1    0    0  501  502 -0.00000000000E+00 -0.00000000000E+00 -0.33655640185E+02  0.33655640185E+02  0.00000000000E+00 0.  1.
         25    1    1    2    0    0  0.69357708060E+02  0.17957029865E+01  0.20401999036E+04  0.20452027681E+04  0.12500000000E+03 0.  0.
         25    1    1    2    0    0 -0.46766756739E+02  0.16075776753E+02  0.18952541416E+03  0.23235843593E+03  0.12500000000E+03 0.  0.
         25    1    1    2    0    0 -0.22590951322E+02 -0.17871479739E+02  0.41271180072E+03  0.43218719477E+03  0.12500000000E+03 0.  0.
</event>
<event>
 5    0  0.5583350E-005  0.3579632E+03  0.7546771E-02  0.1059393E+00
         21   -1    0    0  502  501  0.00000000000E+00  0.00000000000E+00  0.15370944370E+03  0.15370944370E+03  0.00000000000E+00 0. -1.
         21   -1    0    0  501  502 -0.00000000000E+00 -0.00000000000E+00 -0.83363549073E+03  0.83363549073E+03  0.00000000000E+00 0. -1.
         25    1    1    2    0    0  0.36427585357E+01  0.52299062304E+02 -0.14195690220E+03  0.19627843409E+03  0.12500000000E+03 0.  0.
         25    1    1    2    0    0  0.61339064749E+02 -0.19350819888E+03 -0.54140588917E+03  0.59156845819E+03  0.12500000000E+03 0.  0.
         25    1    1    2    0    0 -0.64981823285E+02  0.14120913658E+03  0.34367443397E+01  0.19949804215E+03  0.12500000000E+03 0.  0.
</event>
<event>
 5    0  0.5583350E-005  0.3072905E+03  0.7546771E-02  0.1081652E+00
         21   -1    0    0  502  501  0.00000000000E+00  0.00000000000E+00  0.16010972642E+03  0.16010972642E+03  0.00000000000E+00 0.  1.
         21   -1    0    0  501  502 -0.00000000000E+00 -0.00000000000E+00 -0.58976704536E+03  0.58976704536E+03  0.00000000000E+00 0.  1.
         25    1    1    2    0    0 -0.41371426323E+02 -0.51518424778E+02 -0.19691035263E+03  0.24241375782E+03  0.12500000000E+03 0.  0.
         25    1    1    2    0    0  0.46276368419E+02 -0.45926938549E+02 -0.30287340758E+03  0.33407796542E+03  0.12500000000E+03 0.  0.
         25    1    1    2    0    0 -0.49049420960E+01  0.97445363327E+02  0.70126441273E+02  0.17338504854E+03  0.12500000000E+03 0.  0.
</event>
<event>
 5    0  0.5583350E-005  0.2491172E+03  0.7546771E-02  0.1113864E+00
         21   -1    0    0  502  501  0.00000000000E+00  0.00000000000E+00  0.42202429935E+03  0.42202429935E+03  0.00000000000E+00 0.  1.
         21   -1    0    0  501  502 -0.00000000000E+00 -0.00000000000E+00 -0.14705163296E+03  0.14705163296E+03  0.00000000000E+00 0.  1.
         25    1    1    2    0    0  0.49096648268E+02  0.97214597464E+02  0.12796669289E+03  0.20943169130E+03  0.12500000000E+03 0.  0.
         25    1    1    2    0    0  0.67579256221E+02 -0.37349137678E+02  0.70942026815E+02  0.16315540177E+03  0.12500000000E+03 0.  0.
         25    1    1    2    0    0 -0.11667590449E+03 -0.59865459786E+02  0.76063946678E+02  0.19648883925E+03  0.12500000000E+03 0.  0.
</event>
<event>
 5    0  0.5583350E-005  0.2726501E+03  0.7546771E-02  0.1099772E+00
         21   -1    0    0  502  501  0.00000000000E+00  0.00000000000E+00  0.10209778513E+03  0.10209778513E+03  0.00000000000E+00 0.  1.
         21   -1    0    0  501  502 -0.00000000000E+00 -0.00000000000E+00 -0.72810676747E+03  0.72810676747E+03  0.00000000000E+00 0.  1.
         25    1    1    2    0    0 -0.25539295288E+02 -0.41730432113E+02 -0.86408284550E+02  0.15964045918E+03  0.12500000000E+03 0.  0.
         25    1    1    2    0    0  0.74737956434E+02 -0.11915948608E+03 -0.24161482594E+03  0.30624739896E+03  0.12500000000E+03 0.  0.
         25    1    1    2    0    0 -0.49198661146E+02  0.16088991819E+03 -0.29798587185E+03  0.36431669446E+03  0.12500000000E+03 0.  0.
</event>
<event>
 5    0  0.5583350E-005  0.3514678E+03  0.7546771E-02  0.1062014E+00
         21   -1    0    0  502  501  0.00000000000E+00  0.00000000000E+00  0.36217193893E+03  0.36217193893E+03  0.00000000000E+00 0. -1.
         21   -1    0    0  501  502 -0.00000000000E+00 -0.00000000000E+00 -0.34107999623E+03  0.34107999623E+03  0.00000000000E+00 0. -1.
         25    1    1    2    0    0  0.88144669359E+02  0.26846874920E+02 -0.18283841091E+03  0.23988564345E+03  0.12500000000E+03 0.  0.
         25    1    1    2    0    0 -0.57408402539E+01 -0.16458405550E+03  0.14160723557E+03  0.25059624446E+03  0.12500000000E+03 0.  0.
         25    1    1    2    0    0 -0.82403829105E+02  0.13773718058E+03  0.62323118045E+02  0.21277004726E+03  0.12500000000E+03 0.  0.
</event>
<event>
 5    0  0.5583350E-005  0.2498921E+03  0.7546771E-02  0.1113373E+00
         21   -1    0    0  502  501  0.00000000000E+00  0.00000000000E+00  0.13141573632E+03  0.13141573632E+03  0.00000000000E+00 0. -1.
         21   -1    0    0  501  502 -0.00000000000E+00 -0.00000000000E+00 -0.47517961666E+03  0.47517961666E+03  0.00000000000E+00 0. -1.
         25    1    1    2    0    0 -0.49353292286E+02 -0.57360209856E+02 -0.18378299110E+03  0.23479167138E+03  0.12500000000E+03 0.  0.
         25    1    1    2    0    0 -0.41360587404E+02  0.56800767390E+02  0.79916186816E+01  0.14361716936E+03  0.12500000000E+03 0.  0.
         25    1    1    2    0    0  0.90713879690E+02  0.55944246653E+00 -0.16797250793E+03  0.22818651223E+03  0.12500000000E+03 0.  0.
</event>
<event>
 5    0  0.5583350E-005  0.2598821E+03  0.7546771E-02  0.1107214E+00
         21   -1    0    0  502  501  0.00000000000E+00  0.00000000000E+00  0.48461500175E+02  0.48461500175E+02  0.00000000000E+00 0.  1.
         21   -1    0    0  501  502 -0.00000000000E+00 -0.00000000000E+00 -0.13936565755E+04  0.13936565755E+04  0.00000000000E+00 0.  1.
         25    1    1    2    0    0 -0.12202923114E+02  0.49494809509E+02 -0.11631338876E+03  0.17819217690E+03  0.12500000000E+03 0.  0.
         25    1    1    2    0    0  0.57961464301E+02  0.76281837411E+01 -0.41746414553E+03  0.43968060377E+03  0.12500000000E+03 0.  0.
         25    1    1    2    0    0 -0.45758541187E+02 -0.57122993250E+02 -0.81141754105E+03  0.82424529503E+03  0.12500000000E+03 0.  0.
</event>
<event>
 5    0  0.5583350E-005  0.2676506E+03  0.7546771E-02  0.1102632E+00
         21   -1    0    0  502  501  0.00000000000E+00  0.00000000000E+00  0.31781698496E+03  0.31781698496E+03  0.00000000000E+00 0. -1.
         21   -1    0    0  501  502 -0.00000000000E+00 -0.00000000000E+00 -0.22540288484E+03  0.22540288484E+03  0.00000000000E+00 0. -1.
         25    1    1    2    0    0 -0.95566103851E+02  0.13687675157E+03  0.33036699545E+02  0.21115053597E+03  0.12500000000E+03 0.  0.
         25    1    1    2    0    0  0.77576384571E+02 -0.11931449310E+03 -0.44767569230E+01  0.18947053877E+03  0.12500000000E+03 0.  0.
         25    1    1    2    0    0  0.17989719280E+02 -0.17562258464E+02  0.63854157506E+02  0.14259879506E+03  0.12500000000E+03 0.  0.
</event>
<event>
 5    0  0.5667731E-005  0.3597083E+03  0.7546771E-02  0.1058699E+00
         21   -1    0    0  502  501  0.00000000000E+00  0.00000000000E+00  0.13575731125E+03  0.13575731125E+03  0.00000000000E+00 0. -1.
         21   -1    0    0  501  502 -0.00000000000E+00 -0.00000000000E+00 -0.95309804788E+03  0.95309804788E+03  0.00000000000E+00 0. -1.
         25    1    1    2    0    0 -0.29091935185E+02 -0.11778841847E+03 -0.34408562997E+02  0.17756520331E+03  0.12500000000E+03 0.  0.
         25    1    1    2    0    0  0.16159029375E+03 -0.54441098281E+02 -0.41976581700E+03  0.47000382694E+03  0.12500000000E+03 0.  0.
         25    1    1    2    0    0 -0.13249835856E+03  0.17222951676E+03 -0.36316635664E+03  0.44128632888E+03  0.12500000000E+03 0.  0.
</event>
<event>
 5    0  0.5583350E-005  0.2589229E+03  0.7546771E-02  0.1107792E+00
         21   -1    0    0  502  501  0.00000000000E+00  0.00000000000E+00  0.65217305129E+02  0.65217305129E+02  0.00000000000E+00 0.  1.
         21   -1    0    0  501  502 -0.00000000000E+00 -0.00000000000E+00 -0.10279643546E+04  0.10279643546E+04  0.00000000000E+00 0.  1.
         25    1    1    2    0    0  0.81022795449E+02 -0.40337908301E+02 -0.17772865633E+03  0.23538121316E+03  0.12500000000E+03 0.  0.
         25    1    1    2    0    0  0.34842798585E+02 -0.34487914811E+01 -0.14771798936E+03  0.19665075427E+03  0.12500000000E+03 0.  0.
         25    1    1    2    0    0 -0.11586559403E+03  0.43786699782E+02 -0.63730040378E+03  0.66114969230E+03  0.12500000000E+03 0.  0.
</event>
<event>
 5    0  0.5583350E-005  0.3187428E+03  0.7546771E-02  0.1076229E+00
         21   -1    0    0  502  501  0.00000000000E+00  0.00000000000E+00  0.87488304780E+02  0.87488304780E+02  0.00000000000E+00 0. -1.
         21   -1    0    0  501  502 -0.00000000000E+00 -0.00000000000E+00 -0.11612634114E+04  0.11612634114E+04  0.00000000000E+00 0. -1.
         25    1    1    2    0    0  0.16369907342E+03 -0.86620954894E+02 -0.19706954595E+03  0.29792949234E+03  0.12500000000E+03 0.  0.
         25    1    1    2    0    0 -0.51946730799E+02 -0.51622249029E+02 -0.43621806615E+03  0.45964608197E+03  0.12500000000E+03 0.  0.
         25    1    1    2    0    0 -0.11175234262E+03  0.13824320392E+03 -0.44048749453E+03  0.49117614188E+03  0.12500000000E+03 0.  0.
</event>
<event>
 5    0  0.5583350E-005  0.4198766E+03  0.7546771E-02  0.1037106E+00
         21   -1    0    0  502  501  0.00000000000E+00  0.00000000000E+00  0.11816786957E+04  0.11816786957E+04  0.00000000000E+00 0. -1.
         21   -1    0    0  501  502 -0.00000000000E+00 -0.00000000000E+00 -0.14919143514E+03  0.14919143514E+03  0.00000000000E+00 0. -1.
         25    1    1    2    0    0 -0.50256414601E+02 -0.94711511703E+02  0.27861905218E+02  0.16702473895E+03  0.12500000000E+03 0.  0.
         25    1    1    2    0    0  0.19701722985E+03  0.14778968858E+02  0.90100441180E+03  0.93084271327E+03  0.12500000000E+03 0.  0.
         25    1    1    2    0    0 -0.14676081525E+03  0.79932542845E+02  0.10362094353E+03  0.23300267860E+03  0.12500000000E+03 0.  0.
</event>
<event>
 5    0  0.5583350E-005  0.4552339E+03  0.7546771E-02  0.1026173E+00
         21   -1    0    0  502  501  0.00000000000E+00  0.00000000000E+00  0.47492538496E+03  0.47492538496E+03  0.00000000000E+00 0. -1.
         21   -1    0    0  501  502 -0.00000000000E+00 -0.00000000000E+00 -0.43635880802E+03  0.43635880802E+03  0.00000000000E+00 0. -1.
         25    1    1    2    0    0  0.19174947156E+03 -0.15998344587E+03  0.24133895927E+03  0.36909626936E+03  0.12500000000E+03 0.  0.
         25    1    1    2    0    0  0.92674673745E+02  0.70767898359E+02 -0.11896149551E+03  0.20826312205E+03  0.12500000000E+03 0.  0.
         25    1    1    2    0    0 -0.28442414531E+03  0.89215547513E+02 -0.83810886811E+02  0.33392480156E+03  0.12500000000E+03 0.  0.
</event>
<event>
 5    0  0.5583350E-005  0.2292978E+03  0.7546771E-02  0.1127135E+00
         21   -1    0    0  502  501  0.00000000000E+00  0.00000000000E+00  0.28795268224E+03  0.28795268224E+03  0.00000000000E+00 0. -1.
         21   -1    0    0  501  502 -0.00000000000E+00 -0.00000000000E+00 -0.18259074964E+03  0.18259074964E+03  0.00000000000E+00 0. -1.
         25    1    1    2    0    0 -0.60191645043E+02 -0.13642847948E+02 -0.34007638432E+02  0.14349453267E+03  0.12500000000E+03 0.  0.
         25    1    1    2    0    0  0.70635644306E+02  0.36669254406E+02  0.13338746363E+03  0.19937713991E+03  0.12500000000E+03 0.  0.
         25    1    1    2    0    0 -0.10443999263E+02 -0.23026406458E+02  0.59821074043E+01  0.12767175930E+03  0.12500000000E+03 0.  0.
</event>
<event>
 5    0  0.5843254E-005  0.3005598E+03  0.7546771E-02  0.1084961E+00
         21   -1    0    0  502  501  0.00000000000E+00  0.00000000000E+00  0.61050851326E+03  0.61050851326E+03  0.00000000000E+00 0.  1.
         21   -1    0    0  501  502 -0.00000000000E+00 -0.00000000000E+00 -0.14796873201E+03  0.14796873201E+03  0.00000000000E+00 0.  1.
         25    1    1    2    0    0  0.47485972289E+02 -0.34376368628E+02 -0.19304131231E+01  0.13807743762E+03  0.12500000000E+03 0.  0.
         25    1    1    2    0    0 -0.13310744963E+03  0.13698142760E+03  0.26211998996E+03  0.34758221156E+03  0.12500000000E+03 0.  0.
         25    1    1    2    0    0  0.85621477345E+02 -0.10260505897E+03  0.20235020442E+03  0.27281759609E+03  0.12500000000E+03 0.  0.
</event>
<event>
 5    0  0.5583350E-005  0.5169803E+03  0.7546771E-02  0.1009439E+00
         21   -1    0    0  502  501  0.00000000000E+00  0.00000000000E+00  0.11633191800E+03  0.11633191800E+03  0.00000000000E+00 0.  1.
         21   -1    0    0  501  502 -0.00000000000E+00 -0.00000000000E+00 -0.22974657227E+04  0.22974657227E+04  0.00000000000E+00 0.  1.
         25    1    1    2    0    0  0.18173406770E+03  0.17340784554E+03 -0.24488569022E+03  0.37241314898E+03  0.12500000000E+03 0.  0.
         25    1    1    2    0    0  0.11390415348E+03  0.72317130299E+02 -0.26925314331E+03  0.32607695211E+03  0.12500000000E+03 0.  0.
         25    1    1    2    0    0 -0.29563822118E+03 -0.24572497584E+03 -0.16669949712E+04  0.17153075396E+04  0.12500000000E+03 0.  0.
</event>
<event>
 5    0  0.5583350E-005  0.3425564E+03  0.7546771E-02  0.1065712E+00
         21   -1    0    0  502  501  0.00000000000E+00  0.00000000000E+00  0.12410823263E+04  0.12410823263E+04  0.00000000000E+00 0. -1.
         21   -1    0    0  501  502 -0.00000000000E+00 -0.00000000000E+00 -0.94550428387E+02  0.94550428387E+02  0.00000000000E+00 0. -1.
         25    1    1    2    0    0 -0.15375194919E+02  0.24632691254E+02  0.19501651338E+03  0.23345150800E+03  0.12500000000E+03 0.  0.
         25    1    1    2    0    0 -0.56351746551E+01  0.11934302452E+01  0.96412397246E+03  0.97221047811E+03  0.12500000000E+03 0.  0.
         25    1    1    2    0    0  0.21010369574E+02 -0.25826121499E+02 -0.12608587976E+02  0.12997076853E+03  0.12500000000E+03 0.  0.
</event>
<event>
 5    0  0.5583350E-005  0.2697436E+03  0.7546771E-02  0.1101426E+00
         21   -1    0    0  502  501  0.00000000000E+00  0.00000000000E+00  0.17035587083E+04  0.17035587083E+04  0.00000000000E+00 0.  1.
         21   -1    0    0  501  502 -0.00000000000E+00 -0.00000000000E+00 -0.42711536615E+02  0.42711536615E+02  0.00000000000E+00 0.  1.
         25    1    1    2    0    0 -0.85253698690E+02  0.12266063620E+03  0.98455650996E+03  0.10036385535E+04  0.12500000000E+03 0.  0.
         25    1    1    2    0    0  0.74221258063E+02 -0.29138558224E+02  0.37187929215E+03  0.40034617352E+03  0.12500000000E+03 0.  0.
         25    1    1    2    0    0  0.11032440626E+02 -0.93522077975E+02  0.30441136955E+03  0.34228551785E+03  0.12500000000E+03 0.  0.
</event>
<event>
 5    0  0.5583350E-005  0.2895155E+03  0.7546771E-02  0.1090602E+00
         21   -1    0    0  502  501  0.00000000000E+00  0.00000000000E+00  0.21847256734E+03  0.21847256734E+03  0.00000000000E+00 0.  1.
         21   -1    0    0  501  502 -0.00000000000E+00 -0.00000000000E+00 -0.38366011416E+03  0.38366011416E+03  0.00000000000E+00 0.  1.
         25    1    1    2    0    0 -0.31970577677E+01 -0.13089937537E+03 -0.22012306097E+03  0.28499829758E+03  0.12500000000E+03 0.  0.
         25    1    1    2    0    0  0.50934011938E+02  0.11348929691E+03  0.18174592553E+02  0.17728341688E+03  0.12500000000E+03 0.  0.
         25    1    1    2    0    0 -0.47736954171E+02  0.17410078460E+02  0.36760921604E+02  0.13985096704E+03  0.12500000000E+03 0.  0.
</event>
<event>
 5    0  0.5583350E-005  0.3689844E+03  0.7546771E-02  0.1055082E+00
         21   -1    0    0  502  501  0.00000000000E+00  0.00000000000E+00  0.54256466248E+03  0.54256466248E+03  0.00000000000E+00 0. -1.
         21   -1    0    0  501  502 -0.00000000000E+00 -0.00000000000E+00 -0.25093690454E+03  0.25093690454E+03  0.00000000000E+00 0. -1.
         25    1    1    2    0    0  0.36763928860E+02  0.12017650634E+03  0.49404437112E+01  0.17732283306E+03  0.12500000000E+03 0.  0.
         25    1    1    2    0    0 -0.13146993519E+03 -0.27094135668E+03  0.19639218841E+03  0.38064216042E+03  0.12500000000E+03 0.  0.
         25    1    1    2    0    0  0.94706006327E+02  0.15076485034E+03  0.90295125817E+02  0.23553657355E+03  0.12500000000E+03 0.  0.
</event>
<event>
 5    0  0.5583350E-005  0.2344660E+03  0.7546771E-02  0.1123535E+00
         21   -1    0    0  502  501  0.00000000000E+00  0.00000000000E+00  0.41829415349E+03  0.41829415349E+03  0.00000000000E+00 0.  1.
         21   -1    0    0  501  502 -0.00000000000E+00 -0.00000000000E+00 -0.13142497813E+03  0.13142497813E+03  0.00000000000E+00 0.  1.
         25    1    1    2    0    0  0.37676390575E+02 -0.39056669629E+02  0.53735150411E+02  0.14648344698E+03  0.12500000000E+03 0.  0.
         25    1    1    2    0    0  0.67098840342E+02  0.46277350138E+02  0.17486886237E+03  0.22988685595E+03  0.12500000000E+03 0.  0.
         25    1    1    2    0    0 -0.10477523092E+03 -0.72206805092E+01  0.58265162574E+02  0.17334882870E+03  0.12500000000E+03 0.  0.
</event>
<event>
 5    0  0.5583350E-005  0.3048460E+03  0.7546771E-02  0.1082843E+00
         21   -1    0    0  502  501  0.00000000000E+00  0.00000000000E+00  0.15135647298E+03  0.15135647298E+03  0.00000000000E+00 0.  1.
         21   -1    0    0  501  502 -0.00000000000E+00 -0.00000000000E+00 -0.61398802726E+03  0.61398802726E+03  0.00000000000E+00 0.  1.
         25    1    1    2    0    0  0.33923052247E+02 -0.87853945406E+01 -0.36531380766E+03  0.38769464105E+03  0.12500000000E+03 0.  0.
         25    1    1    2    0    0 -0.48323718560E+02  0.10108963118E+03  0.36834305968E+02  0.17186058711E+03  0.12500000000E+03 0.  0.
         25    1    1    2    0    0  0.14400666313E+02 -0.92304236637E+02 -0.13415205258E+03  0.20578927208E+03  0.12500000000E+03 0.  0.
</event>
<event>
 5    0  0.5583350E-005  0.2596331E+03  0.7546771E-02  0.1107364E+00
         21   -1    0    0  502  501  0.00000000000E+00  0.00000000000E+00  0.58874951155E+02  0.58874951155E+02  0.00000000000E+00 0. -1.
         21   -1    0    0  501  502 -0.00000000000E+00 -0.00000000000E+00 -0.11449581303E+04  0.11449581303E+04  0.00000000000E+00 0. -1.
         25    1    1    2    0    0 -0.14774470302E+02  0.53149240938E+02 -0.14950519075E+03  0.20253377211E+03  0.12500000000E+03 0.  0.
         25    1    1    2    0    0 -0.20719595036E+00 -0.17490373795E+02 -0.80818126604E+03  0.81797794278E+03  0.12500000000E+03 0.  0.
         25    1    1    2    0    0  0.14981666252E+02 -0.35658867144E+02 -0.12839672240E+03  0.18332136660E+03  0.12500000000E+03 0.  0.
</event>
<event>
 5    0  0.5866816E-005  0.3343972E+03  0.7546771E-02  0.1069208E+00
         21   -1    0    0  502  501  0.00000000000E+00  0.00000000000E+00  0.33865452572E+03  0.33865452572E+03  0.00000000000E+00 0.  1.
         21   -1    0    0  501  502 -0.00000000000E+00 -0.00000000000E+00 -0.33019330296E+03  0.33019330296E+03  0.00000000000E+00 0.  1.
         25    1    1    2    0    0  0.17533861388E+03 -0.10484851367E+03 -0.80170726211E+02  0.25256521074E+03  0.12500000000E+03 0.  0.
         25    1    1    2    0    0 -0.18761413211E+03  0.15631818275E+02 -0.21352126812E+02  0.22698971260E+03  0.12500000000E+03 0.  0.
         25    1    1    2    0    0  0.12275518226E+02  0.89216695399E+02  0.10998407578E+03  0.18929290534E+03  0.12500000000E+03 0.  0.
</event>
<event>
 5    0  0.5583350E-005  0.3673109E+03  0.7546771E-02  0.1055726E+00
         21   -1    0    0  502  501  0.00000000000E+00  0.00000000000E+00  0.18881019583E+04  0.18881019583E+04  0.00000000000E+00 0.  1.
         21   -1    0    0  501  502 -0.00000000000E+00 -0.00000000000E+00 -0.71456559514E+02  0.71456559514E+02  0.00000000000E+00 0.  1.
         25    1    1    2    0    0  0.13019532792E+03  0.31986914604E+02  0.35344497225E+03  0.39814863372E+03  0.12500000000E+03 0.  0.
         25    1    1    2    0    0 -0.79649254085E+02 -0.61461164881E+02  0.95423491906E+02  0.18668722847E+03  0.12500000000E+03 0.  0.
         25    1    1    2    0    0 -0.50546073837E+02  0.29474250278E+02  0.13677769346E+04  0.13747226556E+04  0.12500000000E+03 0.  0.
</event>
<event>
 5    0  0.5583350E-005  0.2257065E+03  0.7546771E-02  0.1129699E+00
         21   -1    0    0  502  501  0.00000000000E+00  0.00000000000E+00  0.10961812395E+04  0.10961812395E+04  0.00000000000E+00 0.  1.
         21   -1    0    0  501  502 -0.00000000000E+00 -0.00000000000E+00 -0.46473530337E+02  0.46473530337E+02  0.00000000000E+00 0.  1.
         25    1    1    2    0    0 -0.59972183821E+02  0.21704718149E+02  0.49136827742E+03  0.51101422845E+03  0.12500000000E+03 0.  0.
         25    1    1    2    0    0 -0.37404327181E+00 -0.62792369355E+02  0.35895215125E+03  0.38524624390E+03  0.12500000000E+03 0.  0.
         25    1    1    2    0    0  0.60346227093E+02  0.41087651206E+02  0.19938728046E+03  0.24639429745E+03  0.12500000000E+03 0.  0.
</event>
<event>
 5    0  0.5583350E-005  0.3128283E+03  0.7546771E-02  0.1078998E+00
         21   -1    0    0  502  501  0.00000000000E+00  0.00000000000E+00  0.22091342107E+03  0.22091342107E+03  0.00000000000E+00 0. -1.
         21   -1    0    0  501  502 -0.00000000000E+00 -0.00000000000E+00 -0.44298586052E+03  0.44298586052E+03  0.00000000000E+00 0. -1.
         25    1    1    2    0    0  0.55209377774E+02  0.15370998534E+03 -0.14515260293E+03  0.25173222504E+03  0.12500000000E+03 0.  0.
         25    1    1    2    0    0  0.23557322589E+02  0.61604020522E+02 -0.54747926762E+01  0.14143894848E+03  0.12500000000E+03 0.  0.
         25    1    1    2    0    0 -0.78766700364E+02 -0.21531400586E+03 -0.71445043847E+02  0.27072810806E+03  0.12500000000E+03 0.  0.
</event>
<event>
 5    0  0.5583350E-005  0.3132805E+03  0.7546771E-02  0.1078784E+00
         21   -1    0    0  502  501  0.00000000000E+00  0.00000000000E+00  0.60135181780E+03  0.60135181780E+03  0.00000000000E+00 0. -1.
         21   -1    0    0  501  502 -0.00000000000E+00 -0.00000000000E+00 -0.16320676990E+03  0.16320676990E+03  0.00000000000E+00 0. -1.
         25    1    1    2    0    0 -0.76452410083E+02  0.40342168361E+02  0.35077040880E+02  0.15597390920E+03  0.12500000000E+03 0.  0.
         25    1    1    2    0    0 -0.14826713091E+03 -0.16381311127E+02  0.13855052800E+03  0.23889901271E+03  0.12500000000E+03 0.  0.
         25    1    1    2    0    0  0.22471954100E+03 -0.23960857234E+02  0.26451747902E+03  0.36968566579E+03  0.12500000000E+03 0.  0.
</event>
<event>
 5    0  0.5583350E-005  0.2209030E+03  0.7546771E-02  0.1133212E+00
         21   -1    0    0  502  501  0.00000000000E+00  0.00000000000E+00  0.23955709360E+02  0.23955709360E+02  0.00000000000E+00 0. -1.
         21   -1    0    0  501  502 -0.00000000000E+00 -0.00000000000E+00 -0.20370150307E+04  0.20370150307E+04  0.00000000000E+00 0. -1.
         25    1    1    2    0    0  0.38677926074E+02  0.27245668306E+02 -0.58677895756E+03  0.60180798719E+03  0.12500000000E+03 0.  0.
         25    1    1    2    0    0 -0.41716160454E+02  0.61635339397E+02 -0.87167080849E+03  0.88372741922E+03  0.12500000000E+03 0.  0.
         25    1    1    2    0    0  0.30382343806E+01 -0.88881007704E+02 -0.55460955530E+03  0.57543533366E+03  0.12500000000E+03 0.  0.
</event>
<event>
 5    0  0.5583350E-005  0.3401632E+03  0.7546771E-02  0.1066726E+00
         21   -1    0    0  502  501  0.00000000000E+00  0.00000000000E+00  0.29364116666E+03  0.29364116666E+03  0.00000000000E+00 0.  1.
         21   -1    0    0  501  502 -0.00000000000E+00 -0.00000000000E+00 -0.39405590683E+03  0.39405590683E+03  0.00000000000E+00 0.  1.
         25    1    1    2    0    0  0.11418470448E+03 -0.10014798770E+02  0.14854180021E+03  0.22545090229E+03  0.12500000000E+03 0.  0.
         25    1    1    2    0    0 -0.15971111513E+03 -0.22726759412E+02 -0.33341628336E+02  0.20678687113E+03  0.12500000000E+03 0.  0.
         25    1    1    2    0    0  0.45526410658E+02  0.32741558182E+02 -0.21561491205E+03  0.25545930008E+03  0.12500000000E+03 0.  0.
</event>
<event>
 5    0  0.5583350E-005  0.3187346E+03  0.7546771E-02  0.1076233E+00
         21   -1    0    0  502  501  0.00000000000E+00  0.00000000000E+00  0.48984250263E+03  0.48984250263E+03  0.00000000000E+00 0. -1.
         21   -1    0    0  501  502 -0.00000000000E+00 -0.00000000000E+00 -0.20739674249E+03  0.20739674249E+03  0.00000000000E+00 0. -1.
         25    1    1    2    0    0  0.19335398602E+01  0.13228228451E+03  0.19483995475E+03  0.26662698539E+03  0.12500000000E+03 0.  0.
         25    1    1    2    0    0 -0.12257550864E+03  0.36741736295E+02  0.28653771538E+02  0.18116497765E+03  0.12500000000E+03 0.  0.
         25    1    1    2    0    0  0.12064196878E+03 -0.16902402081E+03  0.58952033860E+02  0.24944728208E+03  0.12500000000E+03 0.  0.
</event>
<event>
 5    0  0.5583350E-005  0.2447314E+03  0.7546771E-02  0.1116680E+00
         21   -1    0    0  502  501  0.00000000000E+00  0.00000000000E+00  0.43355821527E+03  0.43355821527E+03  0.00000000000E+00 0. -1.
         21   -1    0    0  501  502 -0.00000000000E+00 -0.00000000000E+00 -0.13814394387E+03  0.13814394387E+03  0.00000000000E+00 0. -1.
         25    1    1    2    0    0  0.73939437398E+02 -0.98222057647E+01  0.22977159622E+03  0.27199908558E+03  0.12500000000E+03 0.  0.
         25    1    1    2    0    0 -0.52966225512E+02  0.69222356280E+02  0.31133015198E+02  0.15553591318E+03  0.12500000000E+03 0.  0.
         25    1    1    2    0    0 -0.20973211886E+02 -0.59400150515E+02  0.34509659978E+02  0.14416716037E+03  0.12500000000E+03 0.  0.
</event>
<event>
 5    0  0.5583350E-005  0.2290344E+03  0.7546771E-02  0.1127321E+00
         21   -1    0    0  502  501  0.00000000000E+00  0.00000000000E+00  0.18823336438E+03  0.18823336438E+03  0.00000000000E+00 0.  1.
         21   -1    0    0  501  502 -0.00000000000E+00 -0.00000000000E+00 -0.27867930794E+03  0.27867930794E+03  0.00000000000E+00 0.  1.
         25    1    1    2    0    0  0.57223739021E+02  0.98009968325E+02 -0.76354443641E+02  0.18529843837E+03  0.12500000000E+03 0.  0.
         25    1    1    2    0    0 -0.53588428953E+02 -0.51069409000E+02 -0.25728823177E+02  0.14753567906E+03  0.12500000000E+03 0.  0.
         25    1    1    2    0    0 -0.36353100684E+01 -0.46940559325E+02  0.11637323254E+02  0.13407855489E+03  0.12500000000E+03 0.  0.
</event>
<event>
 5    0  0.5583350E-005  0.2935444E+03  0.7546771E-02  0.1088513E+00
         21   -1    0    0  502  501  0.00000000000E+00  0.00000000000E+00  0.98051456279E+02  0.98051456279E+02  0.00000000000E+00 0.  1.
         21   -1    0    0  501  502 -0.00000000000E+00 -0.00000000000E+00 -0.87880737641E+03  0.87880737641E+03  0.00000000000E+00 0.  1.
         25    1    1    2    0    0 -0.32777724836E+02  0.45699872508E+02 -0.14886594768E+03  0.20235841463E+03  0.12500000000E+03 0.  0.
         25    1    1    2    0    0 -0.14678243411E+03  0.63900058370E+02 -0.29142332806E+03  0.35521944846E+03  0.12500000000E+03 0.  0.
         25    1    1    2    0    0  0.17956015895E+03 -0.10959993088E+03 -0.34046664439E+03  0.41928096960E+03  0.12500000000E+03 0.  0.
</event>
<event>
 5    0  0.5583350E-005  0.3032182E+03  0.7546771E-02  0.1083643E+00
         21   -1    0    0  502  501  0.00000000000E+00  0.00000000000E+00  0.12756691774E+03  0.12756691774E+03  0.00000000000E+00 0.  1.
         21   -1    0    0  501  502 -0.00000000000E+00 -0.00000000000E+00 -0.72072962028E+03  0.72072962028E+03  0.00000000000E+00 0.  1.
         25    1    1    2    0    0  0.14632126433E+03  0.88003401795E+02 -0.31334819422E+03  0.37810924604E+03  0.12500000000E+03 0.  0.
         25    1    1    2    0    0 -0.13943649240E+03 -0.13893262093E+03 -0.12459720066E+03  0.26437524654E+03  0.12500000000E+03 0.  0.
         25    1    1    2    0    0 -0.68847719282E+01  0.50929219139E+02 -0.15521730767E+03  0.20581204544E+03  0.12500000000E+03 0.  0.
</event>
<event>
 5    0  0.5583350E-005  0.3159463E+03  0.7546771E-02  0.1077530E+00
         21   -1    0    0  502  501  0.00000000000E+00  0.00000000000E+00  0.32372884094E+03  0.32372884094E+03  0.00000000000E+00 0.  1.
         21   -1    0    0  501  502 -0.00000000000E+00 -0.00000000000E+00 -0.30835088449E+03  0.30835088449E+03  0.00000000000E+00 0.  1.
         25    1    1    2    0    0 -0.87228520035E+02 -0.51508132920E+02 -0.73046266005E+02  0.17669934760E+03  0.12500000000E+03 0.  0.
         25    1    1    2    0    0  0.34646937567E+02  0.20456168176E+03  0.48965248368E+02  0.24712039065E+03  0.12500000000E+03 0.  0.
         25    1    1    2    0    0  0.52581582467E+02 -0.15305354884E+03  0.39458974083E+02  0.20825998718E+03  0.12500000000E+03 0.  0.
</event>
<event>
 5    0  0.5583350E-005  0.3628256E+03  0.7546771E-02  0.1057471E+00
         21   -1    0    0  502  501  0.00000000000E+00  0.00000000000E+00  0.16161972761E+03  0.16161972761E+03  0.00000000000E+00 0.  1.
         21   -1    0    0  501  502 -0.00000000000E+00 -0.00000000000E+00 -0.81451946901E+03  0.81451946901E+03  0.00000000000E+00 0.  1.
         25    1    1    2    0    0 -0.17908678343E+03 -0.54484530506E+02 -0.40323020654E+03  0.46180108221E+03  0.12500000000E+03 0.  0.
         25    1    1    2    0    0  0.26362161155E+03  0.16752326231E+02 -0.14016334203E+03  0.32411071714E+03  0.12500000000E+03 0.  0.
         25    1    1    2    0    0 -0.84534828128E+02  0.37732204274E+02 -0.10950619282E+03  0.19022739727E+03  0.12500000000E+03 0.  0.
</event>
<event>
 5    0  0.5583350E-005  0.2113364E+03  0.7546771E-02  0.1140512E+00
         21   -1    0    0  502  501  0.00000000000E+00  0.00000000000E+00  0.98392204803E+02  0.98392204803E+02  0.00000000000E+00 0.  1.
         21   -1    0    0  501  502 -0.00000000000E+00 -0.00000000000E+00 -0.45392899714E+03  0.45392899714E+03  0.00000000000E+00 0.  1.
         25    1    1    2    0    0  0.29649317733E+02  0.26709850303E+02 -0.16511429803E+03  0.21090336545E+03  0.12500000000E+03 0.  0.
         25    1    1    2    0    0 -0.27192984648E+02 -0.28313680037E+02 -0.17015254064E+03  0.21475104186E+03  0.12500000000E+03 0.  0.
         25    1    1    2    0    0 -0.24563330847E+01  0.16038297338E+01 -0.20269953669E+02  0.12666679464E+03  0.12500000000E+03 0.  0.
</event>
<event>
 5    0  0.5583350E-005  0.2883513E+03  0.7546771E-02  0.1091213E+00
         21   -1    0    0  502  501  0.00000000000E+00  0.00000000000E+00  0.33662757759E+03  0.33662757759E+03  0.00000000000E+00 0. -1.
         21   -1    0    0  501  502 -0.00000000000E+00 -0.00000000000E+00 -0.24699842664E+03  0.24699842664E+03  0.00000000000E+00 0. -1.
         25    1    1    2    0    0  0.36362005636E+01 -0.24181040988E+02  0.11064259258E+03  0.16871493114E+03  0.12500000000E+03 0.  0.
         25    1    1    2    0    0 -0.22880235970E+02  0.13942027719E+03  0.91973886359E+02  0.20987070940E+03  0.12500000000E+03 0.  0.
         25    1    1    2    0    0  0.19244035406E+02 -0.11523923621E+03 -0.11298732798E+03  0.20504036369E+03  0.12500000000E+03 0.  0.
</event>
<event>
 5    0  0.5583350E-005  0.3006288E+03  0.7546771E-02  0.1084927E+00
         21   -1    0    0  502  501  0.00000000000E+00  0.00000000000E+00  0.15768168399E+03  0.15768168399E+03  0.00000000000E+00 0. -1.
         21   -1    0    0  501  502 -0.00000000000E+00 -0.00000000000E+00 -0.57316546395E+03  0.57316546395E+03  0.00000000000E+00 0. -1.
         25    1    1    2    0    0 -0.15556407217E+03 -0.21330374654E+02 -0.22293694466E+03  0.29996840955E+03  0.12500000000E+03 0.  0.
         25    1    1    2    0    0  0.17114179368E+03 -0.37508157636E+02 -0.19700744963E+03  0.29177613104E+03  0.12500000000E+03 0.  0.
         25    1    1    2    0    0 -0.15577721511E+02  0.58838532290E+02  0.44606143400E+01  0.13910260734E+03  0.12500000000E+03 0.  0.
</event>
<event>
 5    0  0.5583350E-005  0.2537618E+03  0.7546771E-02  0.1110950E+00
         21   -1    0    0  502  501  0.00000000000E+00  0.00000000000E+00  0.41881902934E+03  0.41881902934E+03  0.00000000000E+00 0.  1.
         21   -1    0    0  501  502 -0.00000000000E+00 -0.00000000000E+00 -0.15375389039E+03  0.15375389039E+03  0.00000000000E+00 0.  1.
         25    1    1    2    0    0 -0.45533620356E+02 -0.60679040902E+01  0.16265282676E+03  0.21021672649E+03  0.12500000000E+03 0.  0.
         25    1    1    2    0    0 -0.80738861513E+02  0.59505252821E+02  0.29248430040E+02  0.16291135483E+03  0.12500000000E+03 0.  0.
         25    1    1    2    0    0  0.12627248187E+03 -0.53437348731E+02  0.73163882147E+02  0.19944483841E+03  0.12500000000E+03 0.  0.
</event>
<event>
 5    0  0.5583350E-005  0.3164331E+03  0.7546771E-02  0.1077303E+00
         21   -1    0    0  502  501  0.00000000000E+00  0.00000000000E+00  0.60438788188E+03  0.60438788188E+03  0.00000000000E+00 0.  1.
         21   -1    0    0  501  502 -0.00000000000E+00 -0.00000000000E+00 -0.16567162137E+03  0.16567162137E+03  0.00000000000E+00 0.  1.
         25    1    1    2    0    0  0.10569853976E+03 -0.20383361359E+02  0.21080786106E+03  0.26768006465E+03  0.12500000000E+03 0.  0.
         25    1    1    2    0    0  0.53680612363E+02 -0.90476348040E+02 -0.18817749064E+02  0.16445876498E+03  0.12500000000E+03 0.  0.
         25    1    1    2    0    0 -0.15937915213E+03  0.11085970940E+03  0.24672614851E+03  0.33792067362E+03  0.12500000000E+03 0.  0.
</event>
<event>
 5    0  0.5583350E-005  0.4476711E+03  0.7546771E-02  0.1028419E+00
         21   -1    0    0  502  501  0.00000000000E+00  0.00000000000E+00  0.23567333608E+03  0.23567333608E+03  0.00000000000E+00 0. -1.
         21   -1    0    0  501  502 -0.00000000000E+00 -0.00000000000E+00 -0.85036930619E+03  0.85036930619E+03  0.00000000000E+00 0.  1.
         25    1    1    2    0    0 -0.65170450194E+02 -0.38124245186E+02 -0.34506728238E+03  0.37469597679E+03  0.12500000000E+03 0.  0.
         25    1    1    2    0    0 -0.20226579268E+03  0.18051980916E+03 -0.19724991652E+02  0.29918711149E+03  0.12500000000E+03 0.  0.
         25    1    1    2    0    0  0.26743624287E+03 -0.14239556397E+03 -0.24990369607E+03  0.41215955400E+03  0.12500000000E+03 0.  0.
</event>
<event>
 5    0  0.5583350E-005  0.3188153E+03  0.7546771E-02  0.1076196E+00
         21   -1    0    0  502  501  0.00000000000E+00  0.00000000000E+00  0.98107825559E+03  0.98107825559E+03  0.00000000000E+00 0. -1.
         21   -1    0    0  501  502 -0.00000000000E+00 -0.00000000000E+00 -0.10360352406E+03  0.10360352406E+03  0.00000000000E+00 0. -1.
         25    1    1    2    0    0  0.84065028718E+01 -0.11671868490E+03  0.11445145299E+03  0.20595644148E+03  0.12500000000E+03 0.  0.
         25    1    1    2    0    0 -0.10421924795E+03 -0.78001199207E+02  0.25597056030E+03  0.31319605116E+03  0.12500000000E+03 0.  0.
         25    1    1    2    0    0  0.95812745080E+02  0.19471988411E+03  0.50705271824E+03  0.56552928701E+03  0.12500000000E+03 0.  0.
</event>
<event>
 5    0  0.5583350E-005  0.3395782E+03  0.7546771E-02  0.1066976E+00
         21   -1    0    0  502  501  0.00000000000E+00  0.00000000000E+00  0.37302367087E+03  0.37302367087E+03  0.00000000000E+00 0. -1.
         21   -1    0    0  501  502 -0.00000000000E+00 -0.00000000000E+00 -0.30913152631E+03  0.30913152631E+03  0.00000000000E+00 0. -1.
         25    1    1    2    0    0 -0.17811293629E+03  0.40068943468E+01 -0.74020754403E+01  0.21776148419E+03  0.12500000000E+03 0.  0.
         25    1    1    2    0    0 -0.85107293567E+02 -0.77133592319E+01  0.83128239772E+02  0.17273694329E+03  0.12500000000E+03 0.  0.
         25    1    1    2    0    0  0.26322022986E+03  0.37064648851E+01 -0.11834019776E+02  0.29165676970E+03  0.12500000000E+03 0.  0.
</event>
<event>
 5    0  0.5583350E-005  0.2793907E+03  0.7546771E-02  0.1096022E+00
         21   -1    0    0  502  501  0.00000000000E+00  0.00000000000E+00  0.22922743623E+04  0.22922743623E+04  0.00000000000E+00 0.  1.
         21   -1    0    0  501  502 -0.00000000000E+00 -0.00000000000E+00 -0.34053150874E+02  0.34053150874E+02  0.00000000000E+00 0.  1.
         25    1    1    2    0    0  0.98853859697E+02 -0.62975819992E+02  0.90838605231E+03  0.92440697721E+03  0.12500000000E+03 0.  0.
         25    1    1    2    0    0 -0.17017294759E+03  0.83813489894E+02  0.93967442453E+03  0.96674534253E+03  0.12500000000E+03 0.  0.
         25    1    1    2    0    0  0.71319087896E+02 -0.20837669902E+02  0.41016073454E+03  0.43517519339E+03  0.12500000000E+03 0.  0.
</event>
<event>
 5    0  0.5909574E-005  0.3348378E+03  0.7546771E-02  0.1069016E+00
         21   -1    0    0  502  501  0.00000000000E+00  0.00000000000E+00  0.54668482504E+03  0.54668482504E+03  0.00000000000E+00 0.  1.
         21   -1    0    0  501  502 -0.00000000000E+00 -0.00000000000E+00 -0.20508411066E+03  0.20508411066E+03  0.00000000000E+00 0.  1.
         25    1    1    2    0    0 -0.14466727584E+03  0.22126030821E+02  0.23158018279E+03  0.30111885195E+03  0.12500000000E+03 0.  0.
         25    1    1    2    0    0  0.22284108257E+03 -0.34910760572E+02  0.14871755145E+03  0.29768913214E+03  0.12500000000E+03 0.  0.
         25    1    1    2    0    0 -0.78173806728E+02  0.12784729752E+02 -0.38697019856E+02  0.15296095161E+03  0.12500000000E+03 0.  0.
</event>
<event>
 5    0  0.5583350E-005  0.4818975E+03  0.7546771E-02  0.1018615E+00
         21   -1    0    0  502  501  0.00000000000E+00  0.00000000000E+00  0.54921352592E+03  0.54921352592E+03  0.00000000000E+00 0.  1.
         21   -1    0    0  501  502 -0.00000000000E+00 -0.00000000000E+00 -0.42283222478E+03  0.42283222478E+03  0.00000000000E+00 0.  1.
         25    1    1    2    0    0 -0.35810584409E+03 -0.18210360569E+03  0.51495200089E+02  0.42388474189E+03  0.12500000000E+03 0.  0.
         25    1    1    2    0    0  0.12996630594E+02  0.71789539002E+02  0.78960901614E+02  0.16487108388E+03  0.12500000000E+03 0.  0.
         25    1    1    2    0    0  0.34510921350E+03  0.11031406668E+03 -0.40748005659E+01  0.38328992493E+03  0.12500000000E+03 0.  0.
</event>
<event>
 5    0  0.5583350E-005  0.3100069E+03  0.7546771E-02  0.1080343E+00
         21   -1    0    0  502  501  0.00000000000E+00  0.00000000000E+00  0.11802475762E+03  0.11802475762E+03  0.00000000000E+00 0. -1.
         21   -1    0    0  501  502 -0.00000000000E+00 -0.00000000000E+00 -0.81427239089E+03  0.81427239089E+03  0.00000000000E+00 0. -1.
         25    1    1    2    0    0  0.35176315008E+00 -0.63476926371E+02 -0.55054720766E+03  0.56811677654E+03  0.12500000000E+03 0.  0.
         25    1    1    2    0    0  0.11335825730E+02  0.13583745232E+03 -0.10908433068E+03  0.21472006334E+03  0.12500000000E+03 0.  0.
         25    1    1    2    0    0 -0.11687588880E+02 -0.72360525953E+02 -0.36616094925E+02  0.14946030864E+03  0.12500000000E+03 0.  0.
</event>
<event>
 5    0  0.6615504E-005  0.4957570E+03  0.7546771E-02  0.1014892E+00
         21   -1    0    0  502  501  0.00000000000E+00  0.00000000000E+00  0.76053710222E+03  0.76053710222E+03  0.00000000000E+00 0. -1.
         21   -1    0    0  501  502 -0.00000000000E+00 -0.00000000000E+00 -0.32315975668E+03  0.32315975668E+03  0.00000000000E+00 0. -1.
         25    1    1    2    0    0 -0.13062014212E+03  0.54575533893E+02  0.47350671664E+03  0.50977810971E+03  0.12500000000E+03 0.  0.
         25    1    1    2    0    0  0.10307939301E+03 -0.27159608506E+03 -0.56040510690E+02  0.32117804023E+03  0.12500000000E+03 0.  0.
         25    1    1    2    0    0  0.27540749113E+02  0.21702055117E+03  0.19911139582E+02  0.25274070897E+03  0.12500000000E+03 0.  0.
</event>
<event>
 5    0  0.5583350E-005  0.3330066E+03  0.7546771E-02  0.1069814E+00
         21   -1    0    0  502  501  0.00000000000E+00  0.00000000000E+00  0.35723164686E+03  0.35723164686E+03  0.00000000000E+00 0. -1.
         21   -1    0    0  501  502 -0.00000000000E+00 -0.00000000000E+00 -0.31042428151E+03  0.31042428151E+03  0.00000000000E+00 0. -1.
         25    1    1    2    0    0 -0.85545052578E+02  0.69442952880E+02  0.13798566417E+01  0.16663488149E+03  0.12500000000E+03 0.  0.
         25    1    1    2    0    0  0.10337351230E+03  0.51760986475E+01  0.21976654544E+03  0.27319445371E+03  0.12500000000E+03 0.  0.
         25    1    1    2    0    0 -0.17828459721E+02 -0.74619051528E+02 -0.17433903674E+03  0.22782659317E+03  0.12500000000E+03 0.  0.
</event>
<event>
 5    0  0.5583350E-005  0.3933876E+03  0.7546771E-02  0.1046094E+00
         21   -1    0    0  502  501  0.00000000000E+00  0.00000000000E+00  0.21941812385E+03  0.21941812385E+03  0.00000000000E+00 0. -1.
         21   -1    0    0  501  502 -0.00000000000E+00 -0.00000000000E+00 -0.70529176454E+03  0.70529176454E+03  0.00000000000E+00 0. -1.
         25    1    1    2    0    0  0.13167826669E+03 -0.14727835328E+03  0.64994846903E+02  0.24265079721E+03  0.12500000000E+03 0.  0.
         25    1    1    2    0    0 -0.11030068091E+03  0.30965092743E+02 -0.45390934691E+03  0.48454491267E+03  0.12500000000E+03 0.  0.
         25    1    1    2    0    0 -0.21377585772E+02  0.11631326054E+03 -0.96959140683E+02  0.19751417851E+03  0.12500000000E+03 0.  0.
</event>
<event>
 5    0  0.5583350E-005  0.3009103E+03  0.7546771E-02  0.1084786E+00
         21   -1    0    0  502  501  0.00000000000E+00  0.00000000000E+00  0.76605378610E+03  0.76605378610E+03  0.00000000000E+00 0.  1.
         21   -1    0    0  501  502 -0.00000000000E+00 -0.00000000000E+00 -0.11819930947E+03  0.11819930947E+03  0.00000000000E+00 0.  1.
         25    1    1    2    0    0 -0.94222808840E+02  0.44517285249E+02  0.32753328176E+03  0.36573593896E+03  0.12500000000E+03 0.  0.
         25    1    1    2    0    0 -0.85275792123E+02  0.25448978629E+02  0.21924488569E+03  0.26760592508E+03  0.12500000000E+03 0.  0.
         25    1    1    2    0    0  0.17949860096E+03 -0.69966263878E+02  0.10107630919E+03  0.25091123153E+03  0.12500000000E+03 0.  0.
</event>
<event>
 5    0  0.5583350E-005  0.2944601E+03  0.7546771E-02  0.1088043E+00
         21   -1    0    0  502  501  0.00000000000E+00  0.00000000000E+00  0.15843475109E+03  0.15843475109E+03  0.00000000000E+00 0. -1.
         21   -1    0    0  501  502 -0.00000000000E+00 -0.00000000000E+00 -0.54727094977E+03  0.54727094977E+03  0.00000000000E+00 0. -1.
         25    1    1    2    0    0 -0.21964882972E+02 -0.72158252166E+02 -0.11462177391E+02  0.14644333699E+03  0.12500000000E+03 0.  0.
         25    1    1    2    0    0  0.50700546427E+02  0.15795160587E+03 -0.76915761071E+02  0.22149557446E+03  0.12500000000E+03 0.  0.
         25    1    1    2    0    0 -0.28735663456E+02 -0.85793353702E+02 -0.30045826022E+03  0.33776678941E+03  0.12500000000E+03 0.  0.
</event>
<event>
 5    0  0.5583350E-005  0.3809652E+03  0.7546771E-02  0.1050578E+00
         21   -1    0    0  502  501  0.00000000000E+00  0.00000000000E+00  0.58702772644E+03  0.58702772644E+03  0.00000000000E+00 0.  1.
         21   -1    0    0  501  502 -0.00000000000E+00 -0.00000000000E+00 -0.24723622148E+03  0.24723622148E+03  0.00000000000E+00 0.  1.
         25    1    1    2    0    0 -0.22930814603E+03  0.18715647123E+03  0.15600253169E+03  0.35717161205E+03  0.12500000000E+03 0.  0.
         25    1    1    2    0    0 -0.95211750550E+01 -0.79815227610E+02  0.81133229305E+02  0.16931841078E+03  0.12500000000E+03 0.  0.
         25    1    1    2    0    0  0.23882932109E+03 -0.10734124362E+03  0.10265574395E+03  0.30777392508E+03  0.12500000000E+03 0.  0.
</event>
<event>
 5    0  0.5583350E-005  0.2757988E+03  0.7546771E-02  0.1098006E+00
         21   -1    0    0  502  501  0.00000000000E+00  0.00000000000E+00  0.92129693330E+02  0.92129693330E+02  0.00000000000E+00 0.  1.
         21   -1    0    0  501  502 -0.00000000000E+00 -0.00000000000E+00 -0.82562913237E+03  0.82562913237E+03  0.00000000000E+00 0.  1.
         25    1    1    2    0    0  0.54364608159E+01  0.31902139855E+01 -0.92789966325E+01  0.12550232010E+03  0.12500000000E+03 0.  0.
         25    1    1    2    0    0 -0.40561147155E+02 -0.32807601325E+01 -0.59397213034E+03  0.60834518299E+03  0.12500000000E+03 0.  0.
         25    1    1    2    0    0  0.35124686339E+02  0.90546147025E-01 -0.13024831207E+03  0.18391132262E+03  0.12500000000E+03 0.  0.
</event>
<event>
 5    0  0.5583350E-005  0.5359776E+03  0.7546771E-02  0.1004793E+00
         21   -1    0    0  502  501  0.00000000000E+00  0.00000000000E+00  0.79573829368E+03  0.79573829368E+03  0.00000000000E+00 0.  1.
         21   -1    0    0  501  502 -0.00000000000E+00 -0.00000000000E+00 -0.36101311267E+03  0.36101311267E+03  0.00000000000E+00 0.  1.
         25    1    1    2    0    0 -0.11360497743E+03  0.38180982357E+03  0.57980211371E+02  0.42151101668E+03  0.12500000000E+03 0.  0.
         25    1    1    2    0    0  0.27224187291E+03 -0.21413389639E+03  0.23633394521E+03  0.43754736499E+03  0.12500000000E+03 0.  0.
         25    1    1    2    0    0 -0.15863689548E+03 -0.16767592718E+03  0.14041102442E+03  0.29769302468E+03  0.12500000000E+03 0.  0.
</event>
<event>
 5    0  0.5583350E-005  0.3237132E+03  0.7546771E-02  0.1073953E+00
         21   -1    0    0  502  501  0.00000000000E+00  0.00000000000E+00  0.11054113580E+04  0.11054113580E+04  0.00000000000E+00 0.  1.
         21   -1    0    0  501  502 -0.00000000000E+00 -0.00000000000E+00 -0.94797521915E+02  0.94797521915E+02  0.00000000000E+00 0.  1.
         25    1    1    2    0    0 -0.76634596468E+02  0.67935170751E+02  0.73522891090E+03  0.75277792225E+03  0.12500000000E+03 0.  0.
         25    1    1    2    0    0  0.62814881090E+02 -0.14511300323E+03  0.12739511697E+03  0.23844917450E+03  0.12500000000E+03 0.  0.
         25    1    1    2    0    0  0.13819715378E+02  0.77177832479E+02  0.14798980821E+03  0.20898178316E+03  0.12500000000E+03 0.  0.
</event>
<event>
 5    0  0.5583350E-005  0.3339711E+03  0.7546771E-02  0.1069393E+00
         21   -1    0    0  502  501  0.00000000000E+00  0.00000000000E+00  0.16114598130E+03  0.16114598130E+03  0.00000000000E+00 0. -1.
         21   -1    0    0  501  502 -0.00000000000E+00 -0.00000000000E+00 -0.69214679445E+03  0.69214679445E+03  0.00000000000E+00 0. -1.
         25    1    1    2    0    0  0.13603244907E+03  0.30068820505E+02 -0.24174359124E+02  0.18872827241E+03  0.12500000000E+03 0.  0.
         25    1    1    2    0    0  0.96649433234E+02 -0.46809942930E+02 -0.18073531363E+03  0.24458646180E+03  0.12500000000E+03 0.  0.
         25    1    1    2    0    0 -0.23268188230E+03  0.16741122425E+02 -0.32609114040E+03  0.41997804155E+03  0.12500000000E+03 0.  0.
</event>
<event>
 5    0  0.5583350E-005  0.2439237E+03  0.7546771E-02  0.1117206E+00
         21   -1    0    0  502  501  0.00000000000E+00  0.00000000000E+00  0.16699833174E+02  0.16699833174E+02  0.00000000000E+00 0. -1.
         21   -1    0    0  501  502 -0.00000000000E+00 -0.00000000000E+00 -0.35628351549E+04  0.35628351549E+04  0.00000000000E+00 0. -1.
         25    1    1    2    0    0 -0.39425609480E+01  0.17839606089E+02 -0.18545617523E+04  0.18588593514E+04  0.12500000000E+03 0.  0.
         25    1    1    2    0    0 -0.74291084277E+02  0.47505045876E+02 -0.76009294623E+03  0.77533359368E+03  0.12500000000E+03 0.  0.
         25    1    1    2    0    0  0.78233645225E+02 -0.65344651966E+02 -0.93148062322E+03  0.94534204298E+03  0.12500000000E+03 0.  0.
</event>
<event>
 5    0  0.5583350E-005  0.5002563E+03  0.7546771E-02  0.1013712E+00
         21   -1    0    0  502  501  0.00000000000E+00  0.00000000000E+00  0.25300527262E+03  0.25300527262E+03  0.00000000000E+00 0.  1.
         21   -1    0    0  501  502 -0.00000000000E+00 -0.00000000000E+00 -0.98913499946E+03  0.98913499946E+03  0.00000000000E+00 0.  1.
         25    1    1    2    0    0  0.87276663191E+02  0.35692650713E+02 -0.22836642384E+02  0.15823303539E+03  0.12500000000E+03 0.  0.
         25    1    1    2    0    0 -0.45632973415E+02  0.11089220004E+02  0.15491058775E+03  0.20451804141E+03  0.12500000000E+03 0.  0.
         25    1    1    2    0    0 -0.41643689776E+02 -0.46781870717E+02 -0.86820367221E+03  0.87938919528E+03  0.12500000000E+03 0.  0.
</event>
<event>
 5    0  0.5583350E-005  0.3076643E+03  0.7546771E-02  0.1081471E+00
         21   -1    0    0  502  501  0.00000000000E+00  0.00000000000E+00  0.13491428452E+04  0.13491428452E+04  0.00000000000E+00 0. -1.
         21   -1    0    0  501  502 -0.00000000000E+00 -0.00000000000E+00 -0.70161084963E+02  0.70161084963E+02  0.00000000000E+00 0. -1.
         25    1    1    2    0    0 -0.49321497327E+02 -0.42365438029E+02  0.43530165311E+03  0.45753685058E+03  0.12500000000E+03 0.  0.
         25    1    1    2    0    0  0.64663993311E+02  0.17237343301E+03  0.68776679142E+03  0.72287079884E+03  0.12500000000E+03 0.  0.
         25    1    1    2    0    0 -0.15342495984E+02 -0.13000799498E+03  0.15591331574E+03  0.23889628078E+03  0.12500000000E+03 0.  0.
</event>
<event>
 5    0  0.5583350E-005  0.3081781E+03  0.7546771E-02  0.1081222E+00
         21   -1    0    0  502  501  0.00000000000E+00  0.00000000000E+00  0.12223361540E+04  0.12223361540E+04  0.00000000000E+00 0.  1.
         21   -1    0    0  501  502 -0.00000000000E+00 -0.00000000000E+00 -0.77698564697E+02  0.77698564697E+02  0.00000000000E+00 0.  1.
         25    1    1    2    0    0  0.10433074349E+03 -0.17538324659E+03  0.49750592671E+03  0.55207004477E+03  0.12500000000E+03 0.  0.
         25    1    1    2    0    0 -0.13914958655E+03  0.10348797750E+03  0.28213618881E+03  0.35397485499E+03  0.12500000000E+03 0.  0.
         25    1    1    2    0    0  0.34818843059E+02  0.71895269091E+02  0.36499547383E+03  0.39398981899E+03  0.12500000000E+03 0.  0.
</event>
<event>
 5    0  0.6581859E-005  0.5425101E+03  0.7546771E-02  0.1003243E+00
         21   -1    0    0  502  501  0.00000000000E+00  0.00000000000E+00  0.18661103367E+03  0.18661103367E+03  0.00000000000E+00 0.  1.
         21   -1    0    0  501  502 -0.00000000000E+00 -0.00000000000E+00 -0.15771693796E+04  0.15771693796E+04  0.00000000000E+00 0.  1.
         25    1    1    2    0    0  0.31304904456E+02  0.34306758276E+03 -0.76093762897E+03  0.84458654889E+03  0.12500000000E+03 0.  0.
         25    1    1    2    0    0 -0.69185605921E+02 -0.18247161568E+03  0.24556285752E+02  0.23304623954E+03  0.12500000000E+03 0.  0.
         25    1    1    2    0    0  0.37880701465E+02 -0.16059596708E+03 -0.65417700267E+03  0.68614762480E+03  0.12500000000E+03 0.  0.
</event>
<event>
 5    0  0.5583350E-005  0.2744409E+03  0.7546771E-02  0.1098765E+00
         21   -1    0    0  502  501  0.00000000000E+00  0.00000000000E+00  0.93617306644E+02  0.93617306644E+02  0.00000000000E+00 0.  1.
         21   -1    0    0  501  502 -0.00000000000E+00 -0.00000000000E+00 -0.80452869620E+03  0.80452869620E+03  0.00000000000E+00 0.  1.
         25    1    1    2    0    0  0.64680282004E+02  0.78907960908E+02 -0.29800852507E+03  0.33888653881E+03  0.12500000000E+03 0.  0.
         25    1    1    2    0    0  0.75965388329E+02  0.39609126964E+02 -0.20417723027E+03  0.25426947226E+03  0.12500000000E+03 0.  0.
         25    1    1    2    0    0 -0.14064567033E+03 -0.11851708787E+03 -0.20872563421E+03  0.30498999177E+03  0.12500000000E+03 0.  0.
</event>
<event>
 5    0  0.5583350E-005  0.3271131E+03  0.7546771E-02  0.1072421E+00
         21   -1    0    0  502  501  0.00000000000E+00  0.00000000000E+00  0.12476570951E+03  0.12476570951E+03  0.00000000000E+00 0.  1.
         21   -1    0    0  501  502 -0.00000000000E+00 -0.00000000000E+00 -0.85763118270E+03  0.85763118270E+03  0.00000000000E+00 0.  1.
         25    1    1    2    0    0 -0.14270324857E+02 -0.11443696319E+03 -0.25472374796E+03  0.30628197546E+03  0.12500000000E+03 0.  0.
         25    1    1    2    0    0  0.18814074166E+01  0.73759739053E+01 -0.49463869776E+03  0.51024541743E+03  0.12500000000E+03 0.  0.
         25    1    1    2    0    0  0.12388917440E+02  0.10706098928E+03  0.16496972538E+02  0.16586949932E+03  0.12500000000E+03 0.  0.
</event>
<event>
 5    0  0.5583350E-005  0.3525380E+03  0.7546771E-02  0.1061578E+00
         21   -1    0    0  502  501  0.00000000000E+00  0.00000000000E+00  0.20239268242E+03  0.20239268242E+03  0.00000000000E+00 0. -1.
         21   -1    0    0  501  502 -0.00000000000E+00 -0.00000000000E+00 -0.61406900631E+03  0.61406900631E+03  0.00000000000E+00 0. -1.
         25    1    1    2    0    0  0.23927214235E+03  0.41944364349E+02 -0.70341726499E+02  0.28210538154E+03  0.12500000000E+03 0.  0.
         25    1    1    2    0    0 -0.11610275283E+03 -0.86477413887E+02 -0.28779531037E+03  0.34555655543E+03  0.12500000000E+03 0.  0.
         25    1    1    2    0    0 -0.12316938952E+03  0.44533049537E+02 -0.53539287025E+02  0.18879975177E+03  0.12500000000E+03 0.  0.
</event>
<event>
 5    0  0.5583350E-005  0.2879819E+03  0.7546771E-02  0.1091408E+00
         21   -1    0    0  502  501  0.00000000000E+00  0.00000000000E+00  0.12847603824E+03  0.12847603824E+03  0.00000000000E+00 0.  1.
         21   -1    0    0  501  502 -0.00000000000E+00 -0.00000000000E+00 -0.64551783742E+03  0.64551783742E+03  0.00000000000E+00 0.  1.
         25    1    1    2    0    0  0.77518936324E+01 -0.12087967238E+03 -0.43469068088E+02  0.17940609502E+03  0.12500000000E+03 0.  0.
         25    1    1    2    0    0  0.76151362991E+02  0.14425007648E+03 -0.29999059584E+03  0.36362958109E+03  0.12500000000E+03 0.  0.
         25    1    1    2    0    0 -0.83903256623E+02 -0.23370404106E+02 -0.17358213525E+03  0.23095819955E+03  0.12500000000E+03 0.  0.
</event>
<event>
 5    0  0.5583350E-005  0.2604608E+03  0.7546771E-02  0.1106867E+00
         21   -1    0    0  502  501  0.00000000000E+00  0.00000000000E+00  0.72429670818E+03  0.72429670818E+03  0.00000000000E+00 0. -1.
         21   -1    0    0  501  502 -0.00000000000E+00 -0.00000000000E+00 -0.93663014176E+02  0.93663014176E+02  0.00000000000E+00 0. -1.
         25    1    1    2    0    0 -0.58464625557E+02 -0.46036310333E+02  0.21419067201E+03  0.25892102712E+03  0.12500000000E+03 0.  0.
         25    1    1    2    0    0  0.66877413265E+02 -0.24751784514E+02  0.38600163086E+03  0.41195569940E+03  0.12500000000E+03 0.  0.
         25    1    1    2    0    0 -0.84127877075E+01  0.70788094847E+02  0.30441391136E+02  0.14708299583E+03  0.12500000000E+03 0.  0.
</event>
<event>
 5    0  0.5583350E-005  0.2540707E+03  0.7546771E-02  0.1110759E+00
         21   -1    0    0  502  501  0.00000000000E+00  0.00000000000E+00  0.14854944621E+03  0.14854944621E+03  0.00000000000E+00 0.  1.
         21   -1    0    0  501  502 -0.00000000000E+00 -0.00000000000E+00 -0.43454833677E+03  0.43454833677E+03  0.00000000000E+00 0.  1.
         25    1    1    2    0    0  0.34758167917E+02  0.10159977535E+03 -0.14007214657E+03  0.21627725454E+03  0.12500000000E+03 0.  0.
         25    1    1    2    0    0 -0.10130606341E+03 -0.40625633789E+02 -0.13194276437E+03  0.21200767362E+03  0.12500000000E+03 0.  0.
         25    1    1    2    0    0  0.66547895488E+02 -0.60974141557E+02 -0.13983979618E+02  0.15481285482E+03  0.12500000000E+03 0.  0.
</event>
<event>
 5    0  0.5583350E-005  0.2563492E+03  0.7546771E-02  0.1109357E+00
         21   -1    0    0  502  501  0.00000000000E+00  0.00000000000E+00  0.30936195448E+03  0.30936195448E+03  0.00000000000E+00 0.  1.
         21   -1    0    0  501  502 -0.00000000000E+00 -0.00000000000E+00 -0.21242073909E+03  0.21242073909E+03  0.00000000000E+00 0. -1.
         25    1    1    2    0    0  0.61233849369E+02  0.11580431596E+01  0.24514068744E+02  0.14133953778E+03  0.12500000000E+03 0.  0.
         25    1    1    2    0    0  0.23979882584E+02  0.85312654513E+02 -0.56892601483E+02  0.16344739794E+03  0.12500000000E+03 0.  0.
         25    1    1    2    0    0 -0.85213731952E+02 -0.86470697672E+02  0.12931974814E+03  0.21699575786E+03  0.12500000000E+03 0.  0.
</event>
<event>
 5    0  0.5583350E-005  0.5429322E+03  0.7546771E-02  0.1003143E+00
         21   -1    0    0  502  501  0.00000000000E+00  0.00000000000E+00  0.22037272378E+03  0.22037272378E+03  0.00000000000E+00 0.  1.
         21   -1    0    0  501  502 -0.00000000000E+00 -0.00000000000E+00 -0.13376219316E+04  0.13376219316E+04  0.00000000000E+00 0.  1.
         25    1    1    2    0    0 -0.45230432496E+02 -0.22911999700E+03 -0.31002535890E+03  0.40777749841E+03  0.12500000000E+03 0.  0.
         25    1    1    2    0    0  0.23558445742E+03 -0.87830912716E+02 -0.32393154326E+02  0.28264575400E+03  0.12500000000E+03 0.  0.
         25    1    1    2    0    0 -0.19035402492E+03  0.31695090972E+03 -0.77483069456E+03  0.86757140294E+03  0.12500000000E+03 0.  0.
</event>
<event>
 5    0  0.5583350E-005  0.3985569E+03  0.7546771E-02  0.1044281E+00
         21   -1    0    0  502  501  0.00000000000E+00  0.00000000000E+00  0.23037098072E+04  0.23037098072E+04  0.00000000000E+00 0. -1.
         21   -1    0    0  501  502 -0.00000000000E+00 -0.00000000000E+00 -0.68952962716E+02  0.68952962716E+02  0.00000000000E+00 0. -1.
         25    1    1    2    0    0  0.11404619544E+03  0.88283077022E+01  0.39126124598E+03  0.42637405680E+03  0.12500000000E+03 0.  0.
         25    1    1    2    0    0  0.17297176615E+03 -0.88709131850E+02  0.35840123868E+03  0.42645631646E+03  0.12500000000E+03 0.  0.
         25    1    1    2    0    0 -0.28701796159E+03  0.79880824148E+02  0.14850943598E+04  0.15198323967E+04  0.12500000000E+03 0.  0.
</event>
<event>
 5    0  0.5583350E-005  0.2459213E+03  0.7546771E-02  0.1115910E+00
         21   -1    0    0  502  501  0.00000000000E+00  0.00000000000E+00  0.25242752660E+03  0.25242752660E+03  0.00000000000E+00 0.  1.
         21   -1    0    0  501  502 -0.00000000000E+00 -0.00000000000E+00 -0.23958279275E+03  0.23958279275E+03  0.00000000000E+00 0.  1.
         25    1    1    2    0    0  0.13276719047E+03  0.12835993737E+02  0.39068242554E+02  0.18693104926E+03  0.12500000000E+03 0.  0.
         25    1    1    2    0    0 -0.11400954946E+03 -0.76315402853E+01 -0.49515983495E+02  0.17644616855E+03  0.12500000000E+03 0.  0.
         25    1    1    2    0    0 -0.18757641016E+02 -0.52044534514E+01  0.23292474792E+02  0.12863310155E+03  0.12500000000E+03 0.  0.
</event>
<event>
 5    0  0.5583350E-005  0.3925212E+03  0.7546771E-02  0.1046401E+00
         21   -1    0    0  502  501  0.00000000000E+00  0.00000000000E+00  0.54588598565E+03  0.54588598565E+03  0.00000000000E+00 0.  1.
         21   -1    0    0  501  502 -0.00000000000E+00 -0.00000000000E+00 -0.28224378113E+03  0.28224378113E+03  0.00000000000E+00 0.  1.
         25    1    1    2    0    0 -0.14778768293E+03 -0.23180354738E+03  0.19350631253E+03  0.35866945339E+03  0.12500000000E+03 0.  0.
         25    1    1    2    0    0  0.14769855607E+03  0.15643285572E+03  0.16207822031E+03  0.29695193435E+03  0.12500000000E+03 0.  0.
         25    1    1    2    0    0  0.89126856465E-01  0.75370691658E+02 -0.91942328324E+02  0.17250837905E+03  0.12500000000E+03 0.  0.
</event>
<event>
 5    0  0.5583350E-005  0.2306191E+03  0.7546771E-02  0.1126205E+00
         21   -1    0    0  502  501  0.00000000000E+00  0.00000000000E+00  0.70244489581E+02  0.70244489581E+02  0.00000000000E+00 0.  1.
         21   -1    0    0  501  502 -0.00000000000E+00 -0.00000000000E+00 -0.75714359382E+03  0.75714359382E+03  0.00000000000E+00 0.  1.
         25    1    1    2    0    0 -0.49618918478E+02 -0.44464384370E+02 -0.43409665979E+03  0.45662241359E+03  0.12500000000E+03 0.  0.
         25    1    1    2    0    0 -0.60027004901E+01  0.48791475712E+02 -0.12347208988E+03  0.18244724578E+03  0.12500000000E+03 0.  0.
         25    1    1    2    0    0  0.55621618968E+02 -0.43270913423E+01 -0.12933035457E+03  0.18831842403E+03  0.12500000000E+03 0.  0.
</event>
<event>
 5    0  0.5583350E-005  0.3190155E+03  0.7546771E-02  0.1076103E+00
         21   -1    0    0  502  501  0.00000000000E+00  0.00000000000E+00  0.17786912186E+03  0.17786912186E+03  0.00000000000E+00 0.  1.
         21   -1    0    0  501  502 -0.00000000000E+00 -0.00000000000E+00 -0.57216709076E+03  0.57216709076E+03  0.00000000000E+00 0.  1.
         25    1    1    2    0    0  0.11631295074E+03  0.62881314451E+02  0.53812691320E+02  0.18974606179E+03  0.12500000000E+03 0.  0.
         25    1    1    2    0    0 -0.11610160614E+03 -0.66027012010E+02 -0.14844869753E+03  0.23558685248E+03  0.12500000000E+03 0.  0.
         25    1    1    2    0    0 -0.21134460097E+00  0.31456975596E+01 -0.29966196269E+03  0.32470329835E+03  0.12500000000E+03 0.  0.
</event>
<event>
 5    0  0.5583350E-005  0.2605289E+03  0.7546771E-02  0.1106826E+00
         21   -1    0    0  502  501  0.00000000000E+00  0.00000000000E+00  0.17744973348E+03  0.17744973348E+03  0.00000000000E+00 0.  1.
         21   -1    0    0  501  502 -0.00000000000E+00 -0.00000000000E+00 -0.38250428629E+03  0.38250428629E+03  0.00000000000E+00 0.  1.
         25    1    1    2    0    0 -0.11492973668E+03 -0.26192213190E+02 -0.22108548764E+02  0.17323009073E+03  0.12500000000E+03 0.  0.
         25    1    1    2    0    0 -0.65127879675E+01 -0.65135145269E+02 -0.10128998127E+03  0.17369416761E+03  0.12500000000E+03 0.  0.
         25    1    1    2    0    0  0.12144252465E+03  0.91327358459E+02 -0.81656022775E+02  0.21302976142E+03  0.12500000000E+03 0.  0.
</event>
<event>
 5    0  0.5583350E-005  0.3707578E+03  0.7546771E-02  0.1054404E+00
         21   -1    0    0  502  501  0.00000000000E+00  0.00000000000E+00  0.62343242317E+03  0.62343242317E+03  0.00000000000E+00 0. -1.
         21   -1    0    0  501  502 -0.00000000000E+00 -0.00000000000E+00 -0.22049120904E+03  0.22049120904E+03  0.00000000000E+00 0. -1.
         25    1    1    2    0    0 -0.15225979500E+03 -0.22793646227E+02  0.58744437287E+02  0.20682965066E+03  0.12500000000E+03 0.  0.
         25    1    1    2    0    0 -0.10266606994E+02 -0.15817545668E+03  0.29770738297E+03  0.35969370886E+03  0.12500000000E+03 0.  0.
         25    1    1    2    0    0  0.16252640199E+03  0.18096910290E+03  0.46489393870E+02  0.27740027270E+03  0.12500000000E+03 0.  0.
</event>
<event>
 5    0  0.5583350E-005  0.2567301E+03  0.7546771E-02  0.1109124E+00
         21   -1    0    0  502  501  0.00000000000E+00  0.00000000000E+00  0.31225060413E+02  0.31225060413E+02  0.00000000000E+00 0. -1.
         21   -1    0    0  501  502 -0.00000000000E+00 -0.00000000000E+00 -0.21108162892E+04  0.21108162892E+04  0.00000000000E+00 0. -1.
         25    1    1    2    0    0  0.31675619503E+02  0.38255980659E+00 -0.52567797168E+03  0.54126317179E+03  0.12500000000E+03 0.  0.
         25    1    1    2    0    0 -0.12950481772E+03 -0.77579876113E+02 -0.61696745353E+03  0.64735150707E+03  0.12500000000E+03 0.  0.
         25    1    1    2    0    0  0.97829198219E+02  0.77197316307E+02 -0.93694580360E+03  0.95342667078E+03  0.12500000000E+03 0.  0.
</event>
<event>
 5    0  0.5583350E-005  0.3272582E+03  0.7546771E-02  0.1072357E+00
         21   -1    0    0  502  501  0.00000000000E+00  0.00000000000E+00  0.34270118431E+03  0.34270118431E+03  0.00000000000E+00 0.  1.
         21   -1    0    0  501  502 -0.00000000000E+00 -0.00000000000E+00 -0.31251108905E+03  0.31251108905E+03  0.00000000000E+00 0.  1.
         25    1    1    2    0    0 -0.10112463733E+03 -0.49801452408E+02 -0.13670046460E+03  0.21683725224E+03  0.12500000000E+03 0.  0.
         25    1    1    2    0    0  0.11501729324E+03  0.13594660669E+03  0.73199469756E+01  0.21769023689E+03  0.12500000000E+03 0.  0.
         25    1    1    2    0    0 -0.13892655903E+02 -0.86145154282E+02  0.15957061289E+03  0.22068478423E+03  0.12500000000E+03 0.  0.
</event>
<event>
 5    0  0.5583350E-005  0.3373800E+03  0.7546771E-02  0.1067917E+00
         21   -1    0    0  502  501  0.00000000000E+00  0.00000000000E+00  0.83230580420E+02  0.83230580420E+02  0.00000000000E+00 0. -1.
         21   -1    0    0  501  502 -0.00000000000E+00 -0.00000000000E+00 -0.13675895418E+04  0.13675895418E+04  0.00000000000E+00 0. -1.
         25    1    1    2    0    0 -0.25621401534E+02  0.46344685083E+02 -0.52856411463E+02  0.14568145484E+03  0.12500000000E+03 0.  0.
         25    1    1    2    0    0 -0.14858071665E+03  0.30810132588E+02 -0.69449452692E+03  0.72178469196E+03  0.12500000000E+03 0.  0.
         25    1    1    2    0    0  0.17420211818E+03 -0.77154817670E+02 -0.53700802298E+03  0.58335397540E+03  0.12500000000E+03 0.  0.
</event>
<event>
 5    0  0.5583350E-005  0.3386491E+03  0.7546771E-02  0.1067373E+00
         21   -1    0    0  502  501  0.00000000000E+00  0.00000000000E+00  0.19122844636E+04  0.19122844636E+04  0.00000000000E+00 0.  1.
         21   -1    0    0  501  502 -0.00000000000E+00 -0.00000000000E+00 -0.59971844818E+02  0.59971844818E+02  0.00000000000E+00 0.  1.
         25    1    1    2    0    0  0.17528904702E+03 -0.84716623022E+01  0.30766585077E+03  0.37560790034E+03  0.12500000000E+03 0.  0.
         25    1    1    2    0    0 -0.31105403130E+02 -0.62550096053E+02  0.26790946960E+03  0.30377712969E+03  0.12500000000E+03 0.  0.
         25    1    1    2    0    0 -0.14418364390E+03  0.71021758355E+02  0.12767372984E+04  0.12928712784E+04  0.12500000000E+03 0.  0.
</event>
<event>
 5    0  0.5583350E-005  0.4949205E+03  0.7546771E-02  0.1015113E+00
         21   -1    0    0  502  501  0.00000000000E+00  0.00000000000E+00  0.34461486890E+03  0.34461486890E+03  0.00000000000E+00 0.  1.
         21   -1    0    0  501  502 -0.00000000000E+00 -0.00000000000E+00 -0.71078265127E+03  0.71078265127E+03  0.00000000000E+00 0.  1.
         25    1    1    2    0    0  0.36090781699E+03  0.12587974908E+03 -0.20159955613E+03  0.44985280329E+03  0.12500000000E+03 0.  0.
         25    1    1    2    0    0 -0.28594713571E+03 -0.22335892352E+03 -0.19022947161E+03  0.42833074254E+03  0.12500000000E+03 0.  0.
         25    1    1    2    0    0 -0.74960681276E+02  0.97479174436E+02  0.25661245366E+02  0.17721397434E+03  0.12500000000E+03 0.  0.
</event>
<event>
 5    0  0.5583350E-005  0.2659729E+03  0.7546771E-02  0.1103607E+00
         21   -1    0    0  502  501  0.00000000000E+00  0.00000000000E+00  0.95107308218E+03  0.95107308218E+03  0.00000000000E+00 0.  1.
         21   -1    0    0  501  502 -0.00000000000E+00 -0.00000000000E+00 -0.74380789687E+02  0.74380789687E+02  0.00000000000E+00 0.  1.
         25    1    1    2    0    0  0.13018003874E+03 -0.26906137279E+02  0.13869292147E+03  0.22919753309E+03  0.12500000000E+03 0.  0.
         25    1    1    2    0    0 -0.19739336171E+02  0.13857919150E+02  0.38741815795E+03  0.40779837226E+03  0.12500000000E+03 0.  0.
         25    1    1    2    0    0 -0.11044070257E+03  0.13048218129E+02  0.35058121308E+03  0.38845796651E+03  0.12500000000E+03 0.  0.
</event>
<event>
 5    0  0.5583350E-005  0.2138576E+03  0.7546771E-02  0.1138547E+00
         21   -1    0    0  502  501  0.00000000000E+00  0.00000000000E+00  0.90800226332E+02  0.90800226332E+02  0.00000000000E+00 0.  1.
         21   -1    0    0  501  502 -0.00000000000E+00 -0.00000000000E+00 -0.50368905408E+03  0.50368905408E+03  0.00000000000E+00 0.  1.
         25    1    1    2    0    0  0.47309686676E+02 -0.11672793902E+02 -0.11165454937E+03  0.17454569306E+03  0.12500000000E+03 0.  0.
         25    1    1    2    0    0 -0.38740570800E+02  0.76401557893E+02 -0.15910623443E+03  0.21972215116E+03  0.12500000000E+03 0.  0.
         25    1    1    2    0    0 -0.85691158759E+01 -0.64728763991E+02 -0.14212804394E+03  0.20022143618E+03  0.12500000000E+03 0.  0.
</event>
<event>
 5    0  0.5583350E-005  0.2645458E+03  0.7546771E-02  0.1104442E+00
         21   -1    0    0  502  501  0.00000000000E+00  0.00000000000E+00  0.60034307324E+03  0.60034307324E+03  0.00000000000E+00 0. -1.
         21   -1    0    0  501  502 -0.00000000000E+00 -0.00000000000E+00 -0.11657410778E+03  0.11657410778E+03  0.00000000000E+00 0. -1.
         25    1    1    2    0    0 -0.12909064401E+03 -0.19561012849E+02  0.20900833032E+03  0.27632681690E+03  0.12500000000E+03 0.  0.
         25    1    1    2    0    0 -0.35781254935E+02  0.26347070197E+02  0.72542723197E+02  0.15120156415E+03  0.12500000000E+03 0.  0.
         25    1    1    2    0    0  0.16487189895E+03 -0.67860573486E+01  0.20221791194E+03  0.28938879997E+03  0.12500000000E+03 0.  0.
</event>
<event>
 5    0  0.5583350E-005  0.2434120E+03  0.7546771E-02  0.1117541E+00
         21   -1    0    0  502  501  0.00000000000E+00  0.00000000000E+00  0.22639130216E+03  0.22639130216E+03  0.00000000000E+00 0.  1.
         21   -1    0    0  501  502 -0.00000000000E+00 -0.00000000000E+00 -0.26171228894E+03  0.26171228894E+03  0.00000000000E+00 0.  1.
         25    1    1    2    0    0  0.82949846383E+02  0.24985105434E+01 -0.33086962800E+02  0.15364461161E+03  0.12500000000E+03 0.  0.
         25    1    1    2    0    0  0.15867643503E+02  0.85635879079E+02 -0.23122393429E+01  0.15236676917E+03  0.12500000000E+03 0.  0.
         25    1    1    2    0    0 -0.98817489886E+02 -0.88134389622E+02  0.78215355084E-01  0.18209221032E+03  0.12500000000E+03 0.  0.
</event>
<event>
 5    0  0.5583350E-005  0.3530655E+03  0.7546771E-02  0.1061364E+00
         21   -1    0    0  502  501  0.00000000000E+00  0.00000000000E+00  0.31019553367E+03  0.31019553367E+03  0.00000000000E+00 0.  1.
         21   -1    0    0  501  502 -0.00000000000E+00 -0.00000000000E+00 -0.40186030400E+03  0.40186030400E+03  0.00000000000E+00 0.  1.
         25    1    1    2    0    0 -0.17760555543E+03  0.81267482487E+02  0.73429218921E+02  0.24323853976E+03  0.12500000000E+03 0.  0.
         25    1    1    2    0    0  0.22617983616E+03 -0.28902397836E+01 -0.17667337514E+03  0.31305615033E+03  0.12500000000E+03 0.  0.
         25    1    1    2    0    0 -0.48574280728E+02 -0.78377242704E+02  0.11579385891E+02  0.15576114759E+03  0.12500000000E+03 0.  0.
</event>
<event>
 5    0  0.5583350E-005  0.2053144E+03  0.7546771E-02  0.1145331E+00
         21   -1    0    0  502  501  0.00000000000E+00  0.00000000000E+00  0.17284942245E+03  0.17284942245E+03  0.00000000000E+00 0.  1.
         21   -1    0    0  501  502 -0.00000000000E+00 -0.00000000000E+00 -0.24387691706E+03  0.24387691706E+03  0.00000000000E+00 0.  1.
         25    1    1    2    0    0  0.23340689029E+01 -0.12771751450E+02 -0.47915694356E+02  0.13449713483E+03  0.12500000000E+03 0.  0.
         25    1    1    2    0    0 -0.60295579916E+02  0.34034695615E+01  0.13149504620E+02  0.13944550919E+03  0.12500000000E+03 0.  0.
         25    1    1    2    0    0  0.57961511013E+02  0.93682818885E+01 -0.36261304870E+02  0.14278369548E+03  0.12500000000E+03 0.  0.
</event>
<event>
 5    0  0.5583350E-005  0.5453311E+03  0.7546771E-02  0.1002580E+00
         21   -1    0    0  502  501  0.00000000000E+00  0.00000000000E+00  0.17199232632E+04  0.17199232632E+04  0.00000000000E+00 0.  1.
         21   -1    0    0  501  502 -0.00000000000E+00 -0.00000000000E+00 -0.17290656575E+03  0.17290656575E+03  0.00000000000E+00 0.  1.
         25    1    1    2    0    0  0.18354042401E+02  0.19096063434E+03 -0.41710661474E+02  0.23273936930E+03  0.12500000000E+03 0.  0.
         25    1    1    2    0    0  0.14753144502E+03 -0.18585773242E+03  0.10173374075E+04  0.10520974406E+04  0.12500000000E+03 0.  0.
         25    1    1    2    0    0 -0.16588548742E+03 -0.51029019280E+01  0.57138995143E+03  0.60799301899E+03  0.12500000000E+03 0.  0.
</event>
<event>
 5    0  0.5583350E-005  0.3895231E+03  0.7546771E-02  0.1047469E+00
         21   -1    0    0  502  501  0.00000000000E+00  0.00000000000E+00  0.45579324290E+02  0.45579324290E+02  0.00000000000E+00 0. -1.
         21   -1    0    0  501  502 -0.00000000000E+00 -0.00000000000E+00 -0.33288827711E+04  0.33288827711E+04  0.00000000000E+00 0. -1.
         25    1    1    2    0    0 -0.11786164338E+03 -0.50464492328E+02 -0.18028078955E+03  0.25409485443E+03  0.12500000000E+03 0.  0.
         25    1    1    2    0    0  0.11760734520E+02 -0.23039562702E+02 -0.77705697961E+03  0.78747170482E+03  0.12500000000E+03 0.  0.
         25    1    1    2    0    0  0.10610090886E+03  0.73504055030E+02 -0.23259656776E+04  0.23328955361E+04  0.12500000000E+03 0.  0.
</event>
<event>
 5    0  0.5583350E-005  0.4014040E+03  0.7546771E-02  0.1043295E+00
         21   -1    0    0  502  501  0.00000000000E+00  0.00000000000E+00  0.38608796946E+03  0.38608796946E+03  0.00000000000E+00 0. -1.
         21   -1    0    0  501  502 -0.00000000000E+00 -0.00000000000E+00 -0.41732769510E+03  0.41732769510E+03  0.00000000000E+00 0. -1.
         25    1    1    2    0    0 -0.20028657277E+03 -0.21526814932E+03 -0.84943763916E+01  0.31961264333E+03  0.12500000000E+03 0.  0.
         25    1    1    2    0    0  0.10767804052E+03 -0.25864691113E+02  0.71643220708E+02  0.18171762086E+03  0.12500000000E+03 0.  0.
         25    1    1    2    0    0  0.92608532255E+02  0.24113284044E+03 -0.94388569957E+02  0.30208540038E+03  0.12500000000E+03 0.  0.
</event>
<event>
 5    0  0.5583350E-005  0.3732313E+03  0.7546771E-02  0.1053464E+00
         21   -1    0    0  502  501  0.00000000000E+00  0.00000000000E+00  0.10290970915E+03  0.10290970915E+03  0.00000000000E+00 0.  1.
         21   -1    0    0  501  502 -0.00000000000E+00 -0.00000000000E+00 -0.13536291637E+04  0.13536291637E+04  0.00000000000E+00 0.  1.
         25    1    1    2    0    0 -0.69242823856E+01 -0.16723303170E+03 -0.27160470066E+03  0.34264988837E+03  0.12500000000E+03 0.  0.
         25    1    1    2    0    0  0.14004939639E+03  0.24499199565E+02 -0.12019135429E+03  0.22424318463E+03  0.12500000000E+03 0.  0.
         25    1    1    2    0    0 -0.13312511401E+03  0.14273383213E+03 -0.85892339962E+03  0.88964579987E+03  0.12500000000E+03 0.  0.
</event>
<event>
 5    0  0.5583350E-005  0.2534742E+03  0.7546771E-02  0.1111129E+00
         21   -1    0    0  502  501  0.00000000000E+00  0.00000000000E+00  0.37111901591E+03  0.37111901591E+03  0.00000000000E+00 0.  1.
         21   -1    0    0  501  502 -0.00000000000E+00 -0.00000000000E+00 -0.17312277399E+03  0.17312277399E+03  0.00000000000E+00 0.  1.
         25    1    1    2    0    0  0.47726955000E+02 -0.62532326840E+02  0.13725088998E+02  0.14832913470E+03  0.12500000000E+03 0.  0.
         25    1    1    2    0    0  0.66621891745E+02 -0.43771432038E+02  0.10030810957E+03  0.17900036751E+03  0.12500000000E+03 0.  0.
         25    1    1    2    0    0 -0.11434884675E+03  0.10630375888E+03  0.83963043356E+02  0.21691228770E+03  0.12500000000E+03 0.  0.
</event>
<event>
 5    0  0.5583350E-005  0.2589193E+03  0.7546771E-02  0.1107794E+00
         21   -1    0    0  502  501  0.00000000000E+00  0.00000000000E+00  0.39991458714E+03  0.39991458714E+03  0.00000000000E+00 0. -1.
         21   -1    0    0  501  502 -0.00000000000E+00 -0.00000000000E+00 -0.16763379985E+03  0.16763379985E+03  0.00000000000E+00 0. -1.
         25    1    1    2    0    0 -0.49046076109E+02 -0.10630506709E+03  0.14866845674E+03  0.22678975925E+03  0.12500000000E+03 0.  0.
         25    1    1    2    0    0 -0.18936482078E+02  0.13222966487E+03  0.24764246760E+02  0.18461187000E+03  0.12500000000E+03 0.  0.
         25    1    1    2    0    0  0.67982558187E+02 -0.25924597785E+02  0.58848083785E+02  0.15614675774E+03  0.12500000000E+03 0.  0.
</event>
<event>
 5    0  0.5583350E-005  0.2411925E+03  0.7546771E-02  0.1119001E+00
         21   -1    0    0  502  501  0.00000000000E+00  0.00000000000E+00  0.25293912002E+03  0.25293912002E+03  0.00000000000E+00 0. -1.
         21   -1    0    0  501  502 -0.00000000000E+00 -0.00000000000E+00 -0.22999143023E+03  0.22999143023E+03  0.00000000000E+00 0. -1.
         25    1    1    2    0    0 -0.56560126684E+02 -0.34406855444E+02  0.12175438836E+02  0.14197225413E+03  0.12500000000E+03 0.  0.
         25    1    1    2    0    0  0.13478905533E+03 -0.16946724949E+02  0.34931074130E+01  0.18464149783E+03  0.12500000000E+03 0.  0.
         25    1    1    2    0    0 -0.78228928645E+02  0.51353580393E+02  0.72791435441E+01  0.15631679829E+03  0.12500000000E+03 0.  0.
</event>
<event>
 5    0  0.5583350E-005  0.4898506E+03  0.7546771E-02  0.1016463E+00
         21   -1    0    0  502  501  0.00000000000E+00  0.00000000000E+00  0.98679629635E+02  0.98679629635E+02  0.00000000000E+00 0.  1.
         21   -1    0    0  501  502 -0.00000000000E+00 -0.00000000000E+00 -0.24316431120E+04  0.24316431120E+04  0.00000000000E+00 0.  1.
         25    1    1    2    0    0 -0.14696760421E+03 -0.28411585229E+03 -0.13005692178E+04  0.13451492797E+04  0.12500000000E+03 0.  0.
         25    1    1    2    0    0  0.88281670617E+02  0.37053151468E+03 -0.85507036759E+03  0.94438212090E+03  0.12500000000E+03 0.  0.
         25    1    1    2    0    0  0.58685933595E+02 -0.86415662388E+02 -0.17732389694E+03  0.24079134107E+03  0.12500000000E+03 0.  0.
</event>
<event>
 5    0  0.5583350E-005  0.2269374E+03  0.7546771E-02  0.1128814E+00
         21   -1    0    0  502  501  0.00000000000E+00  0.00000000000E+00  0.44499369202E+03  0.44499369202E+03  0.00000000000E+00 0.  1.
         21   -1    0    0  501  502 -0.00000000000E+00 -0.00000000000E+00 -0.11573330156E+03  0.11573330156E+03  0.00000000000E+00 0.  1.
         25    1    1    2    0    0  0.53120016704E+02  0.28465718574E+02  0.14769637099E+03  0.20266043352E+03  0.12500000000E+03 0.  0.
         25    1    1    2    0    0  0.42158361927E+02  0.36054598874E+02  0.10114430825E+03  0.17009536347E+03  0.12500000000E+03 0.  0.
         25    1    1    2    0    0 -0.95278378631E+02 -0.64520317448E+02  0.80419711219E+02  0.18797119660E+03  0.12500000000E+03 0.  0.
</event>
<event>
 5    0  0.5583350E-005  0.5488198E+03  0.7546771E-02  0.1001767E+00
         21   -1    0    0  502  501  0.00000000000E+00  0.00000000000E+00  0.93292685442E+03  0.93292685442E+03  0.00000000000E+00 0. -1.
         21   -1    0    0  501  502 -0.00000000000E+00 -0.00000000000E+00 -0.32285823723E+03  0.32285823723E+03  0.00000000000E+00 0. -1.
         25    1    1    2    0    0  0.39519611210E+03 -0.22156091858E+03  0.10446412714E+03  0.48146335428E+03  0.12500000000E+03 0.  0.
         25    1    1    2    0    0 -0.38863896934E+03  0.12409959945E+03  0.34675623147E+03  0.54982346543E+03  0.12500000000E+03 0.  0.
         25    1    1    2    0    0 -0.65571427637E+01  0.97461319129E+02  0.15884825858E+03  0.22449827194E+03  0.12500000000E+03 0.  0.
</event>
<event>
 5    0  0.5583350E-005  0.3992429E+03  0.7546771E-02  0.1044042E+00
         21   -1    0    0  502  501  0.00000000000E+00  0.00000000000E+00  0.11128398928E+04  0.11128398928E+04  0.00000000000E+00 0. -1.
         21   -1    0    0  501  502 -0.00000000000E+00 -0.00000000000E+00 -0.14323254534E+03  0.14323254534E+03  0.00000000000E+00 0. -1.
         25    1    1    2    0    0  0.13632235570E+03 -0.24083208970E+03  0.75920501676E+03  0.81768033947E+03  0.12500000000E+03 0.  0.
         25    1    1    2    0    0 -0.55880407116E+02  0.15233219535E+03  0.15459087210E+03  0.25661460476E+03  0.12500000000E+03 0.  0.
         25    1    1    2    0    0 -0.80441948579E+02  0.88499894343E+02  0.55811458640E+02  0.18177749395E+03  0.12500000000E+03 0.  0.
</event>
<event>
 5    0  0.5583350E-005  0.3912635E+03  0.7546771E-02  0.1046848E+00
         21   -1    0    0  502  501  0.00000000000E+00  0.00000000000E+00  0.28974983139E+03  0.28974983139E+03  0.00000000000E+00 0. -1.
         21   -1    0    0  501  502 -0.00000000000E+00 -0.00000000000E+00 -0.52834237954E+03  0.52834237954E+03  0.00000000000E+00 0. -1.
         25    1    1    2    0    0 -0.23157131881E+03 -0.51648669907E+02  0.55533295873E+02  0.27386457921E+03  0.12500000000E+03 0.  0.
         25    1    1    2    0    0  0.91325332200E+02  0.15300788761E+03 -0.56652244507E+02  0.22491377632E+03  0.12500000000E+03 0.  0.
         25    1    1    2    0    0  0.14024598661E+03 -0.10135921770E+03 -0.23747359951E+03  0.31931385538E+03  0.12500000000E+03 0.  0.
</event>
<event>
 5    0  0.5583350E-005  0.3082229E+03  0.7546771E-02  0.1081201E+00
         21   -1    0    0  502  501  0.00000000000E+00  0.00000000000E+00  0.12841972705E+04  0.12841972705E+04  0.00000000000E+00 0.  1.
         21   -1    0    0  501  502 -0.00000000000E+00 -0.00000000000E+00 -0.73977234632E+02  0.73977234632E+02  0.00000000000E+00 0.  1.
         25    1    1    2    0    0 -0.65548189847E+01 -0.17676457997E+03  0.19389413577E+03  0.29070366058E+03  0.12500000000E+03 0.  0.
         25    1    1    2    0    0  0.15163993927E+01  0.21213153445E+02  0.40363768067E+03  0.42308471327E+03  0.12500000000E+03 0.  0.
         25    1    1    2    0    0  0.50384195920E+01  0.15555142653E+03  0.61268821938E+03  0.64438613124E+03  0.12500000000E+03 0.  0.
</event>
<event>
 5    0  0.5583350E-005  0.3079581E+03  0.7546771E-02  0.1081329E+00
         21   -1    0    0  502  501  0.00000000000E+00  0.00000000000E+00  0.38996997399E+03  0.38996997399E+03  0.00000000000E+00 0. -1.
         21   -1    0    0  501  502 -0.00000000000E+00 -0.00000000000E+00 -0.24319351789E+03  0.24319351789E+03  0.00000000000E+00 0. -1.
         25    1    1    2    0    0 -0.98175456199E+02 -0.68374978456E+02 -0.47834866234E+02  0.17951805566E+03  0.12500000000E+03 0.  0.
         25    1    1    2    0    0  0.72551124705E+02 -0.11261113699E+03  0.12391619595E+03  0.22119031961E+03  0.12500000000E+03 0.  0.
         25    1    1    2    0    0  0.25624331494E+02  0.18098611545E+03  0.70695126388E+02  0.23245511662E+03  0.12500000000E+03 0.  0.
</event>
<event>
 5    0  0.5583350E-005  0.3169777E+03  0.7546771E-02  0.1077049E+00
         21   -1    0    0  502  501  0.00000000000E+00  0.00000000000E+00  0.31937590610E+03  0.31937590610E+03  0.00000000000E+00 0. -1.
         21   -1    0    0  501  502 -0.00000000000E+00 -0.00000000000E+00 -0.31459750679E+03  0.31459750679E+03  0.00000000000E+00 0. -1.
         25    1    1    2    0    0  0.19209052402E+03  0.33106463031E+02 -0.12177209422E+02  0.23187947676E+03  0.12500000000E+03 0.  0.
         25    1    1    2    0    0 -0.18708308539E+03 -0.99891942291E+02  0.60958736969E+02  0.25361279263E+03  0.12500000000E+03 0.  0.
         25    1    1    2    0    0 -0.50074386294E+01  0.66785479260E+02 -0.44003128242E+02  0.14848114351E+03  0.12500000000E+03 0.  0.
</event>
<event>
 5    0  0.5583350E-005  0.2818431E+03  0.7546771E-02  0.1094686E+00
         21   -1    0    0  502  501  0.00000000000E+00  0.00000000000E+00  0.41964277432E+03  0.41964277432E+03  0.00000000000E+00 0. -1.
         21   -1    0    0  501  502 -0.00000000000E+00 -0.00000000000E+00 -0.18929328413E+03  0.18929328413E+03  0.00000000000E+00 0. -1.
         25    1    1    2    0    0 -0.98639049397E+02 -0.10390568978E+03 -0.14481129149E+02  0.19068496935E+03  0.12500000000E+03 0.  0.
         25    1    1    2    0    0  0.79407197105E+02  0.86282867428E+02  0.23406371833E+03  0.29010525745E+03  0.12500000000E+03 0.  0.
         25    1    1    2    0    0  0.19231852292E+02  0.17622822355E+02  0.10766901008E+02  0.12814583164E+03  0.12500000000E+03 0.  0.
</event>
<event>
 5    0  0.5583350E-005  0.2299246E+03  0.7546771E-02  0.1126693E+00
         21   -1    0    0  502  501  0.00000000000E+00  0.00000000000E+00  0.30584491413E+03  0.30584491413E+03  0.00000000000E+00 0. -1.
         21   -1    0    0  501  502 -0.00000000000E+00 -0.00000000000E+00 -0.17285010000E+03  0.17285010000E+03  0.00000000000E+00 0. -1.
         25    1    1    2    0    0 -0.16828839052E+02 -0.32119147166E+02 -0.99097443521E+01  0.13052989110E+03  0.12500000000E+03 0.  0.
         25    1    1    2    0    0  0.10411067129E+02  0.61291158315E+01  0.17591123401E+03  0.21613819337E+03  0.12500000000E+03 0.  0.
         25    1    1    2    0    0  0.64177719231E+01  0.25990031334E+02 -0.33006675529E+02  0.13202692966E+03  0.12500000000E+03 0.  0.
</event>
<event>
 5    0  0.5997573E-005  0.2439276E+03  0.7546771E-02  0.1117204E+00
         21   -1    0    0  502  501  0.00000000000E+00  0.00000000000E+00  0.43699575488E+03  0.43699575488E+03  0.00000000000E+00 0.  1.
         21   -1    0    0  501  502 -0.00000000000E+00 -0.00000000000E+00 -0.13615843742E+03  0.13615843742E+03  0.00000000000E+00 0.  1.
         25    1    1    2    0    0  0.39083307645E+02 -0.13276392924E-01  0.17394369554E+03  0.21773588205E+03  0.12500000000E+03 0.  0.
         25    1    1    2    0    0 -0.75110685050E+02  0.70031690369E+02  0.17186922417E+01  0.16178382666E+03  0.12500000000E+03 0.  0.
         25    1    1    2    0    0  0.36027377405E+02 -0.70018413976E+02  0.12517492968E+03  0.19363448360E+03  0.12500000000E+03 0.  0.
</event>
<event>
 5    0  0.5583350E-005  0.3395771E+03  0.7546771E-02  0.1066976E+00
         21   -1    0    0  502  501  0.00000000000E+00  0.00000000000E+00  0.87789898892E+02  0.87789898892E+02  0.00000000000E+00 0. -1.
         21   -1    0    0  501  502 -0.00000000000E+00 -0.00000000000E+00 -0.13135066883E+04  0.13135066883E+04  0.00000000000E+00 0. -1.
         25    1    1    2    0    0 -0.11185586141E+03 -0.58425078464E+02 -0.48854661677E+03  0.51983460859E+03  0.12500000000E+03 0.  0.
         25    1    1    2    0    0  0.12258610234E+03  0.21657744459E+02 -0.72947076865E+03  0.75049917568E+03  0.12500000000E+03 0.  0.
         25    1    1    2    0    0 -0.10730240925E+02  0.36767334005E+02 -0.76994039537E+01  0.13096280289E+03  0.12500000000E+03 0.  0.
</event>
<event>
 5    0  0.5583350E-005  0.2483924E+03  0.7546771E-02  0.1114325E+00
         21   -1    0    0  502  501  0.00000000000E+00  0.00000000000E+00  0.17689765696E+03  0.17689765696E+03  0.00000000000E+00 0.  1.
         21   -1    0    0  501  502 -0.00000000000E+00 -0.00000000000E+00 -0.34878233390E+03  0.34878233390E+03  0.00000000000E+00 0.  1.
         25    1    1    2    0    0  0.30590532663E+02  0.13060460154E+02 -0.86457008701E+02  0.15558332385E+03  0.12500000000E+03 0.  0.
         25    1    1    2    0    0 -0.11325194375E+03 -0.10747317978E+01  0.41085938452E+02  0.17360936654E+03  0.12500000000E+03 0.  0.
         25    1    1    2    0    0  0.82661411090E+02 -0.11985728356E+02 -0.12651360668E+03  0.19648730046E+03  0.12500000000E+03 0.  0.
</event>
<event>
 5    0  0.5583350E-005  0.2558232E+03  0.7546771E-02  0.1109679E+00
         21   -1    0    0  502  501  0.00000000000E+00  0.00000000000E+00  0.28250498925E+02  0.28250498925E+02  0.00000000000E+00 0. -1.
         21   -1    0    0  501  502 -0.00000000000E+00 -0.00000000000E+00 -0.23166142031E+04  0.23166142031E+04  0.00000000000E+00 0. -1.
         25    1    1    2    0    0 -0.10147225262E+02  0.71830872221E+02 -0.64374485580E+03  0.65976895937E+03  0.12500000000E+03 0.  0.
         25    1    1    2    0    0  0.63581624172E+02  0.74401388067E+02 -0.55161425914E+03  0.57400477382E+03  0.12500000000E+03 0.  0.
         25    1    1    2    0    0 -0.53434398909E+02 -0.14623226029E+03 -0.10930045892E+04  0.11110909688E+04  0.12500000000E+03 0.  0.
</event>
<event>
 5    0  0.5583350E-005  0.3745676E+03  0.7546771E-02  0.1052960E+00
         21   -1    0    0  502  501  0.00000000000E+00  0.00000000000E+00  0.46590459786E+03  0.46590459786E+03  0.00000000000E+00 0.  1.
         21   -1    0    0  501  502 -0.00000000000E+00 -0.00000000000E+00 -0.30113648234E+03  0.30113648234E+03  0.00000000000E+00 0.  1.
         25    1    1    2    0    0  0.55524861548E+02 -0.54387134882E+02  0.19742118458E+03  0.24625412649E+03  0.12500000000E+03 0.  0.
         25    1    1    2    0    0 -0.79898409372E+01 -0.18897217187E+03 -0.77314062328E+02  0.23953451428E+03  0.12500000000E+03 0.  0.
         25    1    1    2    0    0 -0.47535020611E+02  0.24335930675E+03  0.44660993267E+02  0.28125243943E+03  0.12500000000E+03 0.  0.
</event>
<event>
 5    0  0.5583350E-005  0.2855751E+03  0.7546771E-02  0.1092682E+00
         21   -1    0    0  502  501  0.00000000000E+00  0.00000000000E+00  0.10229839703E+03  0.10229839703E+03  0.00000000000E+00 0. -1.
         21   -1    0    0  501  502 -0.00000000000E+00 -0.00000000000E+00 -0.79720843100E+03  0.79720843100E+03  0.00000000000E+00 0. -1.
         25    1    1    2    0    0 -0.38201552910E+02  0.59572057125E+02 -0.27198217462E+02  0.14619484145E+03  0.12500000000E+03 0.  0.
         25    1    1    2    0    0 -0.40179039103E+02 -0.10980779837E+03 -0.47838490344E+03  0.50808387457E+03  0.12500000000E+03 0.  0.
         25    1    1    2    0    0  0.78380592013E+02  0.50235741245E+02 -0.18932691307E+03  0.24522811200E+03  0.12500000000E+03 0.  0.
</event>
<event>
 5    0  0.5583350E-005  0.2845924E+03  0.7546771E-02  0.1093207E+00
         21   -1    0    0  502  501  0.00000000000E+00  0.00000000000E+00  0.49273588008E+03  0.49273588008E+03  0.00000000000E+00 0. -1.
         21   -1    0    0  501  502 -0.00000000000E+00 -0.00000000000E+00 -0.16437378621E+03  0.16437378621E+03  0.00000000000E+00 0. -1.
         25    1    1    2    0    0  0.98111105495E+02 -0.12812014623E+02  0.73613963292E+02  0.17559599179E+03  0.12500000000E+03 0.  0.
         25    1    1    2    0    0 -0.18208852315E+03 -0.40425331177E+02  0.65541779998E+02  0.23390417394E+03  0.12500000000E+03 0.  0.
         25    1    1    2    0    0  0.83977417654E+02  0.53237345800E+02  0.18920635058E+03  0.24760950056E+03  0.12500000000E+03 0.  0.
</event>
<event>
 5    0  0.5997534E-005  0.4133747E+03  0.7546771E-02  0.1039244E+00
         21   -1    0    0  502  501  0.00000000000E+00  0.00000000000E+00  0.20874250372E+03  0.20874250372E+03  0.00000000000E+00 0.  1.
         21   -1    0    0  501  502 -0.00000000000E+00 -0.00000000000E+00 -0.81860982820E+03  0.81860982820E+03  0.00000000000E+00 0.  1.
         25    1    1    2    0    0 -0.42641977495E+02 -0.13640220573E+03  0.12812410193E+02  0.19029728802E+03  0.12500000000E+03 0.  0.
         25    1    1    2    0    0 -0.29958828109E+02 -0.16791221190E+03 -0.32352114883E+03  0.38650093923E+03  0.12500000000E+03 0.  0.
         25    1    1    2    0    0  0.72600805604E+02  0.30431441763E+03 -0.29915858585E+03  0.45055410468E+03  0.12500000000E+03 0.  0.
</event>
<event>
 5    0  0.5583350E-005  0.3161189E+03  0.7546771E-02  0.1077450E+00
         21   -1    0    0  502  501  0.00000000000E+00  0.00000000000E+00  0.27309949818E+03  0.27309949818E+03  0.00000000000E+00 0.  1.
         21   -1    0    0  501  502 -0.00000000000E+00 -0.00000000000E+00 -0.36591473311E+03  0.36591473311E+03  0.00000000000E+00 0.  1.
         25    1    1    2    0    0 -0.65712512282E+02 -0.26124294930E+02 -0.22589721034E+03  0.26768481970E+03  0.12500000000E+03 0.  0.
         25    1    1    2    0    0 -0.41132759486E+02  0.19379804241E+02 -0.33491451579E+02  0.13716471137E+03  0.12500000000E+03 0.  0.
         25    1    1    2    0    0  0.10684527177E+03  0.67444906898E+01  0.16657342699E+03  0.23416470022E+03  0.12500000000E+03 0.  0.
</event>
<event>
 5    0  0.5583350E-005  0.3513722E+03  0.7546771E-02  0.1062053E+00
         21   -1    0    0  502  501  0.00000000000E+00  0.00000000000E+00  0.23274905096E+03  0.23274905096E+03  0.00000000000E+00 0. -1.
         21   -1    0    0  501  502 -0.00000000000E+00 -0.00000000000E+00 -0.53045291295E+03  0.53045291295E+03  0.00000000000E+00 0. -1.
         25    1    1    2    0    0  0.13412922712E+03  0.88265723585E+02 -0.24223545424E+03  0.31636134849E+03  0.12500000000E+03 0.  0.
         25    1    1    2    0    0 -0.16930994407E+03  0.62750952712E+02  0.44371358423E+02  0.22404766608E+03  0.12500000000E+03 0.  0.
         25    1    1    2    0    0  0.35180716948E+02 -0.15101667630E+03 -0.99839766165E+02  0.22279294933E+03  0.12500000000E+03 0.  0.
</event>
<event>
 5    0  0.5583350E-005  0.2964965E+03  0.7546771E-02  0.1087005E+00
         21   -1    0    0  502  501  0.00000000000E+00  0.00000000000E+00  0.39440530937E+03  0.39440530937E+03  0.00000000000E+00 0.  1.
         21   -1    0    0  501  502 -0.00000000000E+00 -0.00000000000E+00 -0.22289299936E+03  0.22289299936E+03  0.00000000000E+00 0.  1.
         25    1    1    2    0    0 -0.14225808777E+03 -0.63736372311E+02  0.24116540809E+03  0.31318595554E+03  0.12500000000E+03 0.  0.
         25    1    1    2    0    0  0.72897043153E+02  0.17516254457E+02 -0.32197585685E+02  0.14927318110E+03  0.12500000000E+03 0.  0.
         25    1    1    2    0    0  0.69361044616E+02  0.46220117854E+02 -0.37455512387E+02  0.15483917209E+03  0.12500000000E+03 0.  0.
</event>
<event>
 5    0  0.5583350E-005  0.2396665E+03  0.7546771E-02  0.1120015E+00
         21   -1    0    0  502  501  0.00000000000E+00  0.00000000000E+00  0.12070682486E+03  0.12070682486E+03  0.00000000000E+00 0. -1.
         21   -1    0    0  501  502 -0.00000000000E+00 -0.00000000000E+00 -0.47586390010E+03  0.47586390010E+03  0.00000000000E+00 0. -1.
         25    1    1    2    0    0 -0.77035578033E+01 -0.36429820881E+02 -0.53512193415E+02  0.14097883350E+03  0.12500000000E+03 0.  0.
         25    1    1    2    0    0  0.81456044140E+02 -0.37052680447E+02 -0.23272788778E+03  0.27891801306E+03  0.12500000000E+03 0.  0.
         25    1    1    2    0    0 -0.73752486337E+02  0.73482501328E+02 -0.68916994043E+02  0.17667387840E+03  0.12500000000E+03 0.  0.
</event>
<event>
 5    0  0.5583350E-005  0.6356303E+03  0.7546771E-02  0.9834123E-01
         21   -1    0    0  502  501  0.00000000000E+00  0.00000000000E+00  0.37543579757E+03  0.37543579757E+03  0.00000000000E+00 0.  1.
         21   -1    0    0  501  502 -0.00000000000E+00 -0.00000000000E+00 -0.10761517543E+04  0.10761517543E+04  0.00000000000E+00 0.  1.
         25    1    1    2    0    0 -0.15568812070E+03  0.48880567303E+03 -0.22157033611E+01  0.52801485419E+03  0.12500000000E+03 0.  0.
         25    1    1    2    0    0  0.12933384633E+03 -0.12736355747E+03 -0.23752582535E+03  0.32402505657E+03  0.12500000000E+03 0.  0.
         25    1    1    2    0    0  0.26354274369E+02 -0.36144211556E+03 -0.46097442806E+03  0.59954764115E+03  0.12500000000E+03 0.  0.
</event>
<event>
 5    0  0.5583350E-005  0.2358837E+03  0.7546771E-02  0.1122566E+00
         21   -1    0    0  502  501  0.00000000000E+00  0.00000000000E+00  0.30781085342E+02  0.30781085342E+02  0.00000000000E+00 0. -1.
         21   -1    0    0  501  502 -0.00000000000E+00 -0.00000000000E+00 -0.18076394616E+04  0.18076394616E+04  0.00000000000E+00 0. -1.
         25    1    1    2    0    0 -0.37723306320E+02 -0.11472648537E+02 -0.30773938019E+03  0.33448945518E+03  0.12500000000E+03 0.  0.
         25    1    1    2    0    0  0.53588814584E+02  0.99020587748E+02 -0.78129263277E+03  0.79919960953E+03  0.12500000000E+03 0.  0.
         25    1    1    2    0    0 -0.15865508264E+02 -0.87547939211E+02 -0.68782636329E+03  0.70473148223E+03  0.12500000000E+03 0.  0.
</event>
<event>
 5    0  0.5583350E-005  0.2715066E+03  0.7546771E-02  0.1100420E+00
         21   -1    0    0  502  501  0.00000000000E+00  0.00000000000E+00  0.17515558201E+03  0.17515558201E+03  0.00000000000E+00 0. -1.
         21   -1    0    0  501  502 -0.00000000000E+00 -0.00000000000E+00 -0.42085903240E+03  0.42085903240E+03  0.00000000000E+00 0. -1.
         25    1    1    2    0    0 -0.76919190702E+01  0.17225288084E+03 -0.17440828657E+03  0.27526981491E+03  0.12500000000E+03 0.  0.
         25    1    1    2    0    0 -0.21507090934E+02 -0.90143512160E+02 -0.63809058441E+02  0.16818146058E+03  0.12500000000E+03 0.  0.
         25    1    1    2    0    0  0.29199010004E+02 -0.82109368678E+02 -0.74861053820E+01  0.15256333892E+03  0.12500000000E+03 0.  0.
</event>
<event>
 5    0  0.5583350E-005  0.4389663E+03  0.7546771E-02  0.1031064E+00
         21   -1    0    0  502  501  0.00000000000E+00  0.00000000000E+00  0.89283117431E+03  0.89283117431E+03  0.00000000000E+00 0. -1.
         21   -1    0    0  501  502 -0.00000000000E+00 -0.00000000000E+00 -0.21582069399E+03  0.21582069399E+03  0.00000000000E+00 0. -1.
         25    1    1    2    0    0  0.79236956159E+02  0.20313253107E+03  0.36656719668E+03  0.44445228099E+03  0.12500000000E+03 0.  0.
         25    1    1    2    0    0 -0.66669382122E+02 -0.11867765553E+03 -0.11155781369E+03  0.21586879865E+03  0.12500000000E+03 0.  0.
         25    1    1    2    0    0 -0.12567574037E+02 -0.84454875536E+02  0.42200109733E+03  0.44833078867E+03  0.12500000000E+03 0.  0.
</event>
<event>
 5    0  0.5583350E-005  0.2254515E+03  0.7546771E-02  0.1129883E+00
         21   -1    0    0  502  501  0.00000000000E+00  0.00000000000E+00  0.50599342018E+03  0.50599342018E+03  0.00000000000E+00 0. -1.
         21   -1    0    0  501  502 -0.00000000000E+00 -0.00000000000E+00 -0.10045263910E+03  0.10045263910E+03  0.00000000000E+00 0. -1.
         25    1    1    2    0    0 -0.21390513839E+02 -0.62904288870E+02  0.94682280055E+02  0.17030630581E+03  0.12500000000E+03 0.  0.
         25    1    1    2    0    0  0.24644484272E+02 -0.44072836662E+02  0.18528928238E+03  0.22914380572E+03  0.12500000000E+03 0.  0.
         25    1    1    2    0    0 -0.32539704327E+01  0.10697712553E+03  0.12556921864E+03  0.20699594774E+03  0.12500000000E+03 0.  0.
</event>
<event>
 5    0  0.5583350E-005  0.3703662E+03  0.7546771E-02  0.1054553E+00
         21   -1    0    0  502  501  0.00000000000E+00  0.00000000000E+00  0.94289457250E+03  0.94289457250E+03  0.00000000000E+00 0.  1.
         21   -1    0    0  501  502 -0.00000000000E+00 -0.00000000000E+00 -0.14547872476E+03  0.14547872476E+03  0.00000000000E+00 0.  1.
         25    1    1    2    0    0 -0.27229238981E+03  0.70686963294E+02  0.51958441983E+03  0.60393109016E+03  0.12500000000E+03 0.  0.
         25    1    1    2    0    0  0.55628465960E+02 -0.27398399369E+02  0.68664943185E+02  0.15551550706E+03  0.12500000000E+03 0.  0.
         25    1    1    2    0    0  0.21666392385E+03 -0.43288563925E+02  0.20916648473E+03  0.32892670004E+03  0.12500000000E+03 0.  0.
</event>
<event>
 5    0  0.5583350E-005  0.2808874E+03  0.7546771E-02  0.1095205E+00
         21   -1    0    0  502  501  0.00000000000E+00  0.00000000000E+00  0.32518080720E+03  0.32518080720E+03  0.00000000000E+00 0. -1.
         21   -1    0    0  501  502 -0.00000000000E+00 -0.00000000000E+00 -0.24262720248E+03  0.24262720248E+03  0.00000000000E+00 0. -1.
         25    1    1    2    0    0 -0.36285966375E+02 -0.17991138355E+03  0.10740910474E+02  0.22231766562E+03  0.12500000000E+03 0.  0.
         25    1    1    2    0    0  0.57427718843E+02  0.52147815311E+02 -0.10677043195E+02  0.14750029418E+03  0.12500000000E+03 0.  0.
         25    1    1    2    0    0 -0.21141752469E+02  0.12776356824E+03  0.82489737447E+02  0.19799004988E+03  0.12500000000E+03 0.  0.
</event>
<event>
 5    0  0.5583350E-005  0.3437431E+03  0.7546771E-02  0.1065213E+00
         21   -1    0    0  502  501  0.00000000000E+00  0.00000000000E+00  0.17236882093E+04  0.17236882093E+04  0.00000000000E+00 0. -1.
         21   -1    0    0  501  502 -0.00000000000E+00 -0.00000000000E+00 -0.68550301274E+02  0.68550301274E+02  0.00000000000E+00 0. -1.
         25    1    1    2    0    0 -0.97242272148E+02  0.24702744809E+03  0.55104233283E+03  0.62430062644E+03  0.12500000000E+03 0.  0.
         25    1    1    2    0    0  0.71784780742E+02 -0.71847588083E+02  0.54551279408E+03  0.56879199991E+03  0.12500000000E+03 0.  0.
         25    1    1    2    0    0  0.25457491406E+02 -0.17517986001E+03  0.55858278113E+03  0.59914588424E+03  0.12500000000E+03 0.  0.
</event>
<event>
 5    0  0.5583350E-005  0.4410299E+03  0.7546771E-02  0.1030431E+00
         21   -1    0    0  502  501  0.00000000000E+00  0.00000000000E+00  0.18311240065E+04  0.18311240065E+04  0.00000000000E+00 0.  1.
         21   -1    0    0  501  502 -0.00000000000E+00 -0.00000000000E+00 -0.10622292199E+03  0.10622292199E+03  0.00000000000E+00 0.  1.
         25    1    1    2    0    0  0.23725585573E+02  0.15329493963E+03  0.69499295865E+02  0.21099145493E+03  0.12500000000E+03 0.  0.
         25    1    1    2    0    0  0.14856921439E+03 -0.18753256326E+03  0.80517664136E+03  0.84922064126E+03  0.12500000000E+03 0.  0.
         25    1    1    2    0    0 -0.17229479996E+03  0.34237623625E+02  0.85022514733E+03  0.87713483235E+03  0.12500000000E+03 0.  0.
</event>
<event>
 5    0  0.5583350E-005  0.4453668E+03  0.7546771E-02  0.1029113E+00
         21   -1    0    0  502  501  0.00000000000E+00  0.00000000000E+00  0.83335783112E+03  0.83335783112E+03  0.00000000000E+00 0.  1.
         21   -1    0    0  501  502 -0.00000000000E+00 -0.00000000000E+00 -0.23801492180E+03  0.23801492180E+03  0.00000000000E+00 0. -1.
         25    1    1    2    0    0  0.44556880582E+02 -0.38626224312E+03  0.22169835271E+03  0.46471388581E+03  0.12500000000E+03 0.  0.
         25    1    1    2    0    0 -0.17023710831E+02  0.29252081170E+03  0.26493620181E+03  0.41433612326E+03  0.12500000000E+03 0.  0.
         25    1    1    2    0    0 -0.27533169752E+02  0.93741431425E+02  0.10870835480E+03  0.19232274386E+03  0.12500000000E+03 0.  0.
</event>
<event>
 5    0  0.5583350E-005  0.2266115E+03  0.7546771E-02  0.1129048E+00
         21   -1    0    0  502  501  0.00000000000E+00  0.00000000000E+00  0.84562788162E+03  0.84562788162E+03  0.00000000000E+00 0. -1.
         21   -1    0    0  501  502 -0.00000000000E+00 -0.00000000000E+00 -0.60727374140E+02  0.60727374140E+02  0.00000000000E+00 0. -1.
         25    1    1    2    0    0  0.23978966387E+02 -0.72223570162E+02  0.37938937224E+03  0.40663562397E+03  0.12500000000E+03 0.  0.
         25    1    1    2    0    0 -0.38918503547E+02  0.63274675317E+02  0.30673234935E+03  0.33945260139E+03  0.12500000000E+03 0.  0.
         25    1    1    2    0    0  0.14939537159E+02  0.89488948453E+01  0.98778785894E+02  0.16026703040E+03  0.12500000000E+03 0.  0.
</event>
<event>
 5    0  0.5583350E-005  0.3053812E+03  0.7546771E-02  0.1082581E+00
         21   -1    0    0  502  501  0.00000000000E+00  0.00000000000E+00  0.20418093038E+03  0.20418093038E+03  0.00000000000E+00 0. -1.
         21   -1    0    0  501  502 -0.00000000000E+00 -0.00000000000E+00 -0.45674036815E+03  0.45674036815E+03  0.00000000000E+00 0. -1.
         25    1    1    2    0    0  0.31393151834E+02  0.63326273882E+02 -0.12431346615E+03  0.18993310615E+03  0.12500000000E+03 0.  0.
         25    1    1    2    0    0 -0.34722087906E+02 -0.19283989191E+03  0.26068372246E+02  0.23387476848E+03  0.12500000000E+03 0.  0.
         25    1    1    2    0    0  0.33289360718E+01  0.12951361803E+03 -0.15431434386E+03  0.23711342390E+03  0.12500000000E+03 0.  0.
</event>
<event>
 5    0  0.5583350E-005  0.2129183E+03  0.7546771E-02  0.1139276E+00
         21   -1    0    0  502  501  0.00000000000E+00  0.00000000000E+00  0.37952070105E+03  0.37952070105E+03  0.00000000000E+00 0. -1.
         21   -1    0    0  501  502 -0.00000000000E+00 -0.00000000000E+00 -0.11945120695E+03  0.11945120695E+03  0.00000000000E+00 0. -1.
         25    1    1    2    0    0 -0.40806883843E+02  0.45467887035E+02  0.12219081633E+03  0.18517053253E+03  0.12500000000E+03 0.  0.
         25    1    1    2    0    0  0.73266002417E+02 -0.40894187174E+02  0.55001905915E+02  0.16028241110E+03  0.12500000000E+03 0.  0.
         25    1    1    2    0    0 -0.32459118574E+02 -0.45736998614E+01  0.82876771852E+02  0.15351896437E+03  0.12500000000E+03 0.  0.
</event>
<event>
 5    0  0.5583350E-005  0.3466608E+03  0.7546771E-02  0.1063994E+00
         21   -1    0    0  502  501  0.00000000000E+00  0.00000000000E+00  0.19447744845E+03  0.19447744845E+03  0.00000000000E+00 0.  1.
         21   -1    0    0  501  502 -0.00000000000E+00 -0.00000000000E+00 -0.61793137518E+03  0.61793137518E+03  0.00000000000E+00 0.  1.
         25    1    1    2    0    0  0.16422665623E+02 -0.11214278010E+03 -0.83878851987E+02  0.18843133732E+03  0.12500000000E+03 0.  0.
         25    1    1    2    0    0  0.19944878322E+03  0.75286553342E+02 -0.26198555297E+03  0.36015179051E+03  0.12500000000E+03 0.  0.
         25    1    1    2    0    0 -0.21587144884E+03  0.36856226757E+02 -0.77589521773E+02  0.26382569580E+03  0.12500000000E+03 0.  0.
</event>
<event>
 5    0  0.5583350E-005  0.3290365E+03  0.7546771E-02  0.1071564E+00
         21   -1    0    0  502  501  0.00000000000E+00  0.00000000000E+00  0.98111972538E+02  0.98111972538E+02  0.00000000000E+00 0.  1.
         21   -1    0    0  501  502 -0.00000000000E+00 -0.00000000000E+00 -0.11034845602E+04  0.11034845602E+04  0.00000000000E+00 0.  1.
         25    1    1    2    0    0 -0.56224881685E+02  0.14231585830E+03 -0.13496938701E+03  0.23928388218E+03  0.12500000000E+03 0.  0.
         25    1    1    2    0    0 -0.23550966172E+00  0.65482417295E+02 -0.47075392410E+03  0.49144914233E+03  0.12500000000E+03 0.  0.
         25    1    1    2    0    0  0.56460391347E+02 -0.20779827559E+03 -0.39964927657E+03  0.47086350824E+03  0.12500000000E+03 0.  0.
</event>
<event>
 5    0  0.5583350E-005  0.3614178E+03  0.7546771E-02  0.1058024E+00
         21   -1    0    0  502  501  0.00000000000E+00  0.00000000000E+00  0.14938166161E+03  0.14938166161E+03  0.00000000000E+00 0. -1.
         21   -1    0    0  501  502 -0.00000000000E+00 -0.00000000000E+00 -0.87442335236E+03  0.87442335236E+03  0.00000000000E+00 0. -1.
         25    1    1    2    0    0  0.32247913843E+02  0.29138516353E+03 -0.35236825060E+03  0.47511432888E+03  0.12500000000E+03 0.  0.
         25    1    1    2    0    0  0.13270067410E+02 -0.21104594616E+03 -0.20367493967E+03  0.31910024621E+03  0.12500000000E+03 0.  0.
         25    1    1    2    0    0 -0.45517981253E+02 -0.80339217376E+02 -0.16899850048E+03  0.22959043889E+03  0.12500000000E+03 0.  0.
</event>
<event>
 5    0  0.5583350E-005  0.2381809E+03  0.7546771E-02  0.1121011E+00
         21   -1    0    0  502  501  0.00000000000E+00  0.00000000000E+00  0.24905923925E+03  0.24905923925E+03  0.00000000000E+00 0.  1.
         21   -1    0    0  501  502 -0.00000000000E+00 -0.00000000000E+00 -0.22777777778E+03  0.22777777778E+03  0.00000000000E+00 0.  1.
         25    1    1    2    0    0  0.42785536424E+02 -0.45762475451E+02  0.22436323023E+02  0.14160930364E+03  0.12500000000E+03 0.  0.
         25    1    1    2    0    0 -0.12130067915E+03  0.37722485919E+02 -0.39415037211E+02  0.18252502805E+03  0.12500000000E+03 0.  0.
         25    1    1    2    0    0  0.78515142722E+02  0.80399895318E+01  0.38260175656E+02  0.15270268534E+03  0.12500000000E+03 0.  0.
</event>
<event>
 5    0  0.5583350E-005  0.2483414E+03  0.7546771E-02  0.1114358E+00
         21   -1    0    0  502  501  0.00000000000E+00  0.00000000000E+00  0.10435294401E+03  0.10435294401E+03  0.00000000000E+00 0.  1.
         21   -1    0    0  501  502 -0.00000000000E+00 -0.00000000000E+00 -0.59100837280E+03  0.59100837280E+03  0.00000000000E+00 0.  1.
         25    1    1    2    0    0  0.10513163132E+03 -0.25986962918E+02 -0.51821151874E+02  0.17331593674E+03  0.12500000000E+03 0.  0.
         25    1    1    2    0    0 -0.52203118803E+02  0.35467007753E+02 -0.29701788546E+03  0.32837128153E+03  0.12500000000E+03 0.  0.
         25    1    1    2    0    0 -0.52928512522E+02 -0.94800448355E+01 -0.13781639147E+03  0.19367409854E+03  0.12500000000E+03 0.  0.
</event>
<event>
 5    0  0.5583350E-005  0.2599338E+03  0.7546771E-02  0.1107183E+00
         21   -1    0    0  502  501  0.00000000000E+00  0.00000000000E+00  0.29224873358E+03  0.29224873358E+03  0.00000000000E+00 0. -1.
         21   -1    0    0  501  502 -0.00000000000E+00 -0.00000000000E+00 -0.23119211183E+03  0.23119211183E+03  0.00000000000E+00 0. -1.
         25    1    1    2    0    0 -0.62606845130E-02 -0.34931344798E+02 -0.23410073067E+02  0.13188339702E+03  0.12500000000E+03 0.  0.
         25    1    1    2    0    0 -0.97484683357E+02  0.11790525066E+03  0.78346401646E+02  0.21252781059E+03  0.12500000000E+03 0.  0.
         25    1    1    2    0    0  0.97490944042E+02 -0.82973905863E+02  0.61202931732E+01  0.17902963781E+03  0.12500000000E+03 0.  0.
</event>
<event>
 5    0  0.5583350E-005  0.2220686E+03  0.7546771E-02  0.1132350E+00
         21   -1    0    0  502  501  0.00000000000E+00  0.00000000000E+00  0.83691231620E+02  0.83691231620E+02  0.00000000000E+00 0.  1.
         21   -1    0    0  501  502 -0.00000000000E+00 -0.00000000000E+00 -0.58924304283E+03  0.58924304283E+03  0.00000000000E+00 0.  1.
         25    1    1    2    0    0 -0.43740757304E+02  0.81032372143E+02 -0.16656302909E+03  0.22770099219E+03  0.12500000000E+03 0.  0.
         25    1    1    2    0    0  0.58914419413E+02 -0.85509260913E+02 -0.18382464550E+03  0.24535533988E+03  0.12500000000E+03 0.  0.
         25    1    1    2    0    0 -0.15173662110E+02  0.44768887709E+01 -0.15516413662E+03  0.19987794237E+03  0.12500000000E+03 0.  0.
</event>
<event>
 5    0  0.5583350E-005  0.3856343E+03  0.7546771E-02  0.1048871E+00
         21   -1    0    0  502  501  0.00000000000E+00  0.00000000000E+00  0.16838153129E+03  0.16838153129E+03  0.00000000000E+00 0. -1.
         21   -1    0    0  501  502 -0.00000000000E+00 -0.00000000000E+00 -0.88319563155E+03  0.88319563155E+03  0.00000000000E+00 0. -1.
         25    1    1    2    0    0  0.43628452212E+02  0.70688940370E+02  0.99749194051E+02  0.18020896162E+03  0.12500000000E+03 0.  0.
         25    1    1    2    0    0 -0.90684779904E+02  0.41195317702E+00 -0.34394447587E+03  0.37702347605E+03  0.12500000000E+03 0.  0.
         25    1    1    2    0    0  0.47056327692E+02 -0.71100893547E+02 -0.47061881844E+03  0.49434472518E+03  0.12500000000E+03 0.  0.
</event>
<event>
 5    0  0.5675201E-005  0.2735323E+03  0.7546771E-02  0.1099275E+00
         21   -1    0    0  502  501  0.00000000000E+00  0.00000000000E+00  0.84106435342E+02  0.84106435342E+02  0.00000000000E+00 0.  1.
         21   -1    0    0  501  502 -0.00000000000E+00 -0.00000000000E+00 -0.88958644378E+03  0.88958644378E+03  0.00000000000E+00 0.  1.
         25    1    1    2    0    0  0.44361516325E+01  0.91118590976E+02 -0.37930795288E+03  0.40966059145E+03  0.12500000000E+03 0.  0.
         25    1    1    2    0    0  0.48774689063E+02 -0.75934417604E+02 -0.47322509240E+02  0.16127438095E+03  0.12500000000E+03 0.  0.
         25    1    1    2    0    0 -0.53210840696E+02 -0.15184173372E+02 -0.37884954632E+03  0.40275790673E+03  0.12500000000E+03 0.  0.
</event>
<event>
 5    0  0.5583350E-005  0.2086119E+03  0.7546771E-02  0.1142670E+00
         21   -1    0    0  502  501  0.00000000000E+00  0.00000000000E+00  0.45632153063E+03  0.45632153063E+03  0.00000000000E+00 0. -1.
         21   -1    0    0  501  502 -0.00000000000E+00 -0.00000000000E+00 -0.95369027611E+02  0.95369027611E+02  0.00000000000E+00 0. -1.
         25    1    1    2    0    0 -0.40462282391E+02 -0.74988057230E+02  0.13023981715E+03  0.19961917492E+03  0.12500000000E+03 0.  0.
         25    1    1    2    0    0  0.22004181235E+02  0.46169811294E+02  0.13499094486E+03  0.19095389669E+03  0.12500000000E+03 0.  0.
         25    1    1    2    0    0  0.18458101156E+02  0.28818245936E+02  0.95721741000E+02  0.16111748663E+03  0.12500000000E+03 0.  0.
</event>
<event>
 5    0  0.5583350E-005  0.2659161E+03  0.7546771E-02  0.1103640E+00
         21   -1    0    0  502  501  0.00000000000E+00  0.00000000000E+00  0.93020219402E+03  0.93020219402E+03  0.00000000000E+00 0.  1.
         21   -1    0    0  501  502 -0.00000000000E+00 -0.00000000000E+00 -0.76017177987E+02  0.76017177987E+02  0.00000000000E+00 0.  1.
         25    1    1    2    0    0 -0.73125613615E+02 -0.18929888434E+02  0.71747857210E+02  0.16272200545E+03  0.12500000000E+03 0.  0.
         25    1    1    2    0    0  0.70736028540E+02 -0.51991907206E+02  0.54445193427E+03  0.56547294619E+03  0.12500000000E+03 0.  0.
         25    1    1    2    0    0  0.23895850754E+01  0.70921795639E+02  0.23798522455E+03  0.27802442036E+03  0.12500000000E+03 0.  0.
</event>
<event>
 5    0  0.5583350E-005  0.6055243E+03  0.7546771E-02  0.9894011E-01
         21   -1    0    0  502  501  0.00000000000E+00  0.00000000000E+00  0.52007386138E+03  0.52007386138E+03  0.00000000000E+00 0.  1.
         21   -1    0    0  501  502 -0.00000000000E+00 -0.00000000000E+00 -0.70501472654E+03  0.70501472654E+03  0.00000000000E+00 0.  1.
         25    1    1    2    0    0  0.12141387103E+03  0.61373107681E+02  0.10473797685E+03  0.21237474007E+03  0.12500000000E+03 0.  0.
         25    1    1    2    0    0  0.20926466758E+03  0.14901177639E+02  0.25873864549E+03  0.35578706113E+03  0.12500000000E+03 0.  0.
         25    1    1    2    0    0 -0.33067853861E+03 -0.76274285321E+02 -0.54841748751E+03  0.65692678672E+03  0.12500000000E+03 0.  0.
</event>
<event>
 5    0  0.5603907E-005  0.3356763E+03  0.7546771E-02  0.1068653E+00
         21   -1    0    0  502  501  0.00000000000E+00  0.00000000000E+00  0.32401927599E+03  0.32401927599E+03  0.00000000000E+00 0. -1.
         21   -1    0    0  501  502 -0.00000000000E+00 -0.00000000000E+00 -0.34775267008E+03  0.34775267008E+03  0.00000000000E+00 0. -1.
         25    1    1    2    0    0 -0.16900164277E+03  0.43086601060E+02  0.10757767403E+03  0.24003326103E+03  0.12500000000E+03 0.  0.
         25    1    1    2    0    0  0.12317954929E+03  0.11097675241E+03 -0.63757337365E+02  0.21720736407E+03  0.12500000000E+03 0.  0.
         25    1    1    2    0    0  0.45822093480E+02 -0.15406335347E+03 -0.67553730753E+02  0.21453132096E+03  0.12500000000E+03 0.  0.
</event>
<event>
 5    0  0.5583350E-005  0.3693499E+03  0.7546771E-02  0.1054942E+00
         21   -1    0    0  502  501  0.00000000000E+00  0.00000000000E+00  0.19973647360E+03  0.19973647360E+03  0.00000000000E+00 0.  1.
         21   -1    0    0  501  502 -0.00000000000E+00 -0.00000000000E+00 -0.68299670186E+03  0.68299670186E+03  0.00000000000E+00 0.  1.
         25    1    1    2    0    0 -0.21657800408E+03 -0.11700329584E+03 -0.28709953195E+03  0.39830508951E+03  0.12500000000E+03 0.  0.
         25    1    1    2    0    0  0.21360940531E+03  0.14303642394E+03 -0.21178186293E+03  0.35575968585E+03  0.12500000000E+03 0.  0.
         25    1    1    2    0    0  0.29685987667E+01 -0.26033128092E+02  0.15621166610E+02  0.12866840010E+03  0.12500000000E+03 0.  0.
</event>
<event>
 5    0  0.5583350E-005  0.2883063E+03  0.7546771E-02  0.1091237E+00
         21   -1    0    0  502  501  0.00000000000E+00  0.00000000000E+00  0.92130379654E+02  0.92130379654E+02  0.00000000000E+00 0. -1.
         21   -1    0    0  501  502 -0.00000000000E+00 -0.00000000000E+00 -0.90220559782E+03  0.90220559782E+03  0.00000000000E+00 0. -1.
         25    1    1    2    0    0  0.38452313680E+02  0.42378062153E+02 -0.33857813689E+02  0.14158330455E+03  0.12500000000E+03 0.  0.
         25    1    1    2    0    0 -0.11496211420E+03 -0.78360086339E+02 -0.30320898160E+03  0.35625451205E+03  0.12500000000E+03 0.  0.
         25    1    1    2    0    0  0.76509800519E+02  0.35982024186E+02 -0.47300842288E+03  0.49649816088E+03  0.12500000000E+03 0.  0.
</event>
<event>
 5    0  0.5583350E-005  0.3579491E+03  0.7546771E-02  0.1059399E+00
         21   -1    0    0  502  501  0.00000000000E+00  0.00000000000E+00  0.80691123881E+02  0.80691123881E+02  0.00000000000E+00 0.  1.
         21   -1    0    0  501  502 -0.00000000000E+00 -0.00000000000E+00 -0.15878770602E+04  0.15878770602E+04  0.00000000000E+00 0.  1.
         25    1    1    2    0    0  0.19497511373E+02 -0.22717008624E+02 -0.76644213081E+02  0.14965143110E+03  0.12500000000E+03 0.  0.
         25    1    1    2    0    0  0.34336250096E+02  0.20886719244E+03 -0.46229887069E+03  0.52359309391E+03  0.12500000000E+03 0.  0.
         25    1    1    2    0    0 -0.53833761470E+02 -0.18615018381E+03 -0.96824285256E+03  0.99532365909E+03  0.12500000000E+03 0.  0.
</event>
<event>
 5    0  0.5583350E-005  0.3299173E+03  0.7546771E-02  0.1071173E+00
         21   -1    0    0  502  501  0.00000000000E+00  0.00000000000E+00  0.58291338002E+02  0.58291338002E+02  0.00000000000E+00 0.  1.
         21   -1    0    0  501  502 -0.00000000000E+00 -0.00000000000E+00 -0.18672660231E+04  0.18672660231E+04  0.00000000000E+00 0.  1.
         25    1    1    2    0    0  0.21498540569E+02 -0.82000766910E+02 -0.21370267432E+03  0.26168711476E+03  0.12500000000E+03 0.  0.
         25    1    1    2    0    0  0.33650038323E+02 -0.89254290538E+02 -0.12139941131E+04  0.12241345351E+04  0.12500000000E+03 0.  0.
         25    1    1    2    0    0 -0.55148578892E+02  0.17125505745E+03 -0.38127789768E+03  0.43973571121E+03  0.12500000000E+03 0.  0.
</event>
<event>
 5    0  0.5583350E-005  0.2214921E+03  0.7546771E-02  0.1132776E+00
         21   -1    0    0  502  501  0.00000000000E+00  0.00000000000E+00  0.93909231687E+03  0.93909231687E+03  0.00000000000E+00 0.  1.
         21   -1    0    0  501  502 -0.00000000000E+00 -0.00000000000E+00 -0.52240583726E+02  0.52240583726E+02  0.00000000000E+00 0.  1.
         25    1    1    2    0    0  0.45679318661E+02 -0.79977512797E+02  0.32950299874E+03  0.36425297375E+03  0.12500000000E+03 0.  0.
         25    1    1    2    0    0 -0.48470043114E+02  0.98944805790E+01  0.18992177393E+03  0.23268546590E+03  0.12500000000E+03 0.  0.
         25    1    1    2    0    0  0.27907244534E+01  0.70083032218E+02  0.36742696047E+03  0.39439446095E+03  0.12500000000E+03 0.  0.
</event>
<event>
 5    0  0.5583350E-005  0.2533965E+03  0.7546771E-02  0.1111177E+00
         21   -1    0    0  502  501  0.00000000000E+00  0.00000000000E+00  0.43838518584E+03  0.43838518584E+03  0.00000000000E+00 0.  1.
         21   -1    0    0  501  502 -0.00000000000E+00 -0.00000000000E+00 -0.14646885246E+03  0.14646885246E+03  0.00000000000E+00 0.  1.
         25    1    1    2    0    0 -0.58812454038E+02  0.42434193350E+02  0.26069624867E+02  0.14684750885E+03  0.12500000000E+03 0.  0.
         25    1    1    2    0    0  0.25489336456E+02 -0.11804805384E+03  0.22186828498E+03  0.28184319252E+03  0.12500000000E+03 0.  0.
         25    1    1    2    0    0  0.33323117582E+02  0.75613860494E+02  0.43978423529E+02  0.15616333693E+03  0.12500000000E+03 0.  0.
</event>
<event>
 5    0  0.5583350E-005  0.3998581E+03  0.7546771E-02  0.1043829E+00
         21   -1    0    0  502  501  0.00000000000E+00  0.00000000000E+00  0.24058998092E+03  0.24058998092E+03  0.00000000000E+00 0. -1.
         21   -1    0    0  501  502 -0.00000000000E+00 -0.00000000000E+00 -0.66456012685E+03  0.66456012685E+03  0.00000000000E+00 0. -1.
         25    1    1    2    0    0  0.44841791136E+02  0.12505771387E+03 -0.50423529941E+02  0.18925578037E+03  0.12500000000E+03 0.  0.
         25    1    1    2    0    0 -0.28504233235E+03 -0.38252821176E+02 -0.26826090511E+03  0.41267580832E+03  0.12500000000E+03 0.  0.
         25    1    1    2    0    0  0.24020054122E+03 -0.86804892692E+02 -0.10528571088E+03  0.30321851908E+03  0.12500000000E+03 0.  0.
</event>
<event>
 5    0  0.5583350E-005  0.1923749E+03  0.7546771E-02  0.1156337E+00
         21   -1    0    0  502  501  0.00000000000E+00  0.00000000000E+00  0.85801545703E+02  0.85801545703E+02  0.00000000000E+00 0. -1.
         21   -1    0    0  501  502 -0.00000000000E+00 -0.00000000000E+00 -0.43132214426E+03  0.43132214426E+03  0.00000000000E+00 0. -1.
         25    1    1    2    0    0  0.13914017337E+02 -0.52808222672E+01 -0.11181564631E+03  0.16837228311E+03  0.12500000000E+03 0.  0.
         25    1    1    2    0    0  0.11966527465E+01  0.31184734052E+02 -0.13559080566E+03  0.18703953110E+03  0.12500000000E+03 0.  0.
         25    1    1    2    0    0 -0.15110670084E+02 -0.25903911785E+02 -0.98114146598E+02  0.16171187575E+03  0.12500000000E+03 0.  0.
</event>
<event>
 5    0  0.5583350E-005  0.3567572E+03  0.7546771E-02  0.1059875E+00
         21   -1    0    0  502  501  0.00000000000E+00  0.00000000000E+00  0.12872058024E+04  0.12872058024E+04  0.00000000000E+00 0. -1.
         21   -1    0    0  501  502 -0.00000000000E+00 -0.00000000000E+00 -0.98877484537E+02  0.98877484537E+02  0.00000000000E+00 0. -1.
         25    1    1    2    0    0  0.47767077002E+02 -0.16925895092E+03  0.82927857747E+02  0.23115431145E+03  0.12500000000E+03 0.  0.
         25    1    1    2    0    0 -0.65366831061E+02  0.14975636793E+03  0.63499799852E+03  0.66749325874E+03  0.12500000000E+03 0.  0.
         25    1    1    2    0    0  0.17599754059E+02  0.19502582989E+02  0.47040246157E+03  0.48743571672E+03  0.12500000000E+03 0.  0.
</event>
<event>
 5    0  0.5583350E-005  0.2505973E+03  0.7546771E-02  0.1112928E+00
         21   -1    0    0  502  501  0.00000000000E+00  0.00000000000E+00  0.53558057626E+03  0.53558057626E+03  0.00000000000E+00 0.  1.
         21   -1    0    0  501  502 -0.00000000000E+00 -0.00000000000E+00 -0.11725412184E+03  0.11725412184E+03  0.00000000000E+00 0.  1.
         25    1    1    2    0    0 -0.38519355258E+02  0.22381307297E+01  0.13943888275E+01  0.13082696312E+03  0.12500000000E+03 0.  0.
         25    1    1    2    0    0  0.15148545858E+02 -0.88985518616E+02  0.15793711501E+03  0.22071935407E+03  0.12500000000E+03 0.  0.
         25    1    1    2    0    0  0.23370809399E+02  0.86747387887E+02  0.25899495059E+03  0.30128838090E+03  0.12500000000E+03 0.  0.
</event>
<event>
 5    0  0.5583350E-005  0.2337991E+03  0.7546771E-02  0.1123994E+00
         21   -1    0    0  502  501  0.00000000000E+00  0.00000000000E+00  0.36719396252E+03  0.36719396252E+03  0.00000000000E+00 0.  1.
         21   -1    0    0  501  502 -0.00000000000E+00 -0.00000000000E+00 -0.14886421524E+03  0.14886421524E+03  0.00000000000E+00 0.  1.
         25    1    1    2    0    0 -0.30450785389E+02 -0.93276316059E+02  0.13026626202E+03  0.20547997588E+03  0.12500000000E+03 0.  0.
         25    1    1    2    0    0  0.39927423592E+02  0.10908324276E+03  0.39041399398E+02  0.17505023243E+03  0.12500000000E+03 0.  0.
         25    1    1    2    0    0 -0.94766382026E+01 -0.15806926702E+02  0.49022085867E+02  0.13552796946E+03  0.12500000000E+03 0.  0.
</event>
<event>
 5    0  0.5583350E-005  0.4676149E+03  0.7546771E-02  0.1022596E+00
         21   -1    0    0  502  501  0.00000000000E+00  0.00000000000E+00  0.57773509032E+03  0.57773509032E+03  0.00000000000E+00 0. -1.
         21   -1    0    0  501  502 -0.00000000000E+00 -0.00000000000E+00 -0.37848443741E+03  0.37848443741E+03  0.00000000000E+00 0. -1.
         25    1    1    2    0    0 -0.55755331986E+02  0.19674181628E+03 -0.13834288057E+03  0.27673046801E+03  0.12500000000E+03 0.  0.
         25    1    1    2    0    0  0.14666140555E+03 -0.30123151473E+03  0.88697034043E+02  0.36843202520E+03  0.12500000000E+03 0.  0.
         25    1    1    2    0    0 -0.90906073568E+02  0.10448969844E+03  0.24889649943E+03  0.31105703452E+03  0.12500000000E+03 0.  0.
</event>
<event>
 5    0  0.5583350E-005  0.3381801E+03  0.7546771E-02  0.1067574E+00
         21   -1    0    0  502  501  0.00000000000E+00  0.00000000000E+00  0.44869002963E+03  0.44869002963E+03  0.00000000000E+00 0. -1.
         21   -1    0    0  501  502 -0.00000000000E+00 -0.00000000000E+00 -0.25488814498E+03  0.25488814498E+03  0.00000000000E+00 0. -1.
         25    1    1    2    0    0 -0.40523695048E+02  0.15243189807E+03 -0.69181288658E+02  0.21281142852E+03  0.12500000000E+03 0.  0.
         25    1    1    2    0    0  0.53992098831E+02 -0.22871600026E+03  0.15190980368E+03  0.30647633508E+03  0.12500000000E+03 0.  0.
         25    1    1    2    0    0 -0.13468403783E+02  0.76284102191E+02  0.11107336963E+03  0.18429041101E+03  0.12500000000E+03 0.  0.
</event>
<event>
 5    0  0.5583350E-005  0.2954523E+03  0.7546771E-02  0.1087536E+00
         21   -1    0    0  502  501  0.00000000000E+00  0.00000000000E+00  0.30466492290E+03  0.30466492290E+03  0.00000000000E+00 0. -1.
         21   -1    0    0  501  502 -0.00000000000E+00 -0.00000000000E+00 -0.28651816659E+03  0.28651816659E+03  0.00000000000E+00 0. -1.
         25    1    1    2    0    0 -0.30910833904E+02  0.96984087104E+02 -0.10266078681E+03  0.19111679662E+03  0.12500000000E+03 0.  0.
         25    1    1    2    0    0 -0.20692642903E+02  0.55164047653E+02 -0.36359272719E+02  0.14289245724E+03  0.12500000000E+03 0.  0.
         25    1    1    2    0    0  0.51603476806E+02 -0.15214813476E+03  0.15716681584E+03  0.25717383562E+03  0.12500000000E+03 0.  0.
</event>
<event>
 5    0  0.5583350E-005  0.2719347E+03  0.7546771E-02  0.1100177E+00
         21   -1    0    0  502  501  0.00000000000E+00  0.00000000000E+00  0.26991014198E+03  0.26991014198E+03  0.00000000000E+00 0. -1.
         21   -1    0    0  501  502 -0.00000000000E+00 -0.00000000000E+00 -0.27397443872E+03  0.27397443872E+03  0.00000000000E+00 0. -1.
         25    1    1    2    0    0  0.10394353130E+03  0.67062101378E+02  0.10727675482E+03  0.20599729432E+03  0.12500000000E+03 0.  0.
         25    1    1    2    0    0 -0.44707000423E+02  0.29426010779E+02 -0.32804656253E+00  0.13597688631E+03  0.12500000000E+03 0.  0.
         25    1    1    2    0    0 -0.59236530877E+02 -0.96488112157E+02 -0.11101300500E+03  0.20191040007E+03  0.12500000000E+03 0.  0.
</event>
<event>
 5    0  0.5583350E-005  0.4957960E+03  0.7546771E-02  0.1014882E+00
         21   -1    0    0  502  501  0.00000000000E+00  0.00000000000E+00  0.37454028774E+03  0.37454028774E+03  0.00000000000E+00 0.  1.
         21   -1    0    0  501  502 -0.00000000000E+00 -0.00000000000E+00 -0.65630765744E+03  0.65630765744E+03  0.00000000000E+00 0.  1.
         25    1    1    2    0    0  0.29212508037E+03  0.13297897949E+03 -0.14454571826E+03  0.37354910819E+03  0.12500000000E+03 0.  0.
         25    1    1    2    0    0 -0.21328393864E+03  0.12448209846E+03 -0.21492770209E+03  0.35043508450E+03  0.12500000000E+03 0.  0.
         25    1    1    2    0    0 -0.78841141721E+02 -0.25746107795E+03  0.77706050640E+02  0.30686375249E+03  0.12500000000E+03 0.  0.
</event>
<event>
 5    0  0.5583350E-005  0.3902036E+03  0.7546771E-02  0.1047226E+00
         21   -1    0    0  502  501  0.00000000000E+00  0.00000000000E+00  0.15625041612E+03  0.15625041612E+03  0.00000000000E+00 0. -1.
         21   -1    0    0  501  502 -0.00000000000E+00 -0.00000000000E+00 -0.97445392262E+03  0.97445392262E+03  0.00000000000E+00 0. -1.
         25    1    1    2    0    0  0.14110678993E+03  0.38465463710E+01 -0.13307686453E+03  0.23078209193E+03  0.12500000000E+03 0.  0.
         25    1    1    2    0    0 -0.22407354070E+03 -0.17016745795E+03 -0.57057335524E+03  0.64834008753E+03  0.12500000000E+03 0.  0.
         25    1    1    2    0    0  0.82966750768E+02  0.16632091158E+03 -0.11455328673E+03  0.25158215927E+03  0.12500000000E+03 0.  0.
</event>
<event>
 5    0  0.5583350E-005  0.2069387E+03  0.7546771E-02  0.1144013E+00
         21   -1    0    0  502  501  0.00000000000E+00  0.00000000000E+00  0.14327627793E+03  0.14327627793E+03  0.00000000000E+00 0.  1.
         21   -1    0    0  501  502 -0.00000000000E+00 -0.00000000000E+00 -0.29888843699E+03  0.29888843699E+03  0.00000000000E+00 0.  1.
         25    1    1    2    0    0  0.21163600462E+02  0.28960315648E+02 -0.91819761426E+02  0.15919317339E+03  0.12500000000E+03 0.  0.
         25    1    1    2    0    0  0.43467333611E+02 -0.13283175457E+02 -0.43467150737E+02  0.13992942877E+03  0.12500000000E+03 0.  0.
         25    1    1    2    0    0 -0.64630934072E+02 -0.15677140191E+02 -0.20325246898E+02  0.14304211277E+03  0.12500000000E+03 0.  0.
</event>
<event>
 5    0  0.5583350E-005  0.2708878E+03  0.7546771E-02  0.1100773E+00
         21   -1    0    0  502  501  0.00000000000E+00  0.00000000000E+00  0.58178230419E+03  0.58178230419E+03  0.00000000000E+00 0. -1.
         21   -1    0    0  501  502 -0.00000000000E+00 -0.00000000000E+00 -0.12613001563E+03  0.12613001563E+03  0.00000000000E+00 0. -1.
         25    1    1    2    0    0  0.44824654718E+02  0.47338527439E+02  0.15666488403E+03  0.21075832543E+03  0.12500000000E+03 0.  0.
         25    1    1    2    0    0  0.15216260680E+02 -0.56271019544E+02  0.32744809030E+03  0.35531002529E+03  0.12500000000E+03 0.  0.
         25    1    1    2    0    0 -0.60040915398E+02  0.89324921049E+01 -0.28460685773E+02  0.14184396911E+03  0.12500000000E+03 0.  0.
</event>
<event>
 5    0  0.5583350E-005  0.4379804E+03  0.7546771E-02  0.1031368E+00
         21   -1    0    0  502  501  0.00000000000E+00  0.00000000000E+00  0.15041447440E+04  0.15041447440E+04  0.00000000000E+00 0. -1.
         21   -1    0    0  501  502 -0.00000000000E+00 -0.00000000000E+00 -0.12753215620E+03  0.12753215620E+03  0.00000000000E+00 0. -1.
         25    1    1    2    0    0 -0.11853792727E+03  0.10989043195E+03  0.17544337309E+03  0.26931862987E+03  0.12500000000E+03 0.  0.
         25    1    1    2    0    0  0.28196869412E+03 -0.22969053550E+03  0.89795911545E+03  0.97684167580E+03  0.12500000000E+03 0.  0.
         25    1    1    2    0    0 -0.16343076684E+03  0.11980010356E+03  0.30321009926E+03  0.38551659453E+03  0.12500000000E+03 0.  0.
</event>
<event>
 5    0  0.5583350E-005  0.2552663E+03  0.7546771E-02  0.1110021E+00
         21   -1    0    0  502  501  0.00000000000E+00  0.00000000000E+00  0.57466947298E+03  0.57466947298E+03  0.00000000000E+00 0.  1.
         21   -1    0    0  501  502 -0.00000000000E+00 -0.00000000000E+00 -0.11338844734E+03  0.11338844734E+03  0.00000000000E+00 0.  1.
         25    1    1    2    0    0  0.12669614040E+03  0.12037762333E+02  0.10682035643E+03  0.20792404445E+03  0.12500000000E+03 0.  0.
         25    1    1    2    0    0  0.60158502017E+01  0.13176265534E+02  0.21538170635E+03  0.24944755733E+03  0.12500000000E+03 0.  0.
         25    1    1    2    0    0 -0.13271199060E+03 -0.25214027868E+02  0.13907896286E+03  0.23068631853E+03  0.12500000000E+03 0.  0.
</event>
<event>
 5    0  0.5583350E-005  0.2656634E+03  0.7546771E-02  0.1103788E+00
         21   -1    0    0  502  501  0.00000000000E+00  0.00000000000E+00  0.62836709818E+03  0.62836709818E+03  0.00000000000E+00 0. -1.
         21   -1    0    0  501  502 -0.00000000000E+00 -0.00000000000E+00 -0.11231817168E+03  0.11231817168E+03  0.00000000000E+00 0. -1.
         25    1    1    2    0    0 -0.11657728545E+03 -0.60784580189E+00  0.51775812086E+02  0.17859554215E+03  0.12500000000E+03 0.  0.
         25    1    1    2    0    0  0.22998583507E+02 -0.63651904393E+02  0.15935202574E+03  0.21353821176E+03  0.12500000000E+03 0.  0.
         25    1    1    2    0    0  0.93578701941E+02  0.64259750195E+02  0.30492108867E+03  0.34855151595E+03  0.12500000000E+03 0.  0.
</event>
<event>
 5    0  0.5583350E-005  0.2861098E+03  0.7546771E-02  0.1092398E+00
         21   -1    0    0  502  501  0.00000000000E+00  0.00000000000E+00  0.43372785242E+03  0.43372785242E+03  0.00000000000E+00 0. -1.
         21   -1    0    0  501  502 -0.00000000000E+00 -0.00000000000E+00 -0.18873317463E+03  0.18873317463E+03  0.00000000000E+00 0. -1.
         25    1    1    2    0    0 -0.39138009379E+02  0.50734162021E+02  0.77215083834E+01  0.14067821674E+03  0.12500000000E+03 0.  0.
         25    1    1    2    0    0 -0.73475540395E+02  0.24989841193E+01 -0.42401650589E+02  0.15108871543E+03  0.12500000000E+03 0.  0.
         25    1    1    2    0    0  0.11261354977E+03 -0.53233146140E+02  0.27967482000E+03  0.33069409487E+03  0.12500000000E+03 0.  0.
</event>
<event>
 5    0  0.5583350E-005  0.2785329E+03  0.7546771E-02  0.1096493E+00
         21   -1    0    0  502  501  0.00000000000E+00  0.00000000000E+00  0.18955113719E+04  0.18955113719E+04  0.00000000000E+00 0. -1.
         21   -1    0    0  501  502 -0.00000000000E+00 -0.00000000000E+00 -0.40928565144E+02  0.40928565144E+02  0.00000000000E+00 0. -1.
         25    1    1    2    0    0 -0.40338855561E+02 -0.72156903977E+02  0.85133786104E+03  0.86442755376E+03  0.12500000000E+03 0.  0.
         25    1    1    2    0    0 -0.54686807054E+02  0.10948189259E+03  0.76155734098E+03  0.78139075709E+03  0.12500000000E+03 0.  0.
         25    1    1    2    0    0  0.95025662615E+02 -0.37324988611E+02  0.24168760477E+03  0.29062162623E+03  0.12500000000E+03 0.  0.
</event>
<event>
 5    0  0.5583350E-005  0.3123045E+03  0.7546771E-02  0.1079247E+00
         21   -1    0    0  502  501  0.00000000000E+00  0.00000000000E+00  0.30892162335E+03  0.30892162335E+03  0.00000000000E+00 0.  1.
         21   -1    0    0  501  502 -0.00000000000E+00 -0.00000000000E+00 -0.31572435347E+03  0.31572435347E+03  0.00000000000E+00 0.  1.
         25    1    1    2    0    0  0.12885014926E+03  0.56744195785E+02 -0.55997259364E+02  0.19642545094E+03  0.12500000000E+03 0.  0.
         25    1    1    2    0    0 -0.12470283365E+03  0.11561315134E+03  0.41729256265E+02  0.21513606930E+03  0.12500000000E+03 0.  0.
         25    1    1    2    0    0 -0.41473156085E+01 -0.17235734713E+03  0.74652729829E+01  0.21308445658E+03  0.12500000000E+03 0.  0.
</event>
<event>
 5    0  0.5583350E-005  0.2644486E+03  0.7546771E-02  0.1104500E+00
         21   -1    0    0  502  501  0.00000000000E+00  0.00000000000E+00  0.94676128563E+02  0.94676128563E+02  0.00000000000E+00 0. -1.
         21   -1    0    0  501  502 -0.00000000000E+00 -0.00000000000E+00 -0.73865576140E+03  0.73865576140E+03  0.00000000000E+00 0. -1.
         25    1    1    2    0    0 -0.11312504032E+03 -0.10538224105E+02 -0.30655543342E+03  0.35001366070E+03  0.12500000000E+03 0.  0.
         25    1    1    2    0    0 -0.32643988469E+02 -0.14176226257E+01 -0.52369505903E+02  0.13941020331E+03  0.12500000000E+03 0.  0.
         25    1    1    2    0    0  0.14576902879E+03  0.11955846730E+02 -0.28505469352E+03  0.34390802596E+03  0.12500000000E+03 0.  0.
</event>
<event>
 5    0  0.5583350E-005  0.2977369E+03  0.7546771E-02  0.1086377E+00
         21   -1    0    0  502  501  0.00000000000E+00  0.00000000000E+00  0.75258340572E+03  0.75258340572E+03  0.00000000000E+00 0.  1.
         21   -1    0    0  501  502 -0.00000000000E+00 -0.00000000000E+00 -0.11779060861E+03  0.11779060861E+03  0.00000000000E+00 0.  1.
         25    1    1    2    0    0  0.85881711486E+02 -0.87900199540E+02  0.38334958073E+03  0.42152581711E+03  0.12500000000E+03 0.  0.
         25    1    1    2    0    0 -0.61538497201E+02  0.16127107020E+03  0.20238387420E+03  0.29390402729E+03  0.12500000000E+03 0.  0.
         25    1    1    2    0    0 -0.24343214285E+02 -0.73370870655E+02  0.49059342181E+02  0.15494416994E+03  0.12500000000E+03 0.  0.
</event>
<event>
 5    0  0.5583350E-005  0.3145687E+03  0.7546771E-02  0.1078176E+00
         21   -1    0    0  502  501  0.00000000000E+00  0.00000000000E+00  0.16797451685E+03  0.16797451685E+03  0.00000000000E+00 0. -1.
         21   -1    0    0  501  502 -0.00000000000E+00 -0.00000000000E+00 -0.58909794005E+03  0.58909794005E+03  0.00000000000E+00 0. -1.
         25    1    1    2    0    0 -0.93401504675E+02  0.17867505375E+03 -0.27197785539E+03  0.36089551082E+03  0.12500000000E+03 0.  0.
         25    1    1    2    0    0  0.11469148731E+03 -0.16536618220E+03 -0.11922582944E+03  0.26521672248E+03  0.12500000000E+03 0.  0.
         25    1    1    2    0    0 -0.21289982634E+02 -0.13308871542E+02 -0.29919738369E+02  0.13096022360E+03  0.12500000000E+03 0.  0.
</event>
<event>
 5    0  0.5583350E-005  0.3347190E+03  0.7546771E-02  0.1069068E+00
         21   -1    0    0  502  501  0.00000000000E+00  0.00000000000E+00  0.21224267820E+03  0.21224267820E+03  0.00000000000E+00 0. -1.
         21   -1    0    0  501  502 -0.00000000000E+00 -0.00000000000E+00 -0.52787114507E+03  0.52787114507E+03  0.00000000000E+00 0. -1.
         25    1    1    2    0    0  0.52954137015E+02 -0.21358112499E+02 -0.63950343837E+02  0.15157491901E+03  0.12500000000E+03 0.  0.
         25    1    1    2    0    0  0.43904787110E+02  0.54550796956E+02 -0.36437939345E+03  0.39153641230E+03  0.12500000000E+03 0.  0.
         25    1    1    2    0    0 -0.96858924125E+02 -0.33192684456E+02  0.11270127042E+03  0.19700249196E+03  0.12500000000E+03 0.  0.
</event>
<event>
 5    0  0.5583350E-005  0.2950890E+03  0.7546771E-02  0.1087722E+00
         21   -1    0    0  502  501  0.00000000000E+00  0.00000000000E+00  0.12299600932E+03  0.12299600932E+03  0.00000000000E+00 0.  1.
         21   -1    0    0  501  502 -0.00000000000E+00 -0.00000000000E+00 -0.70797033189E+03  0.70797033189E+03  0.00000000000E+00 0.  1.
         25    1    1    2    0    0 -0.20681012106E+03  0.12948431183E+00 -0.19995744807E+03  0.31365335002E+03  0.12500000000E+03 0.  0.
         25    1    1    2    0    0  0.83537715245E+02 -0.49398478523E+02 -0.22263371704E+03  0.27314745379E+03  0.12500000000E+03 0.  0.
         25    1    1    2    0    0  0.12327240582E+03  0.49268994212E+02 -0.16238315746E+03  0.24416553740E+03  0.12500000000E+03 0.  0.
</event>
<event>
 5    0  0.5583350E-005  0.5828499E+03  0.7546771E-02  0.9941640E-01
         21   -1    0    0  502  501  0.00000000000E+00  0.00000000000E+00  0.93205732474E+03  0.93205732474E+03  0.00000000000E+00 0. -1.
         21   -1    0    0  501  502 -0.00000000000E+00 -0.00000000000E+00 -0.36447755076E+03  0.36447755076E+03  0.00000000000E+00 0.  1.
         25    1    1    2    0    0 -0.21163172215E+03  0.62651650695E+02  0.39686714040E+02  0.25673575993E+03  0.12500000000E+03 0.  0.
         25    1    1    2    0    0  0.37310419912E+03  0.11063886146E+03  0.63183022947E+03  0.75251720242E+03  0.12500000000E+03 0.  0.
         25    1    1    2    0    0 -0.16147247697E+03 -0.17329051215E+03 -0.10393716952E+03  0.28728191316E+03  0.12500000000E+03 0.  0.
</event>
<event>
 5    0  0.5583350E-005  0.2656283E+03  0.7546771E-02  0.1103808E+00
         21   -1    0    0  502  501  0.00000000000E+00  0.00000000000E+00  0.90566534881E+02  0.90566534881E+02  0.00000000000E+00 0.  1.
         21   -1    0    0  501  502 -0.00000000000E+00 -0.00000000000E+00 -0.77907827369E+03  0.77907827369E+03  0.00000000000E+00 0.  1.
         25    1    1    2    0    0 -0.11842340525E+03 -0.46618140612E+02 -0.10244744254E+03  0.20571298556E+03  0.12500000000E+03 0.  0.
         25    1    1    2    0    0  0.12775990785E+03  0.41628770618E+01 -0.31226437665E+03  0.35982490815E+03  0.12500000000E+03 0.  0.
         25    1    1    2    0    0 -0.93365025976E+01  0.42455263550E+02 -0.27379991962E+03  0.30410691486E+03  0.12500000000E+03 0.  0.
</event>
<event>
 5    0  0.5583350E-005  0.2873150E+03  0.7546771E-02  0.1091759E+00
         21   -1    0    0  502  501  0.00000000000E+00  0.00000000000E+00  0.84260926966E+03  0.84260926966E+03  0.00000000000E+00 0.  1.
         21   -1    0    0  501  502 -0.00000000000E+00 -0.00000000000E+00 -0.97969378937E+02  0.97969378937E+02  0.00000000000E+00 0.  1.
         25    1    1    2    0    0 -0.52281215552E+02 -0.31855931979E+02  0.48289294378E+03  0.50255220729E+03  0.12500000000E+03 0.  0.
         25    1    1    2    0    0 -0.88959488341E+02  0.39574445974E+02  0.15256674019E+03  0.21995803589E+03  0.12500000000E+03 0.  0.
         25    1    1    2    0    0  0.14124070389E+03 -0.77185139951E+01  0.10918020676E+03  0.21806840542E+03  0.12500000000E+03 0.  0.
</event>
<event>
 5    0  0.5583350E-005  0.2460370E+03  0.7546771E-02  0.1115835E+00
         21   -1    0    0  502  501  0.00000000000E+00  0.00000000000E+00  0.34196061384E+03  0.34196061384E+03  0.00000000000E+00 0.  1.
         21   -1    0    0  501  502 -0.00000000000E+00 -0.00000000000E+00 -0.17702096010E+03  0.17702096010E+03  0.00000000000E+00 0.  1.
         25    1    1    2    0    0 -0.25741924288E+02  0.95780433903E+02  0.15491619253E+03  0.22239731315E+03  0.12500000000E+03 0.  0.
         25    1    1    2    0    0  0.18533565130E+02 -0.75910885670E+02  0.61537887036E+02  0.15974312862E+03  0.12500000000E+03 0.  0.
         25    1    1    2    0    0  0.72083591583E+01 -0.19869548233E+02 -0.51514425830E+02  0.13684113218E+03  0.12500000000E+03 0.  0.
</event>
<event>
 5    0  0.5583350E-005  0.3985662E+03  0.7546771E-02  0.1044277E+00
         21   -1    0    0  502  501  0.00000000000E+00  0.00000000000E+00  0.26914594703E+04  0.26914594703E+04  0.00000000000E+00 0. -1.
         21   -1    0    0  501  502 -0.00000000000E+00 -0.00000000000E+00 -0.59021877983E+02  0.59021877983E+02  0.00000000000E+00 0.  1.
         25    1    1    2    0    0 -0.63613163673E+02  0.15690289722E+03  0.22285710024E+03  0.30652151780E+03  0.12500000000E+03 0.  0.
         25    1    1    2    0    0  0.16792106120E+02 -0.29384172857E+02  0.30573141762E+03  0.33202726418E+03  0.12500000000E+03 0.  0.
         25    1    1    2    0    0  0.46821057553E+02 -0.12751872436E+03  0.21038490745E+04  0.21119325663E+04  0.12500000000E+03 0.  0.
</event>
<event>
 5    0  0.5583350E-005  0.2736025E+03  0.7546771E-02  0.1099235E+00
         21   -1    0    0  502  501  0.00000000000E+00  0.00000000000E+00  0.20822061785E+04  0.20822061785E+04  0.00000000000E+00 0.  1.
         21   -1    0    0  501  502 -0.00000000000E+00 -0.00000000000E+00 -0.35951445921E+02  0.35951445921E+02  0.00000000000E+00 0.  1.
         25    1    1    2    0    0  0.76180436090E+02  0.86416455984E+02  0.31933202178E+03  0.36175848690E+03  0.12500000000E+03 0.  0.
         25    1    1    2    0    0 -0.96966591795E+02 -0.71488290995E+02  0.12765836959E+04  0.12883338187E+04  0.12500000000E+03 0.  0.
         25    1    1    2    0    0  0.20786155705E+02 -0.14928164989E+02  0.45033901483E+03  0.46806531880E+03  0.12500000000E+03 0.  0.
</event>
<event>
 5    0  0.5583350E-005  0.2359088E+03  0.7546771E-02  0.1122549E+00
         21   -1    0    0  502  501  0.00000000000E+00  0.00000000000E+00  0.17571991743E+03  0.17571991743E+03  0.00000000000E+00 0.  1.
         21   -1    0    0  501  502 -0.00000000000E+00 -0.00000000000E+00 -0.31671409067E+03  0.31671409067E+03  0.00000000000E+00 0.  1.
         25    1    1    2    0    0 -0.25708531071E+02 -0.60808400322E+02  0.49915316184E+02  0.14991707344E+03  0.12500000000E+03 0.  0.
         25    1    1    2    0    0  0.56895928666E+01  0.33400175951E+02 -0.16612187077E+03  0.21064049746E+03  0.12500000000E+03 0.  0.
         25    1    1    2    0    0  0.20018938204E+02  0.27408224370E+02 -0.24787618649E+02  0.13187643720E+03  0.12500000000E+03 0.  0.
</event>
<event>
 5    0  0.5583350E-005  0.4755546E+03  0.7546771E-02  0.1020364E+00
         21   -1    0    0  502  501  0.00000000000E+00  0.00000000000E+00  0.64114228907E+03  0.64114228907E+03  0.00000000000E+00 0. -1.
         21   -1    0    0  501  502 -0.00000000000E+00 -0.00000000000E+00 -0.35273328373E+03  0.35273328373E+03  0.00000000000E+00 0. -1.
         25    1    1    2    0    0 -0.37335151594E+03 -0.19048361030E+03  0.14405180685E+03  0.46049026407E+03  0.12500000000E+03 0.  0.
         25    1    1    2    0    0  0.19953777062E+03  0.11811792915E+03  0.15766173508E+03  0.30700063486E+03  0.12500000000E+03 0.  0.
         25    1    1    2    0    0  0.17381374532E+03  0.72365681145E+02 -0.13304536599E+02  0.22638467387E+03  0.12500000000E+03 0.  0.
</event>
<event>
 5    0  0.5695502E-005  0.3352857E+03  0.7546771E-02  0.1068822E+00
         21   -1    0    0  502  501  0.00000000000E+00  0.00000000000E+00  0.74224652904E+03  0.74224652904E+03  0.00000000000E+00 0. -1.
         21   -1    0    0  501  502 -0.00000000000E+00 -0.00000000000E+00 -0.15145435410E+03  0.15145435410E+03  0.00000000000E+00 0. -1.
         25    1    1    2    0    0 -0.32441129754E+01  0.90001340423E+02  0.10872427902E+03  0.18856493416E+03  0.12500000000E+03 0.  0.
         25    1    1    2    0    0  0.15575604133E+03 -0.20430817765E+03  0.28967847310E+03  0.40686655507E+03  0.12500000000E+03 0.  0.
         25    1    1    2    0    0 -0.15251192835E+03  0.11430683722E+03  0.19238942282E+03  0.29826939390E+03  0.12500000000E+03 0.  0.
</event>
<event>
 5    0  0.5583350E-005  0.3234638E+03  0.7546771E-02  0.1074066E+00
         21   -1    0    0  502  501  0.00000000000E+00  0.00000000000E+00  0.81712202489E+03  0.81712202489E+03  0.00000000000E+00 0. -1.
         21   -1    0    0  501  502 -0.00000000000E+00 -0.00000000000E+00 -0.12804551902E+03  0.12804551902E+03  0.00000000000E+00 0. -1.
         25    1    1    2    0    0  0.13449579663E+03 -0.44322858858E+02  0.13737725893E+03  0.23356186846E+03  0.12500000000E+03 0.  0.
         25    1    1    2    0    0 -0.16852862523E+03  0.11405769905E+02  0.53758554330E+03  0.57719598532E+03  0.12500000000E+03 0.  0.
         25    1    1    2    0    0  0.34032828603E+02  0.32917088953E+02  0.14113703643E+02  0.13440969012E+03  0.12500000000E+03 0.  0.
</event>
<event>
 5    0  0.5583350E-005  0.3924985E+03  0.7546771E-02  0.1046409E+00
         21   -1    0    0  502  501  0.00000000000E+00  0.00000000000E+00  0.75853688556E+03  0.75853688556E+03  0.00000000000E+00 0. -1.
         21   -1    0    0  501  502 -0.00000000000E+00 -0.00000000000E+00 -0.20309507090E+03  0.20309507090E+03  0.00000000000E+00 0. -1.
         25    1    1    2    0    0 -0.75722299964E+02  0.28861392404E+02  0.13943154170E+03  0.20404166610E+03  0.12500000000E+03 0.  0.
         25    1    1    2    0    0 -0.43364443085E+02  0.14934535853E+03 -0.70376860145E+02  0.21157129645E+03  0.12500000000E+03 0.  0.
         25    1    1    2    0    0  0.11908674305E+03 -0.17820675094E+03  0.48638713311E+03  0.54601899391E+03  0.12500000000E+03 0.  0.
</event>
<event>
 5    0  0.5583350E-005  0.3811647E+03  0.7546771E-02  0.1050504E+00
         21   -1    0    0  502  501  0.00000000000E+00  0.00000000000E+00  0.43844911874E+03  0.43844911874E+03  0.00000000000E+00 0.  1.
         21   -1    0    0  501  502 -0.00000000000E+00 -0.00000000000E+00 -0.33136454379E+03  0.33136454379E+03  0.00000000000E+00 0.  1.
         25    1    1    2    0    0  0.14649064545E+03 -0.18177357547E+02 -0.70317491804E+02  0.20581417634E+03  0.12500000000E+03 0.  0.
         25    1    1    2    0    0 -0.24033176767E+03 -0.12227894889E+03  0.19120474471E+03  0.35340593415E+03  0.12500000000E+03 0.  0.
         25    1    1    2    0    0  0.93841122227E+02  0.14045630644E+03 -0.13802677959E+02  0.21059355203E+03  0.12500000000E+03 0.  0.
</event>
<event>
 5    0  0.5583350E-005  0.4578572E+03  0.7546771E-02  0.1025405E+00
         21   -1    0    0  502  501  0.00000000000E+00  0.00000000000E+00  0.10548507662E+03  0.10548507662E+03  0.00000000000E+00 0.  1.
         21   -1    0    0  501  502 -0.00000000000E+00 -0.00000000000E+00 -0.19873254403E+04  0.19873254403E+04  0.00000000000E+00 0.  1.
         25    1    1    2    0    0 -0.17322202385E+03 -0.61021300377E+02 -0.25605718777E+03  0.33899815937E+03  0.12500000000E+03 0.  0.
         25    1    1    2    0    0 -0.15488456003E+03  0.17581512435E+03 -0.91514358108E+03  0.95289713971E+03  0.12500000000E+03 0.  0.
         25    1    1    2    0    0  0.32810658389E+03 -0.11479382397E+03 -0.71063959482E+03  0.80091521782E+03  0.12500000000E+03 0.  0.
</event>
<event>
 5    0  0.5583350E-005  0.3247758E+03  0.7546771E-02  0.1073472E+00
         21   -1    0    0  502  501  0.00000000000E+00  0.00000000000E+00  0.98343413403E+02  0.98343413403E+02  0.00000000000E+00 0.  1.
         21   -1    0    0  501  502 -0.00000000000E+00 -0.00000000000E+00 -0.10725608426E+04  0.10725608426E+04  0.00000000000E+00 0.  1.
         25    1    1    2    0    0  0.17453168862E+03 -0.93702579351E+02 -0.15624161049E+03  0.28156335798E+03  0.12500000000E+03 0.  0.
         25    1    1    2    0    0 -0.18177944591E+02  0.77312797034E+02 -0.33594588108E+03  0.36714076492E+03  0.12500000000E+03 0.  0.
         25    1    1    2    0    0 -0.15635374403E+03  0.16389782317E+02 -0.48202993764E+03  0.52220013311E+03  0.12500000000E+03 0.  0.
</event>
<event>
 5    0  0.5583350E-005  0.2292166E+03  0.7546771E-02  0.1127192E+00
         21   -1    0    0  502  501  0.00000000000E+00  0.00000000000E+00  0.34191329806E+02  0.34191329806E+02  0.00000000000E+00 0.  1.
         21   -1    0    0  501  502 -0.00000000000E+00 -0.00000000000E+00 -0.15366537883E+04  0.15366537883E+04  0.00000000000E+00 0.  1.
         25    1    1    2    0    0 -0.41060626501E+02  0.33142016082E+02 -0.29615248932E+03  0.32575399492E+03  0.12500000000E+03 0.  0.
         25    1    1    2    0    0  0.24503616891E+02  0.22825456095E+02 -0.27869584387E+03  0.30727479896E+03  0.12500000000E+03 0.  0.
         25    1    1    2    0    0  0.16557009610E+02 -0.55967472177E+02 -0.92761412532E+03  0.93781632423E+03  0.12500000000E+03 0.  0.
</event>
<event>
 5    0  0.5583350E-005  0.4084082E+03  0.7546771E-02  0.1040906E+00
         21   -1    0    0  502  501  0.00000000000E+00  0.00000000000E+00  0.14792499335E+03  0.14792499335E+03  0.00000000000E+00 0.  1.
         21   -1    0    0  501  502 -0.00000000000E+00 -0.00000000000E+00 -0.11275801494E+04  0.11275801494E+04  0.00000000000E+00 0.  1.
         25    1    1    2    0    0 -0.80734521114E+02  0.26210790259E+03 -0.52034483023E+03  0.60133381565E+03  0.12500000000E+03 0.  0.
         25    1    1    2    0    0  0.10754584379E+03 -0.15280652015E+03 -0.48113519456E+02  0.22990400577E+03  0.12500000000E+03 0.  0.
         25    1    1    2    0    0 -0.26811322674E+02 -0.10930138245E+03 -0.41119680634E+03  0.44426732130E+03  0.12500000000E+03 0.  0.
</event>
<event>
 5    0  0.5583350E-005  0.2572834E+03  0.7546771E-02  0.1108786E+00
         21   -1    0    0  502  501  0.00000000000E+00  0.00000000000E+00  0.92310922164E+03  0.92310922164E+03  0.00000000000E+00 0. -1.
         21   -1    0    0  501  502 -0.00000000000E+00 -0.00000000000E+00 -0.71708463575E+02  0.71708463575E+02  0.00000000000E+00 0. -1.
         25    1    1    2    0    0 -0.73463905235E+02 -0.24995402974E+02  0.28380422824E+03  0.31967413957E+03  0.12500000000E+03 0.  0.
         25    1    1    2    0    0  0.48044039994E+02  0.93953140377E+01  0.52168353194E+03  0.53867913381E+03  0.12500000000E+03 0.  0.
         25    1    1    2    0    0  0.25419865240E+02  0.15600088936E+02  0.45912997889E+02  0.13646441184E+03  0.12500000000E+03 0.  0.
</event>
<event>
 5    0  0.5583350E-005  0.6112108E+03  0.7546771E-02  0.9882416E-01
         21   -1    0    0  502  501  0.00000000000E+00  0.00000000000E+00  0.15758961545E+04  0.15758961545E+04  0.00000000000E+00 0. -1.
         21   -1    0    0  501  502 -0.00000000000E+00 -0.00000000000E+00 -0.23705794008E+03  0.23705794008E+03  0.00000000000E+00 0. -1.
         25    1    1    2    0    0  0.13709324605E+03  0.51373766204E+03  0.78864533463E+03  0.95932653844E+03  0.12500000000E+03 0.  0.
         25    1    1    2    0    0 -0.15765323707E+03 -0.14094076609E+03  0.29737703272E+03  0.38571614212E+03  0.12500000000E+03 0.  0.
         25    1    1    2    0    0  0.20559991019E+02 -0.37279689595E+03  0.25281584710E+03  0.46791141405E+03  0.12500000000E+03 0.  0.
</event>
<event>
 5    0  0.5583350E-005  0.3266086E+03  0.7546771E-02  0.1072647E+00
         21   -1    0    0  502  501  0.00000000000E+00  0.00000000000E+00  0.71172075388E+02  0.71172075388E+02  0.00000000000E+00 0.  1.
         21   -1    0    0  501  502 -0.00000000000E+00 -0.00000000000E+00 -0.14988068507E+04  0.14988068507E+04  0.00000000000E+00 0.  1.
         25    1    1    2    0    0  0.15279798664E+03 -0.58286193742E+02 -0.10031310612E+04  0.10240319482E+04  0.12500000000E+03 0.  0.
         25    1    1    2    0    0 -0.12748596467E+03  0.10512205479E+03 -0.26636921782E+03  0.33746240945E+03  0.12500000000E+03 0.  0.
         25    1    1    2    0    0 -0.25312021972E+02 -0.46835861049E+02 -0.15813449631E+03  0.20848456839E+03  0.12500000000E+03 0.  0.
</event>
<event>
 5    0  0.6942583E-005  0.4600654E+03  0.7546771E-02  0.1024762E+00
         21   -1    0    0  502  501  0.00000000000E+00  0.00000000000E+00  0.34858717456E+03  0.34858717456E+03  0.00000000000E+00 0.  1.
         21   -1    0    0  501  502 -0.00000000000E+00 -0.00000000000E+00 -0.60719435028E+03  0.60719435028E+03  0.00000000000E+00 0.  1.
         25    1    1    2    0    0  0.50307459438E+02  0.86702649504E+02 -0.36312246628E+03  0.39690189647E+03  0.12500000000E+03 0.  0.
         25    1    1    2    0    0  0.32817844966E+02 -0.25810653024E+03 -0.36458856277E+02  0.29094714314E+03  0.12500000000E+03 0.  0.
         25    1    1    2    0    0 -0.83125304404E+02  0.17140388074E+03  0.14097414683E+03  0.26793248522E+03  0.12500000000E+03 0.  0.
</event>
<event>
 5    0  0.5583350E-005  0.3002967E+03  0.7546771E-02  0.1085092E+00
         21   -1    0    0  502  501  0.00000000000E+00  0.00000000000E+00  0.37730128546E+03  0.37730128546E+03  0.00000000000E+00 0.  1.
         21   -1    0    0  501  502 -0.00000000000E+00 -0.00000000000E+00 -0.23900825673E+03  0.23900825673E+03  0.00000000000E+00 0.  1.
         25    1    1    2    0    0  0.38688584716E+02  0.74854591501E+02 -0.20432967842E+02  0.15212666640E+03  0.12500000000E+03 0.  0.
         25    1    1    2    0    0  0.18796573510E+02 -0.14797580683E+03  0.22269829838E+03  0.29575273910E+03  0.12500000000E+03 0.  0.
         25    1    1    2    0    0 -0.57485158226E+02  0.73121215330E+02 -0.63972301809E+02  0.16843013669E+03  0.12500000000E+03 0.  0.
</event>
<event>
 5    0  0.5583350E-005  0.3021790E+03  0.7546771E-02  0.1084156E+00
         21   -1    0    0  502  501  0.00000000000E+00  0.00000000000E+00  0.44844306665E+03  0.44844306665E+03  0.00000000000E+00 0.  1.
         21   -1    0    0  501  502 -0.00000000000E+00 -0.00000000000E+00 -0.20362042084E+03  0.20362042084E+03  0.00000000000E+00 0.  1.
         25    1    1    2    0    0  0.40727618719E+02 -0.18189374786E+03  0.10394932966E+03  0.24733486930E+03  0.12500000000E+03 0.  0.
         25    1    1    2    0    0  0.66625592440E+02  0.27371657448E+02  0.99052652766E+02  0.17499887205E+03  0.12500000000E+03 0.  0.
         25    1    1    2    0    0 -0.10735321116E+03  0.15452209041E+03  0.41820663384E+02  0.22972974613E+03  0.12500000000E+03 0.  0.
</event>
<event>
 5    0  0.5583350E-005  0.2265094E+03  0.7546771E-02  0.1129121E+00
         21   -1    0    0  502  501  0.00000000000E+00  0.00000000000E+00  0.32669498465E+03  0.32669498465E+03  0.00000000000E+00 0. -1.
         21   -1    0    0  501  502 -0.00000000000E+00 -0.00000000000E+00 -0.15704712813E+03  0.15704712813E+03  0.00000000000E+00 0. -1.
         25    1    1    2    0    0  0.18824534730E+02  0.76387760697E+01  0.10294633059E+03  0.16320435347E+03  0.12500000000E+03 0.  0.
         25    1    1    2    0    0 -0.64547194757E+02 -0.78505751379E+02  0.18145978926E+02  0.16212270014E+03  0.12500000000E+03 0.  0.
         25    1    1    2    0    0  0.45722660028E+02  0.70866975310E+02  0.48555546996E+02  0.15841505918E+03  0.12500000000E+03 0.  0.
</event>
<event>
 5    0  0.5583350E-005  0.2450041E+03  0.7546771E-02  0.1116503E+00
         21   -1    0    0  502  501  0.00000000000E+00  0.00000000000E+00  0.78567312503E+03  0.78567312503E+03  0.00000000000E+00 0. -1.
         21   -1    0    0  501  502 -0.00000000000E+00 -0.00000000000E+00 -0.76402041504E+02  0.76402041504E+02  0.00000000000E+00 0. -1.
         25    1    1    2    0    0  0.99572043443E+02 -0.13432218368E+02  0.20932858571E+03  0.26370148487E+03  0.12500000000E+03 0.  0.
         25    1    1    2    0    0  0.15029343245E+02  0.57500348065E+02  0.13400531984E+03  0.19265149086E+03  0.12500000000E+03 0.  0.
         25    1    1    2    0    0 -0.11460138669E+03 -0.44068129696E+02  0.36593717798E+03  0.40572219081E+03  0.12500000000E+03 0.  0.
</event>
<event>
 5    0  0.5583350E-005  0.4418086E+03  0.7546771E-02  0.1030193E+00
         21   -1    0    0  502  501  0.00000000000E+00  0.00000000000E+00  0.34305708449E+03  0.34305708449E+03  0.00000000000E+00 0. -1.
         21   -1    0    0  501  502 -0.00000000000E+00 -0.00000000000E+00 -0.56898637683E+03  0.56898637683E+03  0.00000000000E+00 0. -1.
         25    1    1    2    0    0  0.87556582900E+02 -0.30309431560E+02 -0.39821978577E+03  0.42753808559E+03  0.12500000000E+03 0.  0.
         25    1    1    2    0    0  0.12738735566E+03 -0.15502434179E+02  0.14448180363E+03  0.23014746453E+03  0.12500000000E+03 0.  0.
         25    1    1    2    0    0 -0.21494393856E+03  0.45811865739E+02  0.27808689796E+02  0.25435791121E+03  0.12500000000E+03 0.  0.
</event>
<event>
 5    0  0.5583350E-005  0.4021762E+03  0.7546771E-02  0.1043029E+00
         21   -1    0    0  502  501  0.00000000000E+00  0.00000000000E+00  0.26516636961E+04  0.26516636961E+04  0.00000000000E+00 0. -1.
         21   -1    0    0  501  502 -0.00000000000E+00 -0.00000000000E+00 -0.60997815868E+02  0.60997815868E+02  0.00000000000E+00 0. -1.
         25    1    1    2    0    0 -0.13435141483E+03 -0.10752408486E+02  0.11909644681E+03  0.21903168856E+03  0.12500000000E+03 0.  0.
         25    1    1    2    0    0  0.69624694234E+02  0.54730183361E+02  0.73415361106E+03  0.74996634302E+03  0.12500000000E+03 0.  0.
         25    1    1    2    0    0  0.64726720592E+02 -0.43977774875E+02  0.17374158224E+04  0.17436634804E+04  0.12500000000E+03 0.  0.
</event>
<event>
 5    0  0.5583350E-005  0.2267927E+03  0.7546771E-02  0.1128918E+00
         21   -1    0    0  502  501  0.00000000000E+00  0.00000000000E+00  0.76009744310E+03  0.76009744310E+03  0.00000000000E+00 0. -1.
         21   -1    0    0  501  502 -0.00000000000E+00 -0.00000000000E+00 -0.67668842330E+02  0.67668842330E+02  0.00000000000E+00 0. -1.
         25    1    1    2    0    0 -0.65445246672E+02  0.11109026802E+02  0.29486147886E+03  0.32706999634E+03  0.12500000000E+03 0.  0.
         25    1    1    2    0    0  0.84291739948E+02  0.37799545697E+02  0.13792471838E+03  0.20780310637E+03  0.12500000000E+03 0.  0.
         25    1    1    2    0    0 -0.18846493275E+02 -0.48908572498E+02  0.25964240352E+03  0.29289318271E+03  0.12500000000E+03 0.  0.
</event>
<event>
 5    0  0.5583350E-005  0.2910258E+03  0.7546771E-02  0.1089815E+00
         21   -1    0    0  502  501  0.00000000000E+00  0.00000000000E+00  0.31276196475E+03  0.31276196475E+03  0.00000000000E+00 0. -1.
         21   -1    0    0  501  502 -0.00000000000E+00 -0.00000000000E+00 -0.27080015559E+03  0.27080015559E+03  0.00000000000E+00 0. -1.
         25    1    1    2    0    0 -0.12297683982E+03 -0.51058325781E+02  0.36806816903E+02  0.18630619295E+03  0.12500000000E+03 0.  0.
         25    1    1    2    0    0  0.17775902374E+03 -0.20746159386E+02  0.71028310906E+02  0.22956196245E+03  0.12500000000E+03 0.  0.
         25    1    1    2    0    0 -0.54782183929E+02  0.71804485167E+02 -0.65873318647E+02  0.16769396494E+03  0.12500000000E+03 0.  0.
</event>
<event>
 5    0  0.5583350E-005  0.4193094E+03  0.7546771E-02  0.1037291E+00
         21   -1    0    0  502  501  0.00000000000E+00  0.00000000000E+00  0.13808369336E+04  0.13808369336E+04  0.00000000000E+00 0.  1.
         21   -1    0    0  501  502 -0.00000000000E+00 -0.00000000000E+00 -0.12732883007E+03  0.12732883007E+03  0.00000000000E+00 0.  1.
         25    1    1    2    0    0  0.27195676525E+03 -0.12344513096E+03  0.40666936455E+03  0.51981165299E+03  0.12500000000E+03 0.  0.
         25    1    1    2    0    0 -0.18073051422E+03  0.10484891115E+03  0.17802752381E+03  0.30162163744E+03  0.12500000000E+03 0.  0.
         25    1    1    2    0    0 -0.91226251033E+02  0.18596219809E+02  0.66881121520E+03  0.68673247327E+03  0.12500000000E+03 0.  0.
</event>
<event>
 5    0  0.5583350E-005  0.2387150E+03  0.7546771E-02  0.1120652E+00
         21   -1    0    0  502  501  0.00000000000E+00  0.00000000000E+00  0.10071490985E+04  0.10071490985E+04  0.00000000000E+00 0.  1.
         21   -1    0    0  501  502 -0.00000000000E+00 -0.00000000000E+00 -0.56580350004E+02  0.56580350004E+02  0.00000000000E+00 0.  1.
         25    1    1    2    0    0  0.83532478736E-01  0.14061246620E+02  0.94633490589E+02  0.15741100081E+03  0.12500000000E+03 0.  0.
         25    1    1    2    0    0 -0.24952170220E+02  0.69145988868E+02  0.38546842534E+03  0.41184303504E+03  0.12500000000E+03 0.  0.
         25    1    1    2    0    0  0.24868637742E+02 -0.83207235488E+02  0.47046683261E+03  0.49447541270E+03  0.12500000000E+03 0.  0.
</event>
<event>
 5    0  0.5583350E-005  0.3671329E+03  0.7546771E-02  0.1055795E+00
         21   -1    0    0  502  501  0.00000000000E+00  0.00000000000E+00  0.13774678618E+03  0.13774678618E+03  0.00000000000E+00 0.  1.
         21   -1    0    0  501  502 -0.00000000000E+00 -0.00000000000E+00 -0.97850957291E+03  0.97850957291E+03  0.00000000000E+00 0.  1.
         25    1    1    2    0    0 -0.46400840352E+02  0.21181012219E+03 -0.17560714032E+03  0.30574406549E+03  0.12500000000E+03 0.  0.
         25    1    1    2    0    0  0.11051357811E+03 -0.18260410153E+03 -0.60740849716E+03  0.65584113265E+03  0.12500000000E+03 0.  0.
         25    1    1    2    0    0 -0.64112737761E+02 -0.29206020660E+02 -0.57747149238E+02  0.15467116095E+03  0.12500000000E+03 0.  0.
</event>
<event>
 5    0  0.5583350E-005  0.2487129E+03  0.7546771E-02  0.1114121E+00
         21   -1    0    0  502  501  0.00000000000E+00  0.00000000000E+00  0.48488535508E+03  0.48488535508E+03  0.00000000000E+00 0. -1.
         21   -1    0    0  501  502 -0.00000000000E+00 -0.00000000000E+00 -0.12757267967E+03  0.12757267967E+03  0.00000000000E+00 0.  1.
         25    1    1    2    0    0 -0.98575598465E+02  0.11135930124E+02  0.15490797306E+03  0.22240197317E+03  0.12500000000E+03 0.  0.
         25    1    1    2    0    0  0.14692807674E+03  0.24796513120E+02  0.12439339303E+03  0.23087105281E+03  0.12500000000E+03 0.  0.
         25    1    1    2    0    0 -0.48352478273E+02 -0.35932443244E+02  0.78011309321E+02  0.15918500876E+03  0.12500000000E+03 0.  0.
</event>
<event>
 5    0  0.5583350E-005  0.3992134E+03  0.7546771E-02  0.1044052E+00
         21   -1    0    0  502  501  0.00000000000E+00  0.00000000000E+00  0.27613679459E+03  0.27613679459E+03  0.00000000000E+00 0.  1.
         21   -1    0    0  501  502 -0.00000000000E+00 -0.00000000000E+00 -0.57714635489E+03  0.57714635489E+03  0.00000000000E+00 0.  1.
         25    1    1    2    0    0 -0.10508939925E+02 -0.39185268260E+02 -0.30567732503E+03  0.33273044661E+03  0.12500000000E+03 0.  0.
         25    1    1    2    0    0  0.31017778489E+00  0.97072003119E+02  0.21618634884E+03  0.26792649631E+03  0.12500000000E+03 0.  0.
         25    1    1    2    0    0  0.10198762140E+02 -0.57886734859E+02 -0.21151858410E+03  0.25262620656E+03  0.12500000000E+03 0.  0.
</event>
<event>
 5    0  0.5583350E-005  0.3485209E+03  0.7546771E-02  0.1063224E+00
         21   -1    0    0  502  501  0.00000000000E+00  0.00000000000E+00  0.11243950120E+04  0.11243950120E+04  0.00000000000E+00 0.  1.
         21   -1    0    0  501  502 -0.00000000000E+00 -0.00000000000E+00 -0.10802858425E+03  0.10802858425E+03  0.00000000000E+00 0.  1.
         25    1    1    2    0    0 -0.33898188284E+02 -0.53177816866E+02  0.12548973535E+03  0.18801500221E+03  0.12500000000E+03 0.  0.
         25    1    1    2    0    0  0.39931143592E+02  0.26023721846E+03  0.37783660718E+03  0.47718278241E+03  0.12500000000E+03 0.  0.
         25    1    1    2    0    0 -0.60329553077E+01 -0.20705940159E+03  0.51304008517E+03  0.56722581159E+03  0.12500000000E+03 0.  0.
</event>
<event>
 5    0  0.5583350E-005  0.2674734E+03  0.7546771E-02  0.1102734E+00
         21   -1    0    0  502  501  0.00000000000E+00  0.00000000000E+00  0.14747352275E+04  0.14747352275E+04  0.00000000000E+00 0. -1.
         21   -1    0    0  501  502 -0.00000000000E+00 -0.00000000000E+00 -0.48511772627E+02  0.48511772627E+02  0.00000000000E+00 0. -1.
         25    1    1    2    0    0  0.62237690065E+02 -0.37840460972E+02  0.49482630695E+03  0.51554195232E+03  0.12500000000E+03 0.  0.
         25    1    1    2    0    0  0.50817356251E+02  0.82767847018E+02  0.19618174433E+03  0.25208172684E+03  0.12500000000E+03 0.  0.
         25    1    1    2    0    0 -0.11305504632E+03 -0.44927386047E+02  0.73521540358E+03  0.75562332096E+03  0.12500000000E+03 0.  0.
</event>
<event>
 5    0  0.5583350E-005  0.8809197E+03  0.7546771E-02  0.9449752E-01
         21   -1    0    0  502  501  0.00000000000E+00  0.00000000000E+00  0.11843954404E+04  0.11843954404E+04  0.00000000000E+00 0.  1.
         21   -1    0    0  501  502 -0.00000000000E+00 -0.00000000000E+00 -0.65520299100E+03  0.65520299100E+03  0.00000000000E+00 0.  1.
         25    1    1    2    0    0 -0.20791467403E+03 -0.49748630262E+01  0.50710226830E+03  0.56216632009E+03  0.12500000000E+03 0.  0.
         25    1    1    2    0    0 -0.38250601488E+03  0.82411612146E+02  0.38998115545E+03  0.56640341352E+03  0.12500000000E+03 0.  0.
         25    1    1    2    0    0  0.59042068891E+03 -0.77436749120E+02 -0.36789097437E+03  0.71102869775E+03  0.12500000000E+03 0.  0.
</event>
<event>
 5    0  0.5583350E-005  0.2226921E+03  0.7546771E-02  0.1131892E+00
         21   -1    0    0  502  501  0.00000000000E+00  0.00000000000E+00  0.59414942592E+03  0.59414942592E+03  0.00000000000E+00 0.  1.
         21   -1    0    0  501  502 -0.00000000000E+00 -0.00000000000E+00 -0.83466815254E+02  0.83466815254E+02  0.00000000000E+00 0.  1.
         25    1    1    2    0    0 -0.25130955739E+02  0.81339309084E+02  0.84714053704E+02  0.17334681720E+03  0.12500000000E+03 0.  0.
         25    1    1    2    0    0  0.13103777146E+01 -0.30254409535E+02  0.16235496556E+03  0.20712600326E+03  0.12500000000E+03 0.  0.
         25    1    1    2    0    0  0.23820578024E+02 -0.51084899549E+02  0.26361359141E+03  0.29714342071E+03  0.12500000000E+03 0.  0.
</event>
<event>
 5    0  0.5583350E-005  0.2809984E+03  0.7546771E-02  0.1095145E+00
         21   -1    0    0  502  501  0.00000000000E+00  0.00000000000E+00  0.44380191252E+03  0.44380191252E+03  0.00000000000E+00 0.  1.
         21   -1    0    0  501  502 -0.00000000000E+00 -0.00000000000E+00 -0.17791741642E+03  0.17791741642E+03  0.00000000000E+00 0.  1.
         25    1    1    2    0    0  0.13746441193E+03 -0.92459824400E+02  0.19580299214E+03  0.28532279160E+03  0.12500000000E+03 0.  0.
         25    1    1    2    0    0 -0.27540235380E+02  0.97437270076E+00 -0.13827411862E+02  0.12874630591E+03  0.12500000000E+03 0.  0.
         25    1    1    2    0    0 -0.10992417655E+03  0.91485451699E+02  0.83908915822E+02  0.20765023144E+03  0.12500000000E+03 0.  0.
</event>
<event>
 5    0  0.5583350E-005  0.2933942E+03  0.7546771E-02  0.1088590E+00
         21   -1    0    0  502  501  0.00000000000E+00  0.00000000000E+00  0.77929441439E+03  0.77929441439E+03  0.00000000000E+00 0.  1.
         21   -1    0    0  501  502 -0.00000000000E+00 -0.00000000000E+00 -0.11045907670E+03  0.11045907670E+03  0.00000000000E+00 0.  1.
         25    1    1    2    0    0  0.99126642833E+01 -0.24333387749E+02  0.82615615173E+01  0.12799854715E+03  0.12500000000E+03 0.  0.
         25    1    1    2    0    0 -0.52331226561E+02  0.12122594927E+03  0.18766316842E+03  0.26129820671E+03  0.12500000000E+03 0.  0.
         25    1    1    2    0    0  0.42418562278E+02 -0.96892561525E+02  0.47291060777E+03  0.50045673723E+03  0.12500000000E+03 0.  0.
</event>
<event>
 5    0  0.5583350E-005  0.2287917E+03  0.7546771E-02  0.1127493E+00
         21   -1    0    0  502  501  0.00000000000E+00  0.00000000000E+00  0.52143584096E+03  0.52143584096E+03  0.00000000000E+00 0.  1.
         21   -1    0    0  501  502 -0.00000000000E+00 -0.00000000000E+00 -0.10038747648E+03  0.10038747648E+03  0.00000000000E+00 0.  1.
         25    1    1    2    0    0 -0.98451969272E+02  0.38143638792E+02  0.12085229869E+03  0.20341584386E+03  0.12500000000E+03 0.  0.
         25    1    1    2    0    0 -0.39985899864E+01 -0.34745074436E+02  0.13341849525E+03  0.18614162295E+03  0.12500000000E+03 0.  0.
         25    1    1    2    0    0  0.10245055926E+03 -0.33985643560E+01  0.16677757055E+03  0.23226585063E+03  0.12500000000E+03 0.  0.
</event>
<event>
 5    0  0.5583350E-005  0.2521870E+03  0.7546771E-02  0.1111930E+00
         21   -1    0    0  502  501  0.00000000000E+00  0.00000000000E+00  0.17414806910E+03  0.17414806910E+03  0.00000000000E+00 0.  1.
         21   -1    0    0  501  502 -0.00000000000E+00 -0.00000000000E+00 -0.36519668721E+03  0.36519668721E+03  0.00000000000E+00 0.  1.
         25    1    1    2    0    0 -0.36200925982E+01  0.51683929256E+02  0.55684524104E+02  0.14632190485E+03  0.12500000000E+03 0.  0.
         25    1    1    2    0    0  0.86016447811E+02 -0.27883515206E+02 -0.12814052701E+03  0.20055252274E+03  0.12500000000E+03 0.  0.
         25    1    1    2    0    0 -0.82396355213E+02 -0.23800414050E+02 -0.11859261520E+03  0.19247032873E+03  0.12500000000E+03 0.  0.
</event>
<event>
 5    0  0.5583350E-005  0.6501312E+03  0.7546771E-02  0.9806533E-01
         21   -1    0    0  502  501  0.00000000000E+00  0.00000000000E+00  0.34947889349E+03  0.34947889349E+03  0.00000000000E+00 0. -1.
         21   -1    0    0  501  502 -0.00000000000E+00 -0.00000000000E+00 -0.12094309423E+04  0.12094309423E+04  0.00000000000E+00 0. -1.
         25    1    1    2    0    0  0.26914861251E+03  0.90775885919E+02  0.13843586548E+03  0.33980983790E+03  0.12500000000E+03 0.  0.
         25    1    1    2    0    0  0.50137514283E+02 -0.10826645814E+03 -0.10350591241E+02  0.17311132556E+03  0.12500000000E+03 0.  0.
         25    1    1    2    0    0 -0.31928612680E+03  0.17490572225E+02 -0.98803732304E+03  0.10459886723E+04  0.12500000000E+03 0.  0.
</event>
<event>
 5    0  0.5583350E-005  0.3865501E+03  0.7546771E-02  0.1048539E+00
         21   -1    0    0  502  501  0.00000000000E+00  0.00000000000E+00  0.26192683137E+03  0.26192683137E+03  0.00000000000E+00 0.  1.
         21   -1    0    0  501  502 -0.00000000000E+00 -0.00000000000E+00 -0.57046845120E+03  0.57046845120E+03  0.00000000000E+00 0.  1.
         25    1    1    2    0    0 -0.91549157274E+02  0.63094907957E+02 -0.20759242184E+00  0.16729392907E+03  0.12500000000E+03 0.  0.
         25    1    1    2    0    0 -0.85005812786E+02 -0.17702990766E+03  0.43339055019E+02  0.23678861904E+03  0.12500000000E+03 0.  0.
         25    1    1    2    0    0  0.17655497006E+03  0.11393499971E+03 -0.35167308242E+03  0.42831273447E+03  0.12500000000E+03 0.  0.
</event>
<event>
 5    0  0.5583350E-005  0.2295028E+03  0.7546771E-02  0.1126990E+00
         21   -1    0    0  502  501  0.00000000000E+00  0.00000000000E+00  0.18188688079E+03  0.18188688079E+03  0.00000000000E+00 0.  1.
         21   -1    0    0  501  502 -0.00000000000E+00 -0.00000000000E+00 -0.28958396787E+03  0.28958396787E+03  0.00000000000E+00 0.  1.
         25    1    1    2    0    0 -0.18750080158E+02 -0.28864226504E+02 -0.99363021710E+02  0.16334845932E+03  0.12500000000E+03 0.  0.
         25    1    1    2    0    0 -0.45882699727E+01  0.68860726836E+02 -0.72548722801E+02  0.16015982362E+03  0.12500000000E+03 0.  0.
         25    1    1    2    0    0  0.23338350130E+02 -0.39996500332E+02  0.64214657431E+02  0.14796256572E+03  0.12500000000E+03 0.  0.
</event>
<event>
 5    0  0.5583350E-005  0.2287083E+03  0.7546771E-02  0.1127552E+00
         21   -1    0    0  502  501  0.00000000000E+00  0.00000000000E+00  0.56008668094E+03  0.56008668094E+03  0.00000000000E+00 0. -1.
         21   -1    0    0  501  502 -0.00000000000E+00 -0.00000000000E+00 -0.93391807574E+02  0.93391807574E+02  0.00000000000E+00 0. -1.
         25    1    1    2    0    0 -0.12832304167E+02  0.30296871319E+02  0.10079615833E+03  0.16391288533E+03  0.12500000000E+03 0.  0.
         25    1    1    2    0    0 -0.14787546358E+02  0.69170492754E+02  0.89792321220E+02  0.16938385267E+03  0.12500000000E+03 0.  0.
         25    1    1    2    0    0  0.27619850525E+02 -0.99467364073E+02  0.27610639381E+03  0.32018175052E+03  0.12500000000E+03 0.  0.
</event>
<event>
 5    0  0.5583350E-005  0.3300101E+03  0.7546771E-02  0.1071132E+00
         21   -1    0    0  502  501  0.00000000000E+00  0.00000000000E+00  0.20011333523E+03  0.20011333523E+03  0.00000000000E+00 0.  1.
         21   -1    0    0  501  502 -0.00000000000E+00 -0.00000000000E+00 -0.54422504926E+03  0.54422504926E+03  0.00000000000E+00 0.  1.
         25    1    1    2    0    0 -0.83487206505E+02 -0.58585677954E+02 -0.17949743271E+03  0.24134358011E+03  0.12500000000E+03 0.  0.
         25    1    1    2    0    0  0.66275849697E+02  0.17853933288E+03  0.43231102472E+02  0.23186787156E+03  0.12500000000E+03 0.  0.
         25    1    1    2    0    0  0.17211356808E+02 -0.11995365493E+03 -0.20784538379E+03  0.27112693281E+03  0.12500000000E+03 0.  0.
</event>
<event>
 5    0  0.5583350E-005  0.3695257E+03  0.7546771E-02  0.1054874E+00
         21   -1    0    0  502  501  0.00000000000E+00  0.00000000000E+00  0.94530832683E+02  0.94530832683E+02  0.00000000000E+00 0. -1.
         21   -1    0    0  501  502 -0.00000000000E+00 -0.00000000000E+00 -0.14444939171E+04  0.14444939171E+04  0.00000000000E+00 0. -1.
         25    1    1    2    0    0  0.13314075698E+03  0.10734094578E+03 -0.68927660698E+03  0.72109346186E+03  0.12500000000E+03 0.  0.
         25    1    1    2    0    0 -0.15908849254E+03 -0.28812244560E+02 -0.82085792522E+02  0.22023253899E+03  0.12500000000E+03 0.  0.
         25    1    1    2    0    0  0.25947735560E+02 -0.78528701217E+02 -0.57860068489E+03  0.59769874891E+03  0.12500000000E+03 0.  0.
</event>
<event>
 5    0  0.5583350E-005  0.2912611E+03  0.7546771E-02  0.1089693E+00
         21   -1    0    0  502  501  0.00000000000E+00  0.00000000000E+00  0.11313788362E+03  0.11313788362E+03  0.00000000000E+00 0.  1.
         21   -1    0    0  501  502 -0.00000000000E+00 -0.00000000000E+00 -0.74981971490E+03  0.74981971490E+03  0.00000000000E+00 0.  1.
         25    1    1    2    0    0  0.56810529653E+02  0.68822873927E+02 -0.26040028943E+03  0.30231992159E+03  0.12500000000E+03 0.  0.
         25    1    1    2    0    0  0.54637176911E+02  0.60598304884E+02 -0.26206454064E+02  0.15155577815E+03  0.12500000000E+03 0.  0.
         25    1    1    2    0    0 -0.11144770656E+03 -0.12942117881E+03 -0.35007508778E+03  0.40908189878E+03  0.12500000000E+03 0.  0.
</event>
<event>
 5    0  0.5583350E-005  0.3712214E+03  0.7546771E-02  0.1054227E+00
         21   -1    0    0  502  501  0.00000000000E+00  0.00000000000E+00  0.53159509563E+03  0.53159509563E+03  0.00000000000E+00 0. -1.
         21   -1    0    0  501  502 -0.00000000000E+00 -0.00000000000E+00 -0.25922984570E+03  0.25922984570E+03  0.00000000000E+00 0. -1.
         25    1    1    2    0    0  0.27307257779E+03 -0.11069195937E+03  0.97960669222E+02  0.33472770325E+03  0.12500000000E+03 0.  0.
         25    1    1    2    0    0 -0.13239943143E+03 -0.25443169257E+02  0.41436830997E+02  0.18846478522E+03  0.12500000000E+03 0.  0.
         25    1    1    2    0    0 -0.14067314636E+03  0.13613512863E+03  0.13296774971E+03  0.26763245285E+03  0.12500000000E+03 0.  0.
</event>
<event>
 5    0  0.5583350E-005  0.2949952E+03  0.7546771E-02  0.1087770E+00
         21   -1    0    0  502  501  0.00000000000E+00  0.00000000000E+00  0.42994711538E+03  0.42994711538E+03  0.00000000000E+00 0. -1.
         21   -1    0    0  501  502 -0.00000000000E+00 -0.00000000000E+00 -0.20240203860E+03  0.20240203860E+03  0.00000000000E+00 0. -1.
         25    1    1    2    0    0 -0.31222958994E+02  0.57482149604E+02  0.17495179085E+03  0.22474919313E+03  0.12500000000E+03 0.  0.
         25    1    1    2    0    0 -0.81632699738E+02  0.76822202169E+02  0.87585181025E+02  0.18937188901E+03  0.12500000000E+03 0.  0.
         25    1    1    2    0    0  0.11285565873E+03 -0.13430435177E+03 -0.34991895100E+02  0.21822807183E+03  0.12500000000E+03 0.  0.
</event>
<event>
 5    0  0.5583350E-005  0.2228280E+03  0.7546771E-02  0.1131792E+00
         21   -1    0    0  502  501  0.00000000000E+00  0.00000000000E+00  0.19445531861E+03  0.19445531861E+03  0.00000000000E+00 0.  1.
         21   -1    0    0  501  502 -0.00000000000E+00 -0.00000000000E+00 -0.25534048341E+03  0.25534048341E+03  0.00000000000E+00 0.  1.
         25    1    1    2    0    0  0.28226388355E+02 -0.28216252879E+02  0.78906249245E+02  0.15311460445E+03  0.12500000000E+03 0.  0.
         25    1    1    2    0    0 -0.30559251371E+02  0.42613385429E+02 -0.65609701611E+02  0.15059681739E+03  0.12500000000E+03 0.  0.
         25    1    1    2    0    0  0.23328630162E+01 -0.14397132549E+02 -0.74181712435E+02  0.14608438019E+03  0.12500000000E+03 0.  0.
</event>
<event>
 5    0  0.5583350E-005  0.2198216E+03  0.7546771E-02  0.1134016E+00
         21   -1    0    0  502  501  0.00000000000E+00  0.00000000000E+00  0.36263799163E+03  0.36263799163E+03  0.00000000000E+00 0.  1.
         21   -1    0    0  501  502 -0.00000000000E+00 -0.00000000000E+00 -0.13325003150E+03  0.13325003150E+03  0.00000000000E+00 0.  1.
         25    1    1    2    0    0  0.11111538593E+01 -0.43429922910E+01  0.48039215574E+02  0.13398829232E+03  0.12500000000E+03 0.  0.
         25    1    1    2    0    0 -0.21684167077E+02 -0.83662976372E+02  0.12797318110E+03  0.19867519170E+03  0.12500000000E+03 0.  0.
         25    1    1    2    0    0  0.20573013218E+02  0.88005968663E+02  0.53375563460E+02  0.16322453911E+03  0.12500000000E+03 0.  0.
</event>
<event>
 5    0  0.5583350E-005  0.2372802E+03  0.7546771E-02  0.1121618E+00
         21   -1    0    0  502  501  0.00000000000E+00  0.00000000000E+00  0.79478908046E+03  0.79478908046E+03  0.00000000000E+00 0. -1.
         21   -1    0    0  501  502 -0.00000000000E+00 -0.00000000000E+00 -0.70838791318E+02  0.70838791318E+02  0.00000000000E+00 0. -1.
         25    1    1    2    0    0 -0.10591041535E+03  0.15285201548E+02  0.39444042875E+03  0.42738613138E+03  0.12500000000E+03 0.  0.
         25    1    1    2    0    0  0.70068210395E+01 -0.30222946763E+02  0.14323889915E+03  0.19262633331E+03  0.12500000000E+03 0.  0.
         25    1    1    2    0    0  0.98903594308E+02  0.14937745216E+02  0.18627096124E+03  0.24561540709E+03  0.12500000000E+03 0.  0.
</event>
<event>
 5    0  0.5583350E-005  0.2727493E+03  0.7546771E-02  0.1099716E+00
         21   -1    0    0  502  501  0.00000000000E+00  0.00000000000E+00  0.14826282950E+03  0.14826282950E+03  0.00000000000E+00 0. -1.
         21   -1    0    0  501  502 -0.00000000000E+00 -0.00000000000E+00 -0.50175882548E+03  0.50175882548E+03  0.00000000000E+00 0. -1.
         25    1    1    2    0    0 -0.93505412284E+02 -0.98404264639E+02 -0.18025307991E+03  0.25795897783E+03  0.12500000000E+03 0.  0.
         25    1    1    2    0    0  0.53106213647E+02  0.13082986960E+03 -0.23168217235E+02  0.18999602890E+03  0.12500000000E+03 0.  0.
         25    1    1    2    0    0  0.40399198637E+02 -0.32425604963E+02 -0.15007469883E+03  0.20206664825E+03  0.12500000000E+03 0.  0.
</event>
<event>
 5    0  0.5583350E-005  0.3937023E+03  0.7546771E-02  0.1045982E+00
         21   -1    0    0  502  501  0.00000000000E+00  0.00000000000E+00  0.83443035123E+02  0.83443035123E+02  0.00000000000E+00 0. -1.
         21   -1    0    0  501  502 -0.00000000000E+00 -0.00000000000E+00 -0.18575725285E+04  0.18575725285E+04  0.00000000000E+00 0. -1.
         25    1    1    2    0    0 -0.13542497289E+03  0.14777293272E+03 -0.12094002133E+04  0.12322542915E+04  0.12500000000E+03 0.  0.
         25    1    1    2    0    0  0.20739445188E+03 -0.38771036086E+02 -0.36050062900E+03  0.43600614149E+03  0.12500000000E+03 0.  0.
         25    1    1    2    0    0 -0.71969478993E+02 -0.10900189663E+03 -0.20422865106E+03  0.27275513064E+03  0.12500000000E+03 0.  0.
</event>
<event>
 5    0  0.5583350E-005  0.3302302E+03  0.7546771E-02  0.1071035E+00
         21   -1    0    0  502  501  0.00000000000E+00  0.00000000000E+00  0.79304217254E+02  0.79304217254E+02  0.00000000000E+00 0.  1.
         21   -1    0    0  501  502 -0.00000000000E+00 -0.00000000000E+00 -0.13751096264E+04  0.13751096264E+04  0.00000000000E+00 0.  1.
         25    1    1    2    0    0  0.14274226312E+03 -0.64238193531E+02 -0.27004238891E+03  0.33622877776E+03  0.12500000000E+03 0.  0.
         25    1    1    2    0    0 -0.15563243782E+03 -0.49328193714E+02 -0.24781719685E+03  0.32201411374E+03  0.12500000000E+03 0.  0.
         25    1    1    2    0    0  0.12890174701E+02  0.11356638725E+03 -0.77794582336E+03  0.79617095212E+03  0.12500000000E+03 0.  0.
</event>
<event>
 5    0  0.5583350E-005  0.3807240E+03  0.7546771E-02  0.1050666E+00
         21   -1    0    0  502  501  0.00000000000E+00  0.00000000000E+00  0.20536088915E+04  0.20536088915E+04  0.00000000000E+00 0. -1.
         21   -1    0    0  501  502 -0.00000000000E+00 -0.00000000000E+00 -0.70583421870E+02  0.70583421870E+02  0.00000000000E+00 0. -1.
         25    1    1    2    0    0  0.13352153602E+03  0.14404318073E+03  0.92117262143E+03  0.95013706220E+03  0.12500000000E+03 0.  0.
         25    1    1    2    0    0 -0.21508731612E+03 -0.12912890885E+03  0.93969170283E+03  0.98060304151E+03  0.12500000000E+03 0.  0.
         25    1    1    2    0    0  0.81565780107E+02 -0.14914271879E+02  0.12216114542E+03  0.19345220971E+03  0.12500000000E+03 0.  0.
</event>
<event>
 5    0  0.5583350E-005  0.3516746E+03  0.7546771E-02  0.1061930E+00
         21   -1    0    0  502  501  0.00000000000E+00  0.00000000000E+00  0.46406790280E+03  0.46406790280E+03  0.00000000000E+00 0. -1.
         21   -1    0    0  501  502 -0.00000000000E+00 -0.00000000000E+00 -0.26650200242E+03  0.26650200242E+03  0.00000000000E+00 0. -1.
         25    1    1    2    0    0 -0.20910742763E+03  0.35336721010E+02  0.26757275153E+03  0.36358599740E+03  0.12500000000E+03 0.  0.
         25    1    1    2    0    0  0.14818792481E+03 -0.48976013939E+02 -0.10077073476E+03  0.22391527859E+03  0.12500000000E+03 0.  0.
         25    1    1    2    0    0  0.60919502821E+02  0.13639292929E+02  0.30763883608E+02  0.14306862923E+03  0.12500000000E+03 0.  0.
</event>
<event>
 5    0  0.5583350E-005  0.2881202E+03  0.7546771E-02  0.1091335E+00
         21   -1    0    0  502  501  0.00000000000E+00  0.00000000000E+00  0.10745693116E+04  0.10745693116E+04  0.00000000000E+00 0.  1.
         21   -1    0    0  501  502 -0.00000000000E+00 -0.00000000000E+00 -0.77252555333E+02  0.77252555333E+02  0.00000000000E+00 0.  1.
         25    1    1    2    0    0 -0.23496333364E+02  0.87748610990E+01  0.54161372500E+02  0.13851906057E+03  0.12500000000E+03 0.  0.
         25    1    1    2    0    0 -0.87205206874E+02 -0.21591991288E+02  0.20483674984E+03  0.25623047492E+03  0.12500000000E+03 0.  0.
         25    1    1    2    0    0  0.11070154024E+03  0.12817130189E+02  0.73831863392E+03  0.75707233144E+03  0.12500000000E+03 0.  0.
</event>
<event>
 5    0  0.5583350E-005  0.4539660E+03  0.7546771E-02  0.1026546E+00
         21   -1    0    0  502  501  0.00000000000E+00  0.00000000000E+00  0.60162494745E+03  0.60162494745E+03  0.00000000000E+00 0. -1.
         21   -1    0    0  501  502 -0.00000000000E+00 -0.00000000000E+00 -0.34254755999E+03  0.34254755999E+03  0.00000000000E+00 0. -1.
         25    1    1    2    0    0 -0.77067525038E+01 -0.17914076476E+03 -0.63145364338E+02  0.22751515262E+03  0.12500000000E+03 0.  0.
         25    1    1    2    0    0 -0.14527778722E+03 -0.96982593631E+02 -0.41857835179E+02  0.21883404052E+03  0.12500000000E+03 0.  0.
         25    1    1    2    0    0  0.15298453972E+03  0.27612335839E+03  0.36408058698E+03  0.49782331430E+03  0.12500000000E+03 0.  0.
</event>
<event>
 5    0  0.5583350E-005  0.4901766E+03  0.7546771E-02  0.1016375E+00
         21   -1    0    0  502  501  0.00000000000E+00  0.00000000000E+00  0.11728973243E+04  0.11728973243E+04  0.00000000000E+00 0. -1.
         21   -1    0    0  501  502 -0.00000000000E+00 -0.00000000000E+00 -0.20485435235E+03  0.20485435235E+03  0.00000000000E+00 0. -1.
         25    1    1    2    0    0 -0.19063635638E+03  0.28064675899E+03  0.63305801852E+03  0.72903516961E+03  0.12500000000E+03 0.  0.
         25    1    1    2    0    0  0.53685572407E+02  0.65108454135E+02  0.15762090624E+03  0.21815270241E+03  0.12500000000E+03 0.  0.
         25    1    1    2    0    0  0.13695078398E+03 -0.34575521313E+03  0.17736404721E+03  0.43056380465E+03  0.12500000000E+03 0.  0.
</event>
<event>
 5    0  0.5583350E-005  0.2370824E+03  0.7546771E-02  0.1121752E+00
         21   -1    0    0  502  501  0.00000000000E+00  0.00000000000E+00  0.17451842373E+03  0.17451842373E+03  0.00000000000E+00 0. -1.
         21   -1    0    0  501  502 -0.00000000000E+00 -0.00000000000E+00 -0.32207532038E+03  0.32207532038E+03  0.00000000000E+00 0. -1.
         25    1    1    2    0    0  0.54438725325E+02  0.15890068041E+02 -0.21600246515E+02  0.13895193315E+03  0.12500000000E+03 0.  0.
         25    1    1    2    0    0  0.78583497011E+01  0.63154350820E+02  0.18797262480E+02  0.14152230483E+03  0.12500000000E+03 0.  0.
         25    1    1    2    0    0 -0.62297075026E+02 -0.79044418861E+02 -0.14475391261E+03  0.21611950612E+03  0.12500000000E+03 0.  0.
</event>
<event>
 5    0  0.5583350E-005  0.3138511E+03  0.7546771E-02  0.1078515E+00
         21   -1    0    0  502  501  0.00000000000E+00  0.00000000000E+00  0.15776149313E+03  0.15776149313E+03  0.00000000000E+00 0.  1.
         21   -1    0    0  501  502 -0.00000000000E+00 -0.00000000000E+00 -0.62437620742E+03  0.62437620742E+03  0.00000000000E+00 0.  1.
         25    1    1    2    0    0  0.13466444885E+02  0.98293320493E+02 -0.10399168828E+03  0.19047885243E+03  0.12500000000E+03 0.  0.
         25    1    1    2    0    0 -0.31181201656E+02  0.62513078995E+02 -0.35974179416E+03  0.38719415136E+03  0.12500000000E+03 0.  0.
         25    1    1    2    0    0  0.17714756771E+02 -0.16080639949E+03 -0.28812318450E+01  0.20446469676E+03  0.12500000000E+03 0.  0.
</event>
<event>
 5    0  0.5583350E-005  0.2186438E+03  0.7546771E-02  0.1134898E+00
         21   -1    0    0  502  501  0.00000000000E+00  0.00000000000E+00  0.53868757019E+02  0.53868757019E+02  0.00000000000E+00 0.  1.
         21   -1    0    0  501  502 -0.00000000000E+00 -0.00000000000E+00 -0.88743643745E+03  0.88743643745E+03  0.00000000000E+00 0.  1.
         25    1    1    2    0    0 -0.19332412977E+02  0.29382333609E+02 -0.17338234309E+03  0.21661832936E+03  0.12500000000E+03 0.  0.
         25    1    1    2    0    0 -0.25803398362E+02 -0.61419855864E+02 -0.20323226865E+03  0.24772276658E+03  0.12500000000E+03 0.  0.
         25    1    1    2    0    0  0.45135811339E+02  0.32037522255E+02 -0.45695306870E+03  0.47696409853E+03  0.12500000000E+03 0.  0.
</event>
<event>
 5    0  0.5583350E-005  0.2777863E+03  0.7546771E-02  0.1096904E+00
         21   -1    0    0  502  501  0.00000000000E+00  0.00000000000E+00  0.18596090257E+03  0.18596090257E+03  0.00000000000E+00 0. -1.
         21   -1    0    0  501  502 -0.00000000000E+00 -0.00000000000E+00 -0.41495413610E+03  0.41495413610E+03  0.00000000000E+00 0. -1.
         25    1    1    2    0    0  0.12923888155E+03  0.32353936818E+02 -0.61445191247E+02  0.19274329368E+03  0.12500000000E+03 0.  0.
         25    1    1    2    0    0 -0.82678904289E+02 -0.44436612592E+02  0.39820362667E+02  0.16131049264E+03  0.12500000000E+03 0.  0.
         25    1    1    2    0    0 -0.46559977261E+02  0.12082675774E+02 -0.20736840495E+03  0.24686125234E+03  0.12500000000E+03 0.  0.
</event>
<event>
 5    0  0.5583350E-005  0.2593227E+03  0.7546771E-02  0.1107551E+00
         21   -1    0    0  502  501  0.00000000000E+00  0.00000000000E+00  0.60405135000E+02  0.60405135000E+02  0.00000000000E+00 0. -1.
         21   -1    0    0  501  502 -0.00000000000E+00 -0.00000000000E+00 -0.11132873348E+04  0.11132873348E+04  0.00000000000E+00 0. -1.
         25    1    1    2    0    0  0.14671454075E+03  0.41689096996E+02 -0.31170143993E+03  0.36884403876E+03  0.12500000000E+03 0.  0.
         25    1    1    2    0    0 -0.21562361441E+02  0.80895787347E+01 -0.35779350829E+03  0.37969931695E+03  0.12500000000E+03 0.  0.
         25    1    1    2    0    0 -0.12515217931E+03 -0.49778675731E+02 -0.38338725160E+03  0.42514911412E+03  0.12500000000E+03 0.  0.
</event>
<event>
 5    0  0.5583350E-005  0.4013917E+03  0.7546771E-02  0.1043299E+00
         21   -1    0    0  502  501  0.00000000000E+00  0.00000000000E+00  0.42003978836E+03  0.42003978836E+03  0.00000000000E+00 0.  1.
         21   -1    0    0  501  502 -0.00000000000E+00 -0.00000000000E+00 -0.38357143476E+03  0.38357143476E+03  0.00000000000E+00 0.  1.
         25    1    1    2    0    0  0.28081730132E+02  0.24105474918E+03  0.20467271528E+03  0.34119187571E+03  0.12500000000E+03 0.  0.
         25    1    1    2    0    0 -0.19325028739E+02  0.13535806035E+02 -0.11946005168E+03  0.17450609940E+03  0.12500000000E+03 0.  0.
         25    1    1    2    0    0 -0.87567013929E+01 -0.25459055521E+03 -0.48744309993E+02  0.28791324801E+03  0.12500000000E+03 0.  0.
</event>
<event>
 5    0  0.5583350E-005  0.3017801E+03  0.7546771E-02  0.1084354E+00
         21   -1    0    0  502  501  0.00000000000E+00  0.00000000000E+00  0.58250775107E+02  0.58250775107E+02  0.00000000000E+00 0.  1.
         21   -1    0    0  501  502 -0.00000000000E+00 -0.00000000000E+00 -0.15634334347E+04  0.15634334347E+04  0.00000000000E+00 0.  1.
         25    1    1    2    0    0 -0.15487798133E+03 -0.10529227241E+03 -0.30166194781E+03  0.37642872166E+03  0.12500000000E+03 0.  0.
         25    1    1    2    0    0  0.46270225081E+02  0.66795896822E+02 -0.60015328188E+03  0.61839436229E+03  0.12500000000E+03 0.  0.
         25    1    1    2    0    0  0.10860775625E+03  0.38496375586E+02 -0.60336742989E+03  0.62686112585E+03  0.12500000000E+03 0.  0.
</event>
<event>
 5    0  0.5583350E-005  0.3699131E+03  0.7546771E-02  0.1054726E+00
         21   -1    0    0  502  501  0.00000000000E+00  0.00000000000E+00  0.20665400744E+04  0.20665400744E+04  0.00000000000E+00 0.  1.
         21   -1    0    0  501  502 -0.00000000000E+00 -0.00000000000E+00 -0.66214891879E+02  0.66214891879E+02  0.00000000000E+00 0.  1.
         25    1    1    2    0    0 -0.89715269177E+02 -0.16327648542E+03  0.77038008812E+03  0.80238302599E+03  0.12500000000E+03 0.  0.
         25    1    1    2    0    0 -0.62674615033E+02 -0.89158460749E+02  0.25511086999E+03  0.30427601693E+03  0.12500000000E+03 0.  0.
         25    1    1    2    0    0  0.15238988421E+03  0.25243494617E+03  0.97483422441E+03  0.10260959234E+04  0.12500000000E+03 0.  0.
</event>
<event>
 5    0  0.5583350E-005  0.3148922E+03  0.7546771E-02  0.1078024E+00
         21   -1    0    0  502  501  0.00000000000E+00  0.00000000000E+00  0.25467225299E+03  0.25467225299E+03  0.00000000000E+00 0. -1.
         21   -1    0    0  501  502 -0.00000000000E+00 -0.00000000000E+00 -0.38935180909E+03  0.38935180909E+03  0.00000000000E+00 0. -1.
         25    1    1    2    0    0 -0.21605682930E+03 -0.20881339901E+02 -0.47255280267E+02  0.25490124628E+03  0.12500000000E+03 0.  0.
         25    1    1    2    0    0  0.46606072026E+02  0.15640776555E+02 -0.11483177665E+03  0.17671473274E+03  0.12500000000E+03 0.  0.
         25    1    1    2    0    0  0.16945075728E+03  0.52405633460E+01  0.27407500816E+02  0.21240808305E+03  0.12500000000E+03 0.  0.
</event>
<event>
 5    0  0.5583350E-005  0.2980174E+03  0.7546771E-02  0.1086236E+00
         21   -1    0    0  502  501  0.00000000000E+00  0.00000000000E+00  0.36110366121E+03  0.36110366121E+03  0.00000000000E+00 0. -1.
         21   -1    0    0  501  502 -0.00000000000E+00 -0.00000000000E+00 -0.24595255247E+03  0.24595255247E+03  0.00000000000E+00 0. -1.
         25    1    1    2    0    0 -0.29480113839E+02 -0.60772728460E+02 -0.10554344458E+03  0.17699384264E+03  0.12500000000E+03 0.  0.
         25    1    1    2    0    0 -0.10866686573E+03  0.22909177647E+02  0.15754130671E+03  0.22973371857E+03  0.12500000000E+03 0.  0.
         25    1    1    2    0    0  0.13814697957E+03  0.37863550813E+02  0.63153246610E+02  0.20032865247E+03  0.12500000000E+03 0.  0.
</event>
<event>
 5    0  0.5583350E-005  0.3213224E+03  0.7546771E-02  0.1075042E+00
         21   -1    0    0  502  501  0.00000000000E+00  0.00000000000E+00  0.10700484631E+04  0.10700484631E+04  0.00000000000E+00 0.  1.
         21   -1    0    0  501  502 -0.00000000000E+00 -0.00000000000E+00 -0.96489174725E+02  0.96489174725E+02  0.00000000000E+00 0.  1.
         25    1    1    2    0    0  0.14906349919E+03 -0.54373179035E+02  0.20365431968E+03  0.28683872003E+03  0.12500000000E+03 0.  0.
         25    1    1    2    0    0 -0.22098540505E+03 -0.28581572348E+02  0.52156409881E+03  0.58078013455E+03  0.12500000000E+03 0.  0.
         25    1    1    2    0    0  0.71921905864E+02  0.82954751384E+02  0.24834086993E+03  0.29891878328E+03  0.12500000000E+03 0.  0.
</event>
<event>
 5    0  0.5583350E-005  0.2816818E+03  0.7546771E-02  0.1094774E+00
         21   -1    0    0  502  501  0.00000000000E+00  0.00000000000E+00  0.35326638571E+03  0.35326638571E+03  0.00000000000E+00 0.  1.
         21   -1    0    0  501  502 -0.00000000000E+00 -0.00000000000E+00 -0.22460292518E+03  0.22460292518E+03  0.00000000000E+00 0.  1.
         25    1    1    2    0    0  0.79849871226E+02 -0.51615097194E+02  0.12076427122E+03  0.19811393035E+03  0.12500000000E+03 0.  0.
         25    1    1    2    0    0 -0.38185557308E+02 -0.94774301590E+02 -0.58788406980E+02  0.17181787399E+03  0.12500000000E+03 0.  0.
         25    1    1    2    0    0 -0.41664313917E+02  0.14638939878E+03  0.66687596296E+02  0.20793750655E+03  0.12500000000E+03 0.  0.
</event>
<event>
 5    0  0.5583350E-005  0.2942167E+03  0.7546771E-02  0.1088168E+00
         21   -1    0    0  502  501  0.00000000000E+00  0.00000000000E+00  0.29069444225E+03  0.29069444225E+03  0.00000000000E+00 0. -1.
         21   -1    0    0  501  502 -0.00000000000E+00 -0.00000000000E+00 -0.29778156348E+03  0.29778156348E+03  0.00000000000E+00 0. -1.
         25    1    1    2    0    0 -0.98198891219E+02  0.28269799258E+01  0.15661121680E+03  0.22316605315E+03  0.12500000000E+03 0.  0.
         25    1    1    2    0    0  0.25619106860E+02 -0.87283817327E+02 -0.48240072557E+02  0.16194723833E+03  0.12500000000E+03 0.  0.
         25    1    1    2    0    0  0.72579784359E+02  0.84456837401E+02 -0.11545826547E+03  0.20336271425E+03  0.12500000000E+03 0.  0.
</event>
<event>
 5    0  0.5583350E-005  0.2347867E+03  0.7546771E-02  0.1123315E+00
         21   -1    0    0  502  501  0.00000000000E+00  0.00000000000E+00  0.22519532304E+03  0.22519532304E+03  0.00000000000E+00 0. -1.
         21   -1    0    0  501  502 -0.00000000000E+00 -0.00000000000E+00 -0.24478661661E+03  0.24478661661E+03  0.00000000000E+00 0. -1.
         25    1    1    2    0    0 -0.17464607064E+02  0.71570117417E+02 -0.10055383994E+03  0.17653149559E+03  0.12500000000E+03 0.  0.
         25    1    1    2    0    0  0.42499071516E+02 -0.54297663187E+02  0.25287184667E+01  0.14277885601E+03  0.12500000000E+03 0.  0.
         25    1    1    2    0    0 -0.25034464452E+02 -0.17272454230E+02  0.78433827907E+02  0.15067158805E+03  0.12500000000E+03 0.  0.
</event>
<event>
 5    0  0.5583350E-005  0.2542210E+03  0.7546771E-02  0.1110666E+00
         21   -1    0    0  502  501  0.00000000000E+00  0.00000000000E+00  0.71198997518E+03  0.71198997518E+03  0.00000000000E+00 0.  1.
         21   -1    0    0  501  502 -0.00000000000E+00 -0.00000000000E+00 -0.90771388236E+02  0.90771388236E+02  0.00000000000E+00 0.  1.
         25    1    1    2    0    0 -0.12559124466E+03 -0.27563654437E+02  0.15504410364E+03  0.23705819930E+03  0.12500000000E+03 0.  0.
         25    1    1    2    0    0  0.53632532594E+02  0.67080634220E+02  0.13795325697E+03  0.20501795323E+03  0.12500000000E+03 0.  0.
         25    1    1    2    0    0  0.71958712065E+02 -0.39516979783E+02  0.32822122634E+03  0.36068521089E+03  0.12500000000E+03 0.  0.
</event>
<event>
 5    0  0.5583350E-005  0.3196379E+03  0.7546771E-02  0.1075816E+00
         21   -1    0    0  502  501  0.00000000000E+00  0.00000000000E+00  0.87755915972E+02  0.87755915972E+02  0.00000000000E+00 0. -1.
         21   -1    0    0  501  502 -0.00000000000E+00 -0.00000000000E+00 -0.11642336359E+04  0.11642336359E+04  0.00000000000E+00 0. -1.
         25    1    1    2    0    0 -0.16022732337E+03 -0.66271528722E+02 -0.24151764400E+03  0.32252206597E+03  0.12500000000E+03 0.  0.
         25    1    1    2    0    0 -0.23741959786E+02  0.11881849313E+03 -0.28574466240E+03  0.33459905418E+03  0.12500000000E+03 0.  0.
         25    1    1    2    0    0  0.18396928315E+03 -0.52546964409E+02 -0.54921541355E+03  0.59486843175E+03  0.12500000000E+03 0.  0.
</event>
<event>
 5    0  0.5583350E-005  0.4676923E+03  0.7546771E-02  0.1022574E+00
         21   -1    0    0  502  501  0.00000000000E+00  0.00000000000E+00  0.35534836549E+03  0.35534836549E+03  0.00000000000E+00 0. -1.
         21   -1    0    0  501  502 -0.00000000000E+00 -0.00000000000E+00 -0.61555391242E+03  0.61555391242E+03  0.00000000000E+00 0. -1.
         25    1    1    2    0    0  0.11339255267E+03  0.17491619439E+03 -0.57559544979E+02  0.24978320056E+03  0.12500000000E+03 0.  0.
         25    1    1    2    0    0  0.16292705596E+03 -0.12784345557E+03  0.12491254699E+03  0.27224496155E+03  0.12500000000E+03 0.  0.
         25    1    1    2    0    0 -0.27631960863E+03 -0.47072738827E+02 -0.32755854893E+03  0.44887411580E+03  0.12500000000E+03 0.  0.
</event>
<event>
 5    0  0.5583350E-005  0.2522053E+03  0.7546771E-02  0.1111919E+00
         21   -1    0    0  502  501  0.00000000000E+00  0.00000000000E+00  0.11175912395E+03  0.11175912395E+03  0.00000000000E+00 0. -1.
         21   -1    0    0  501  502 -0.00000000000E+00 -0.00000000000E+00 -0.56914848323E+03  0.56914848323E+03  0.00000000000E+00 0. -1.
         25    1    1    2    0    0 -0.34429971695E+02  0.44636503784E+02 -0.27433340883E+03  0.30669473361E+03  0.12500000000E+03 0.  0.
         25    1    1    2    0    0  0.18357618883E+02  0.25280112742E+02 -0.19040431968E+03  0.22990191653E+03  0.12500000000E+03 0.  0.
         25    1    1    2    0    0  0.16072352813E+02 -0.69916616526E+02  0.73483692330E+01  0.14431095704E+03  0.12500000000E+03 0.  0.
</event>
<event>
 5    0  0.5583350E-005  0.2509457E+03  0.7546771E-02  0.1112709E+00
         21   -1    0    0  502  501  0.00000000000E+00  0.00000000000E+00  0.14524145712E+04  0.14524145712E+04  0.00000000000E+00 0. -1.
         21   -1    0    0  501  502 -0.00000000000E+00 -0.00000000000E+00 -0.43357977801E+02  0.43357977801E+02  0.00000000000E+00 0. -1.
         25    1    1    2    0    0 -0.24108765460E+02  0.69775528707E+02  0.19741017420E+03  0.24504210629E+03  0.12500000000E+03 0.  0.
         25    1    1    2    0    0 -0.62888408543E+02 -0.61785027131E+02  0.71582846557E+03  0.73198888901E+03  0.12500000000E+03 0.  0.
         25    1    1    2    0    0  0.86997174003E+02 -0.79905015765E+01  0.49581795366E+03  0.51874155374E+03  0.12500000000E+03 0.  0.
</event>
<event>
 5    0  0.5583350E-005  0.2234515E+03  0.7546771E-02  0.1131336E+00
         21   -1    0    0  502  501  0.00000000000E+00  0.00000000000E+00  0.45208001938E+03  0.45208001938E+03  0.00000000000E+00 0.  1.
         21   -1    0    0  501  502 -0.00000000000E+00 -0.00000000000E+00 -0.11044629919E+03  0.11044629919E+03  0.00000000000E+00 0.  1.
         25    1    1    2    0    0 -0.47199314096E+02 -0.22206041739E+02  0.81431408810E+01  0.13569154095E+03  0.12500000000E+03 0.  0.
         25    1    1    2    0    0  0.19687843984E+02  0.16849116215E+02  0.10675382237E+03  0.16641178597E+03  0.12500000000E+03 0.  0.
         25    1    1    2    0    0  0.27511470112E+02  0.53569255236E+01  0.22673675693E+03  0.26042299166E+03  0.12500000000E+03 0.  0.
</event>
<event>
 5    0  0.6179970E-005  0.3675361E+03  0.7546771E-02  0.1055639E+00
         21   -1    0    0  502  501  0.00000000000E+00  0.00000000000E+00  0.12296764639E+04  0.12296764639E+04  0.00000000000E+00 0.  1.
         21   -1    0    0  501  502 -0.00000000000E+00 -0.00000000000E+00 -0.10985229398E+03  0.10985229398E+03  0.00000000000E+00 0.  1.
         25    1    1    2    0    0  0.44048418817E+00 -0.17901806095E+03  0.24291998449E+03  0.32662329836E+03  0.12500000000E+03 0.  0.
         25    1    1    2    0    0 -0.56391292869E+02  0.19988567946E+03  0.17885969992E+03  0.30124749795E+03  0.12500000000E+03 0.  0.
         25    1    1    2    0    0  0.55950808680E+02 -0.20867618516E+02  0.69804448554E+03  0.71165796159E+03  0.12500000000E+03 0.  0.
</event>
<event>
 5    0  0.5583350E-005  0.2076850E+03  0.7546771E-02  0.1143412E+00
         21   -1    0    0  502  501  0.00000000000E+00  0.00000000000E+00  0.17707676456E+04  0.17707676456E+04  0.00000000000E+00 0. -1.
         21   -1    0    0  501  502 -0.00000000000E+00 -0.00000000000E+00 -0.24358386234E+02  0.24358386234E+02  0.00000000000E+00 0. -1.
         25    1    1    2    0    0  0.21078041118E+02 -0.17820213810E+02  0.65725584384E+03  0.66960592000E+03  0.12500000000E+03 0.  0.
         25    1    1    2    0    0  0.28200897019E+02  0.10558752931E+02  0.32318271520E+03  0.34782013349E+03  0.12500000000E+03 0.  0.
         25    1    1    2    0    0 -0.49278938136E+02  0.72614608794E+01  0.76597070032E+03  0.77769997834E+03  0.12500000000E+03 0.  0.
</event>
<event>
 5    0  0.5583350E-005  0.3194756E+03  0.7546771E-02  0.1075891E+00
         21   -1    0    0  502  501  0.00000000000E+00  0.00000000000E+00  0.16937044895E+04  0.16937044895E+04  0.00000000000E+00 0.  1.
         21   -1    0    0  501  502 -0.00000000000E+00 -0.00000000000E+00 -0.60261214333E+02  0.60261214333E+02  0.00000000000E+00 0.  1.
         25    1    1    2    0    0 -0.52373310485E+02 -0.51043131834E+02  0.33231899319E+03  0.36250417679E+03  0.12500000000E+03 0.  0.
         25    1    1    2    0    0 -0.12425916452E+03  0.16787244176E+03  0.73432902046E+03  0.77361851514E+03  0.12500000000E+03 0.  0.
         25    1    1    2    0    0  0.17663247501E+03 -0.11682930992E+03  0.56679526156E+03  0.61784301194E+03  0.12500000000E+03 0.  0.
</event>
<event>
 5    0  0.5583350E-005  0.3116864E+03  0.7546771E-02  0.1079540E+00
         21   -1    0    0  502  501  0.00000000000E+00  0.00000000000E+00  0.80246096603E+02  0.80246096603E+02  0.00000000000E+00 0. -1.
         21   -1    0    0  501  502 -0.00000000000E+00 -0.00000000000E+00 -0.12106307217E+04  0.12106307217E+04  0.00000000000E+00 0. -1.
         25    1    1    2    0    0 -0.13169244087E+02  0.17611754221E+02 -0.79300542341E+03  0.80309787974E+03  0.12500000000E+03 0.  0.
         25    1    1    2    0    0  0.83616821052E+02  0.36017540999E+02 -0.28790529705E+03  0.32680804165E+03  0.12500000000E+03 0.  0.
         25    1    1    2    0    0 -0.70447576964E+02 -0.53629295219E+02 -0.49473904609E+02  0.16097089688E+03  0.12500000000E+03 0.  0.
</event>
<event>
 5    0  0.5583350E-005  0.2742979E+03  0.7546771E-02  0.1098845E+00
         21   -1    0    0  502  501  0.00000000000E+00  0.00000000000E+00  0.23048062564E+03  0.23048062564E+03  0.00000000000E+00 0. -1.
         21   -1    0    0  501  502 -0.00000000000E+00 -0.00000000000E+00 -0.32644535213E+03  0.32644535213E+03  0.00000000000E+00 0. -1.
         25    1    1    2    0    0 -0.81356232550E+02 -0.10860695781E+03  0.20739998411E+02  0.18565951469E+03  0.12500000000E+03 0.  0.
         25    1    1    2    0    0 -0.60229602541E+02  0.62005766797E+02 -0.85101942905E+02  0.17418283734E+03  0.12500000000E+03 0.  0.
         25    1    1    2    0    0  0.14158583509E+03  0.46601191017E+02 -0.31602781993E+02  0.19708362573E+03  0.12500000000E+03 0.  0.
</event>
<event>
 5    0  0.5583350E-005  0.3819007E+03  0.7546771E-02  0.1050233E+00
         21   -1    0    0  502  501  0.00000000000E+00  0.00000000000E+00  0.98750707721E+03  0.98750707721E+03  0.00000000000E+00 0. -1.
         21   -1    0    0  501  502 -0.00000000000E+00 -0.00000000000E+00 -0.14769324852E+03  0.14769324852E+03  0.00000000000E+00 0. -1.
         25    1    1    2    0    0  0.18836292083E+03 -0.90416445575E+02  0.27033450398E+03  0.36381515584E+03  0.12500000000E+03 0.  0.
         25    1    1    2    0    0 -0.18529325079E+03 -0.13138041932E+03  0.22678724186E+03  0.34445878772E+03  0.12500000000E+03 0.  0.
         25    1    1    2    0    0 -0.30696700462E+01  0.22179686489E+03  0.34269208285E+03  0.42692638217E+03  0.12500000000E+03 0.  0.
</event>
<event>
 5    0  0.5583350E-005  0.5413557E+03  0.7546771E-02  0.1003515E+00
         21   -1    0    0  502  501  0.00000000000E+00  0.00000000000E+00  0.21312096346E+03  0.21312096346E+03  0.00000000000E+00 0.  1.
         21   -1    0    0  501  502 -0.00000000000E+00 -0.00000000000E+00 -0.13751155723E+04  0.13751155723E+04  0.00000000000E+00 0.  1.
         25    1    1    2    0    0  0.77938587009E+01  0.41822181819E+03 -0.31938954053E+03  0.54092967384E+03  0.12500000000E+03 0.  0.
         25    1    1    2    0    0 -0.10217588790E+03 -0.25022769179E+02 -0.41342515817E+03  0.44453505199E+03  0.12500000000E+03 0.  0.
         25    1    1    2    0    0  0.94382029197E+02 -0.39319904901E+03 -0.42917991016E+03  0.60277180994E+03  0.12500000000E+03 0.  0.
</event>
<event>
 5    0  0.5583350E-005  0.2805466E+03  0.7546771E-02  0.1095391E+00
         21   -1    0    0  502  501  0.00000000000E+00  0.00000000000E+00  0.68626921885E+02  0.68626921885E+02  0.00000000000E+00 0. -1.
         21   -1    0    0  501  502 -0.00000000000E+00 -0.00000000000E+00 -0.11468738479E+04  0.11468738479E+04  0.00000000000E+00 0. -1.
         25    1    1    2    0    0 -0.30279448046E+02 -0.41025880625E+02 -0.14320015874E+03  0.19680257447E+03  0.12500000000E+03 0.  0.
         25    1    1    2    0    0  0.15940052072E+02  0.16495626672E+03 -0.34348630803E+03  0.40133838465E+03  0.12500000000E+03 0.  0.
         25    1    1    2    0    0  0.14339395974E+02 -0.12393038610E+03 -0.59156045921E+03  0.61735981063E+03  0.12500000000E+03 0.  0.
</event>
<event>
 5    0  0.5583350E-005  0.2886596E+03  0.7546771E-02  0.1091051E+00
         21   -1    0    0  502  501  0.00000000000E+00  0.00000000000E+00  0.29591399455E+03  0.29591399455E+03  0.00000000000E+00 0. -1.
         21   -1    0    0  501  502 -0.00000000000E+00 -0.00000000000E+00 -0.28158297948E+03  0.28158297948E+03  0.00000000000E+00 0. -1.
         25    1    1    2    0    0  0.12397167732E+03  0.11386396430E+03 -0.47439399928E+02  0.21496389420E+03  0.12500000000E+03 0.  0.
         25    1    1    2    0    0 -0.15260701229E+03 -0.73291502372E+02 -0.88305838192E+01  0.21062650292E+03  0.12500000000E+03 0.  0.
         25    1    1    2    0    0  0.28635334972E+02 -0.40572461925E+02  0.70600998817E+02  0.15190657691E+03  0.12500000000E+03 0.  0.
</event>
<event>
 5    0  0.5583350E-005  0.3422811E+03  0.7546771E-02  0.1065829E+00
         21   -1    0    0  502  501  0.00000000000E+00  0.00000000000E+00  0.54304655527E+03  0.54304655527E+03  0.00000000000E+00 0. -1.
         21   -1    0    0  501  502 -0.00000000000E+00 -0.00000000000E+00 -0.21573899686E+03  0.21573899686E+03  0.00000000000E+00 0. -1.
         25    1    1    2    0    0  0.24696182237E+02  0.57444596129E+02  0.17397994532E+02  0.14084556527E+03  0.12500000000E+03 0.  0.
         25    1    1    2    0    0  0.21134849548E+03 -0.88326351343E+02  0.11145825618E+03  0.28375636338E+03  0.12500000000E+03 0.  0.
         25    1    1    2    0    0 -0.23604467772E+03  0.30881755214E+02  0.19845130769E+03  0.33418362349E+03  0.12500000000E+03 0.  0.
</event>
<event>
 5    0  0.5583350E-005  0.2493198E+03  0.7546771E-02  0.1113735E+00
         21   -1    0    0  502  501  0.00000000000E+00  0.00000000000E+00  0.55036517689E+02  0.55036517689E+02  0.00000000000E+00 0. -1.
         21   -1    0    0  501  502 -0.00000000000E+00 -0.00000000000E+00 -0.11294388259E+04  0.11294388259E+04  0.00000000000E+00 0. -1.
         25    1    1    2    0    0  0.10103451589E+03  0.20484574058E+01 -0.30905924013E+03  0.34836013476E+03  0.12500000000E+03 0.  0.
         25    1    1    2    0    0  0.25339752055E+02  0.68993893190E+02 -0.34518563974E+03  0.37440671230E+03  0.12500000000E+03 0.  0.
         25    1    1    2    0    0 -0.12637426794E+03 -0.71042350596E+02 -0.42015742831E+03  0.46170849650E+03  0.12500000000E+03 0.  0.
</event>
<event>
 5    0  0.5583350E-005  0.3939614E+03  0.7546771E-02  0.1045891E+00
         21   -1    0    0  502  501  0.00000000000E+00  0.00000000000E+00  0.35606514443E+03  0.35606514443E+03  0.00000000000E+00 0.  1.
         21   -1    0    0  501  502 -0.00000000000E+00 -0.00000000000E+00 -0.43589097720E+03  0.43589097720E+03  0.00000000000E+00 0.  1.
         25    1    1    2    0    0  0.15905471795E+03 -0.19209732851E+03 -0.23157093101E+02  0.27993041615E+03  0.12500000000E+03 0.  0.
         25    1    1    2    0    0  0.32141965044E+02  0.21269133780E+03 -0.11690933063E+03  0.27488816395E+03  0.12500000000E+03 0.  0.
         25    1    1    2    0    0 -0.19119668300E+03 -0.20594009285E+02  0.60240590966E+02  0.23713754154E+03  0.12500000000E+03 0.  0.
</event>
<event>
 5    0  0.5583350E-005  0.2453585E+03  0.7546771E-02  0.1116274E+00
         21   -1    0    0  502  501  0.00000000000E+00  0.00000000000E+00  0.86586054783E+03  0.86586054783E+03  0.00000000000E+00 0. -1.
         21   -1    0    0  501  502 -0.00000000000E+00 -0.00000000000E+00 -0.69527143830E+02  0.69527143830E+02  0.00000000000E+00 0. -1.
         25    1    1    2    0    0  0.18418077772E+02 -0.30209507548E+02  0.87104205864E+02  0.15640966279E+03  0.12500000000E+03 0.  0.
         25    1    1    2    0    0 -0.93400865381E+02 -0.36125585870E+02  0.31279857172E+03  0.35142100973E+03  0.12500000000E+03 0.  0.
         25    1    1    2    0    0  0.74982787610E+02  0.66335093419E+02  0.39643062641E+03  0.42755701914E+03  0.12500000000E+03 0.  0.
</event>
<event>
 5    0  0.5583350E-005  0.2493261E+03  0.7546771E-02  0.1113731E+00
         21   -1    0    0  502  501  0.00000000000E+00  0.00000000000E+00  0.31502575240E+03  0.31502575240E+03  0.00000000000E+00 0. -1.
         21   -1    0    0  501  502 -0.00000000000E+00 -0.00000000000E+00 -0.19732834485E+03  0.19732834485E+03  0.00000000000E+00 0. -1.
         25    1    1    2    0    0  0.26764602821E+02  0.11260641446E+03  0.11208285179E+03  0.20392183357E+03  0.12500000000E+03 0.  0.
         25    1    1    2    0    0 -0.10118882097E+02 -0.96401303616E+02 -0.55149733923E+02  0.16751745063E+03  0.12500000000E+03 0.  0.
         25    1    1    2    0    0 -0.16645720724E+02 -0.16205110840E+02  0.60764289680E+02  0.14091481305E+03  0.12500000000E+03 0.  0.
</event>
<event>
 5    0  0.5583350E-005  0.3209593E+03  0.7546771E-02  0.1075209E+00
         21   -1    0    0  502  501  0.00000000000E+00  0.00000000000E+00  0.48489613310E+03  0.48489613310E+03  0.00000000000E+00 0. -1.
         21   -1    0    0  501  502 -0.00000000000E+00 -0.00000000000E+00 -0.21244727505E+03  0.21244727505E+03  0.00000000000E+00 0. -1.
         25    1    1    2    0    0 -0.20494446632E+03  0.95345139126E+02  0.11448410060E+03  0.28253236827E+03  0.12500000000E+03 0.  0.
         25    1    1    2    0    0  0.44952250422E+02  0.10456697130E+02  0.12646529876E+03  0.18370770023E+03  0.12500000000E+03 0.  0.
         25    1    1    2    0    0  0.15999221590E+03 -0.10580183626E+03  0.31499458693E+02  0.23110333966E+03  0.12500000000E+03 0.  0.
</event>
<event>
 5    0  0.5583350E-005  0.3067672E+03  0.7546771E-02  0.1081906E+00
         21   -1    0    0  502  501  0.00000000000E+00  0.00000000000E+00  0.11290722124E+04  0.11290722124E+04  0.00000000000E+00 0. -1.
         21   -1    0    0  501  502 -0.00000000000E+00 -0.00000000000E+00 -0.83348179823E+02  0.83348179823E+02  0.00000000000E+00 0. -1.
         25    1    1    2    0    0 -0.54893009392E+02 -0.57352855925E+02  0.86007518133E+02  0.17124510428E+03  0.12500000000E+03 0.  0.
         25    1    1    2    0    0  0.12182157462E+03 -0.63651473583E+02  0.68086728556E+03  0.70576006311E+03  0.12500000000E+03 0.  0.
         25    1    1    2    0    0 -0.66928565223E+02  0.12100432951E+03  0.27884922886E+03  0.33541522482E+03  0.12500000000E+03 0.  0.
</event>
<event>
 5    0  0.5583350E-005  0.3042876E+03  0.7546771E-02  0.1083117E+00
         21   -1    0    0  502  501  0.00000000000E+00  0.00000000000E+00  0.44445845850E+03  0.44445845850E+03  0.00000000000E+00 0. -1.
         21   -1    0    0  501  502 -0.00000000000E+00 -0.00000000000E+00 -0.20832311833E+03  0.20832311833E+03  0.00000000000E+00 0. -1.
         25    1    1    2    0    0  0.33328848327E+02 -0.39191267023E+02 -0.61026338636E+02  0.14831042293E+03  0.12500000000E+03 0.  0.
         25    1    1    2    0    0 -0.27338698134E+02  0.42215746683E+01  0.34344979749E+03  0.36653511360E+03  0.12500000000E+03 0.  0.
         25    1    1    2    0    0 -0.59901501930E+01  0.34969692355E+02 -0.46288118686E+02  0.13793604030E+03  0.12500000000E+03 0.  0.
</event>
<event>
 5    0  0.5583350E-005  0.4073602E+03  0.7546771E-02  0.1041260E+00
         21   -1    0    0  502  501  0.00000000000E+00  0.00000000000E+00  0.14177860159E+03  0.14177860159E+03  0.00000000000E+00 0.  1.
         21   -1    0    0  501  502 -0.00000000000E+00 -0.00000000000E+00 -0.11704327273E+04  0.11704327273E+04  0.00000000000E+00 0.  1.
         25    1    1    2    0    0 -0.13173742541E+03 -0.14308733228E+03 -0.16900351093E+03  0.28638421852E+03  0.12500000000E+03 0.  0.
         25    1    1    2    0    0  0.55996261474E+00 -0.15244580387E+03 -0.20112988552E+03  0.28163498988E+03  0.12500000000E+03 0.  0.
         25    1    1    2    0    0  0.13117746280E+03  0.29553313615E+03 -0.65852072923E+03  0.74419212045E+03  0.12500000000E+03 0.  0.
</event>
<event>
 5    0  0.5583350E-005  0.3402528E+03  0.7546771E-02  0.1066688E+00
         21   -1    0    0  502  501  0.00000000000E+00  0.00000000000E+00  0.53880321534E+03  0.53880321534E+03  0.00000000000E+00 0.  1.
         21   -1    0    0  501  502 -0.00000000000E+00 -0.00000000000E+00 -0.21486873772E+03  0.21486873772E+03  0.00000000000E+00 0.  1.
         25    1    1    2    0    0 -0.41459391163E+02 -0.85937018927E+02  0.38296224397E+02  0.16185071251E+03  0.12500000000E+03 0.  0.
         25    1    1    2    0    0 -0.39089284870E+02 -0.12666690779E+03 -0.28475651241E+02  0.18441350394E+03  0.12500000000E+03 0.  0.
         25    1    1    2    0    0  0.80548676033E+02  0.21260392672E+03  0.31411390447E+03  0.40740773661E+03  0.12500000000E+03 0.  0.
</event>
<event>
 5    0  0.5583350E-005  0.3088722E+03  0.7546771E-02  0.1080888E+00
         21   -1    0    0  502  501  0.00000000000E+00  0.00000000000E+00  0.56734975443E+03  0.56734975443E+03  0.00000000000E+00 0. -1.
         21   -1    0    0  501  502 -0.00000000000E+00 -0.00000000000E+00 -0.16815383781E+03  0.16815383781E+03  0.00000000000E+00 0. -1.
         25    1    1    2    0    0  0.34222118155E+02 -0.62160982762E+02  0.69426745238E+02  0.15962523016E+03  0.12500000000E+03 0.  0.
         25    1    1    2    0    0 -0.21066115564E+01  0.22823416972E+03  0.15904506167E+03  0.30498459909E+03  0.12500000000E+03 0.  0.
         25    1    1    2    0    0 -0.32115506599E+02 -0.16607318696E+03  0.17072410971E+03  0.27089376299E+03  0.12500000000E+03 0.  0.
</event>
<event>
 5    0  0.5583350E-005  0.3329033E+03  0.7546771E-02  0.1069859E+00
         21   -1    0    0  502  501  0.00000000000E+00  0.00000000000E+00  0.63690507406E+02  0.63690507406E+02  0.00000000000E+00 0.  1.
         21   -1    0    0  501  502 -0.00000000000E+00 -0.00000000000E+00 -0.17400490532E+04  0.17400490532E+04  0.00000000000E+00 0.  1.
         25    1    1    2    0    0  0.21206058699E+03 -0.92521434466E+02 -0.85041707070E+03  0.89014835984E+03  0.12500000000E+03 0.  0.
         25    1    1    2    0    0 -0.18044953518E+03  0.45237573582E+02 -0.66641472848E+03  0.70309463314E+03  0.12500000000E+03 0.  0.
         25    1    1    2    0    0 -0.31611051809E+02  0.47283860884E+02 -0.15952674659E+03  0.21049656761E+03  0.12500000000E+03 0.  0.
</event>
<event>
 5    0  0.6991727E-005  0.3534520E+03  0.7546771E-02  0.1061207E+00
         21   -1    0    0  502  501  0.00000000000E+00  0.00000000000E+00  0.70566798014E+03  0.70566798014E+03  0.00000000000E+00 0.  1.
         21   -1    0    0  501  502 -0.00000000000E+00 -0.00000000000E+00 -0.17703553291E+03  0.17703553291E+03  0.00000000000E+00 0.  1.
         25    1    1    2    0    0  0.16238776695E+03 -0.90900994925E+02  0.65470697433E+02  0.23354697591E+03  0.12500000000E+03 0.  0.
         25    1    1    2    0    0 -0.10518229968E+03 -0.55511673061E+02  0.40476489100E+03  0.44000508974E+03  0.12500000000E+03 0.  0.
         25    1    1    2    0    0 -0.57205467277E+02  0.14641266799E+03  0.58396858790E+02  0.20915144740E+03  0.12500000000E+03 0.  0.
</event>
<event>
 5    0  0.5583350E-005  0.2979324E+03  0.7546771E-02  0.1086279E+00
         21   -1    0    0  502  501  0.00000000000E+00  0.00000000000E+00  0.34708964858E+04  0.34708964858E+04  0.00000000000E+00 0.  1.
         21   -1    0    0  501  502 -0.00000000000E+00 -0.00000000000E+00 -0.25573719063E+02  0.25573719063E+02  0.00000000000E+00 0.  1.
         25    1    1    2    0    0 -0.16237254180E+03 -0.55829957289E+02  0.75261579872E+03  0.78200854659E+03  0.12500000000E+03 0.  0.
         25    1    1    2    0    0 -0.62877386238E+01  0.49029092488E+01  0.86167359860E+03  0.87072955887E+03  0.12500000000E+03 0.  0.
         25    1    1    2    0    0  0.16866028043E+03  0.50927048040E+02  0.18310333694E+04  0.18437320994E+04  0.12500000000E+03 0.  0.
</event>
<event>
 5    0  0.5583350E-005  0.4895373E+03  0.7546771E-02  0.1016546E+00
         21   -1    0    0  502  501  0.00000000000E+00  0.00000000000E+00  0.15404402521E+04  0.15404402521E+04  0.00000000000E+00 0. -1.
         21   -1    0    0  501  502 -0.00000000000E+00 -0.00000000000E+00 -0.15557028857E+03  0.15557028857E+03  0.00000000000E+00 0. -1.
         25    1    1    2    0    0  0.19999563695E+03  0.20938469011E+03  0.15720196941E+03  0.35238851064E+03  0.12500000000E+03 0.  0.
         25    1    1    2    0    0  0.87569314854E+02 -0.83406236989E+02  0.21783881641E+03  0.27875389721E+03  0.12500000000E+03 0.  0.
         25    1    1    2    0    0 -0.28756495180E+03 -0.12597845312E+03  0.10098291777E+04  0.10648681329E+04  0.12500000000E+03 0.  0.
</event>
<event>
 5    0  0.5583350E-005  0.2147574E+03  0.7546771E-02  0.1137853E+00
         21   -1    0    0  502  501  0.00000000000E+00  0.00000000000E+00  0.61641825082E+03  0.61641825082E+03  0.00000000000E+00 0.  1.
         21   -1    0    0  501  502 -0.00000000000E+00 -0.00000000000E+00 -0.74820497215E+02  0.74820497215E+02  0.00000000000E+00 0.  1.
         25    1    1    2    0    0 -0.65843330716E+02 -0.44199474879E+02  0.14409190832E+03  0.20658270940E+03  0.12500000000E+03 0.  0.
         25    1    1    2    0    0  0.56835638777E+02 -0.15862138727E+02  0.20376463881E+03  0.24622535473E+03  0.12500000000E+03 0.  0.
         25    1    1    2    0    0  0.90076919391E+01  0.60061613606E+02  0.19374120647E+03  0.23843068391E+03  0.12500000000E+03 0.  0.
</event>
<event>
 5    0  0.5583350E-005  0.2666356E+03  0.7546771E-02  0.1103221E+00
         21   -1    0    0  502  501  0.00000000000E+00  0.00000000000E+00  0.42071525227E+03  0.42071525227E+03  0.00000000000E+00 0. -1.
         21   -1    0    0  501  502 -0.00000000000E+00 -0.00000000000E+00 -0.16898494576E+03  0.16898494576E+03  0.00000000000E+00 0. -1.
         25    1    1    2    0    0  0.79325621151E+01 -0.61927545989E+02  0.26224457999E+02  0.14216423141E+03  0.12500000000E+03 0.  0.
         25    1    1    2    0    0  0.29816321104E+02 -0.93725229965E+02  0.23051932442E+02  0.16071659319E+03  0.12500000000E+03 0.  0.
         25    1    1    2    0    0 -0.37748883219E+02  0.15565277595E+03  0.20245391607E+03  0.28681937344E+03  0.12500000000E+03 0.  0.
</event>
<event>
 5    0  0.5583350E-005  0.2451174E+03  0.7546771E-02  0.1116430E+00
         21   -1    0    0  502  501  0.00000000000E+00  0.00000000000E+00  0.48145867540E+03  0.48145867540E+03  0.00000000000E+00 0.  1.
         21   -1    0    0  501  502 -0.00000000000E+00 -0.00000000000E+00 -0.12479268238E+03  0.12479268238E+03  0.00000000000E+00 0.  1.
         25    1    1    2    0    0  0.28333790706E+02  0.45021484470E+02  0.16743751798E+03  0.21561553791E+03  0.12500000000E+03 0.  0.
         25    1    1    2    0    0  0.79589475342E+02 -0.72582438610E+02  0.13923654441E+03  0.21590393762E+03  0.12500000000E+03 0.  0.
         25    1    1    2    0    0 -0.10792326605E+03  0.27560954140E+02  0.49991930636E+02  0.17473188225E+03  0.12500000000E+03 0.  0.
</event>
<event>
 5    0  0.5583350E-005  0.3934269E+03  0.7546771E-02  0.1046080E+00
         21   -1    0    0  502  501  0.00000000000E+00  0.00000000000E+00  0.95203418364E+03  0.95203418364E+03  0.00000000000E+00 0.  1.
         21   -1    0    0  501  502 -0.00000000000E+00 -0.00000000000E+00 -0.16258318892E+03  0.16258318892E+03  0.00000000000E+00 0.  1.
         25    1    1    2    0    0  0.20025215293E+03 -0.19661830258E+03  0.49760693466E+03  0.58480538907E+03  0.12500000000E+03 0.  0.
         25    1    1    2    0    0 -0.48806110765E+02  0.11047128659E+03  0.26040605148E+03  0.31308505755E+03  0.12500000000E+03 0.  0.
         25    1    1    2    0    0 -0.15144604216E+03  0.86147015981E+02  0.31438008572E+02  0.21672692595E+03  0.12500000000E+03 0.  0.
</event>
<event>
 5    0  0.5583350E-005  0.2798887E+03  0.7546771E-02  0.1095750E+00
         21   -1    0    0  502  501  0.00000000000E+00  0.00000000000E+00  0.14609594262E+04  0.14609594262E+04  0.00000000000E+00 0. -1.
         21   -1    0    0  501  502 -0.00000000000E+00 -0.00000000000E+00 -0.53620725790E+02  0.53620725790E+02  0.00000000000E+00 0.  1.
         25    1    1    2    0    0  0.52094369419E+02  0.17532426587E+03  0.47413005910E+03  0.52333233654E+03  0.12500000000E+03 0.  0.
         25    1    1    2    0    0  0.19121700663E+02 -0.12915535780E+03  0.44912845081E+03  0.48413645929E+03  0.12500000000E+03 0.  0.
         25    1    1    2    0    0 -0.71216070082E+02 -0.46168908069E+02  0.48408019050E+03  0.50711135616E+03  0.12500000000E+03 0.  0.
</event>
<event>
 5    0  0.5583350E-005  0.2247814E+03  0.7546771E-02  0.1130368E+00
         21   -1    0    0  502  501  0.00000000000E+00  0.00000000000E+00  0.89290492289E+02  0.89290492289E+02  0.00000000000E+00 0. -1.
         21   -1    0    0  501  502 -0.00000000000E+00 -0.00000000000E+00 -0.56586840128E+03  0.56586840128E+03  0.00000000000E+00 0. -1.
         25    1    1    2    0    0 -0.11606183387E+02 -0.19863233569E+02 -0.12799460976E+03  0.18037979839E+03  0.12500000000E+03 0.  0.
         25    1    1    2    0    0  0.64469183040E+02  0.75633957049E+02 -0.25457501121E+03  0.30051656752E+03  0.12500000000E+03 0.  0.
         25    1    1    2    0    0 -0.52862999654E+02 -0.55770723480E+02 -0.94008288031E+02  0.17426252767E+03  0.12500000000E+03 0.  0.
</event>
<event>
 5    0  0.5583350E-005  0.3385508E+03  0.7546771E-02  0.1067415E+00
         21   -1    0    0  502  501  0.00000000000E+00  0.00000000000E+00  0.46582847384E+03  0.46582847384E+03  0.00000000000E+00 0. -1.
         21   -1    0    0  501  502 -0.00000000000E+00 -0.00000000000E+00 -0.24604900179E+03  0.24604900179E+03  0.00000000000E+00 0. -1.
         25    1    1    2    0    0  0.16227219845E+03  0.22341483597E+02  0.86137304711E+02  0.22332945068E+03  0.12500000000E+03 0.  0.
         25    1    1    2    0    0  0.10068058086E+03  0.53179189010E+02  0.51253068813E+02  0.17668186825E+03  0.12500000000E+03 0.  0.
         25    1    1    2    0    0 -0.26295277931E+03 -0.75520672607E+02  0.82389098518E+02  0.31186615670E+03  0.12500000000E+03 0.  0.
</event>
<event>
 5    0  0.5778638E-005  0.3554671E+03  0.7546771E-02  0.1060393E+00
         21   -1    0    0  502  501  0.00000000000E+00  0.00000000000E+00  0.21475997229E+03  0.21475997229E+03  0.00000000000E+00 0.  1.
         21   -1    0    0  501  502 -0.00000000000E+00 -0.00000000000E+00 -0.58836319934E+03  0.58836319934E+03  0.00000000000E+00 0.  1.
         25    1    1    2    0    0  0.25127651612E+02 -0.77017017168E+02 -0.35254919173E+03  0.38272568819E+03  0.12500000000E+03 0.  0.
         25    1    1    2    0    0 -0.72436068258E+02  0.12356150443E+03 -0.13954138146E+03  0.23582032674E+03  0.12500000000E+03 0.  0.
         25    1    1    2    0    0  0.47308416646E+02 -0.46544487267E+02  0.11848734614E+03  0.18457715670E+03  0.12500000000E+03 0.  0.
</event>
<event>
 5    0  0.5583350E-005  0.7483669E+03  0.7546771E-02  0.9637916E-01
         21   -1    0    0  502  501  0.00000000000E+00  0.00000000000E+00  0.18889991062E+04  0.18889991062E+04  0.00000000000E+00 0. -1.
         21   -1    0    0  501  502 -0.00000000000E+00 -0.00000000000E+00 -0.29648137210E+03  0.29648137210E+03  0.00000000000E+00 0. -1.
         25    1    1    2    0    0 -0.50538558653E+01  0.23989748983E+03  0.82473967083E+03  0.86798437298E+03  0.12500000000E+03 0.  0.
         25    1    1    2    0    0 -0.18083567514E+03  0.31080780783E+03  0.58046036182E+03  0.69416299704E+03  0.12500000000E+03 0.  0.
         25    1    1    2    0    0  0.18588953101E+03 -0.55070529766E+03  0.18731770145E+03  0.62333310828E+03  0.12500000000E+03 0.  0.
</event>
<event>
 5    0  0.5583350E-005  0.3029830E+03  0.7546771E-02  0.1083759E+00
         21   -1    0    0  502  501  0.00000000000E+00  0.00000000000E+00  0.26842483593E+03  0.26842483593E+03  0.00000000000E+00 0. -1.
         21   -1    0    0  501  502 -0.00000000000E+00 -0.00000000000E+00 -0.34199026428E+03  0.34199026428E+03  0.00000000000E+00 0. -1.
         25    1    1    2    0    0  0.85912974253E+02 -0.11060512982E+03 -0.59064054512E+00  0.18772288817E+03  0.12500000000E+03 0.  0.
         25    1    1    2    0    0  0.47977607825E+01  0.16002134902E+03 -0.14056741168E+03  0.24701021816E+03  0.12500000000E+03 0.  0.
         25    1    1    2    0    0 -0.90710735035E+02 -0.49416219201E+02  0.67592623871E+02  0.17568199388E+03  0.12500000000E+03 0.  0.
</event>
<event>
 5    0  0.5583350E-005  0.4127848E+03  0.7546771E-02  0.1039441E+00
         21   -1    0    0  502  501  0.00000000000E+00  0.00000000000E+00  0.27614990144E+03  0.27614990144E+03  0.00000000000E+00 0. -1.
         21   -1    0    0  501  502 -0.00000000000E+00 -0.00000000000E+00 -0.61702452480E+03  0.61702452480E+03  0.00000000000E+00 0. -1.
         25    1    1    2    0    0 -0.16688117449E+03  0.13788924622E+02 -0.21862895344E+03  0.30242863642E+03  0.12500000000E+03 0.  0.
         25    1    1    2    0    0  0.29238314164E+03 -0.15272713012E+03 -0.79393417141E+02  0.36158234536E+03  0.12500000000E+03 0.  0.
         25    1    1    2    0    0 -0.12550196716E+03  0.13893820550E+03 -0.42852252775E+02  0.22916344446E+03  0.12500000000E+03 0.  0.
</event>
<event>
 5    0  0.5583350E-005  0.6279868E+03  0.7546771E-02  0.9848985E-01
         21   -1    0    0  502  501  0.00000000000E+00  0.00000000000E+00  0.51891390677E+03  0.51891390677E+03  0.00000000000E+00 0.  1.
         21   -1    0    0  501  502 -0.00000000000E+00 -0.00000000000E+00 -0.75998611269E+03  0.75998611269E+03  0.00000000000E+00 0.  1.
         25    1    1    2    0    0  0.21081370960E+03 -0.11816693187E+02 -0.15257717720E+03  0.28894090987E+03  0.12500000000E+03 0.  0.
         25    1    1    2    0    0 -0.35417115813E+03  0.26536182829E+03 -0.35091753792E+03  0.57846540742E+03  0.12500000000E+03 0.  0.
         25    1    1    2    0    0  0.14335744853E+03 -0.25354513510E+03  0.26242250921E+03  0.41149370217E+03  0.12500000000E+03 0.  0.
</event>
<event>
 5    0  0.5583350E-005  0.3426888E+03  0.7546771E-02  0.1065656E+00
         21   -1    0    0  502  501  0.00000000000E+00  0.00000000000E+00  0.11936523542E+04  0.11936523542E+04  0.00000000000E+00 0.  1.
         21   -1    0    0  501  502 -0.00000000000E+00 -0.00000000000E+00 -0.98383453195E+02  0.98383453195E+02  0.00000000000E+00 0.  1.
         25    1    1    2    0    0 -0.49997090156E+01 -0.43569714786E+02  0.12289625657E+03  0.18069811016E+03  0.12500000000E+03 0.  0.
         25    1    1    2    0    0  0.18398577110E+03 -0.12977931321E+03  0.42142931744E+03  0.49388369451E+03  0.12500000000E+03 0.  0.
         25    1    1    2    0    0 -0.17898606208E+03  0.17334902799E+03  0.55094332702E+03  0.61745400275E+03  0.12500000000E+03 0.  0.
</event>
<event>
 5    0  0.5583350E-005  0.3191786E+03  0.7546771E-02  0.1076028E+00
         21   -1    0    0  502  501  0.00000000000E+00  0.00000000000E+00  0.85081414108E+02  0.85081414108E+02  0.00000000000E+00 0. -1.
         21   -1    0    0  501  502 -0.00000000000E+00 -0.00000000000E+00 -0.11973820080E+04  0.11973820080E+04  0.00000000000E+00 0. -1.
         25    1    1    2    0    0  0.66237720044E+01 -0.15922416583E+02 -0.14874532442E+03  0.19505786127E+03  0.12500000000E+03 0.  0.
         25    1    1    2    0    0 -0.41006495214E+02  0.22079144495E+03 -0.56836980732E+03  0.62377851252E+03  0.12500000000E+03 0.  0.
         25    1    1    2    0    0  0.34382723210E+02 -0.20486902836E+03 -0.39518546216E+03  0.46362704833E+03  0.12500000000E+03 0.  0.
</event>
<event>
 5    0  0.5637173E-005  0.3653841E+03  0.7546771E-02  0.1056472E+00
         21   -1    0    0  502  501  0.00000000000E+00  0.00000000000E+00  0.75745629527E+03  0.75745629527E+03  0.00000000000E+00 0.  1.
         21   -1    0    0  501  502 -0.00000000000E+00 -0.00000000000E+00 -0.17625513281E+03  0.17625513281E+03  0.00000000000E+00 0. -1.
         25    1    1    2    0    0 -0.31951172193E+02 -0.14592190815E+02 -0.14655222251E+02  0.13066592890E+03  0.12500000000E+03 0.  0.
         25    1    1    2    0    0 -0.10526488503E+03  0.20364255170E+03  0.21045025910E+03  0.33535845962E+03  0.12500000000E+03 0.  0.
         25    1    1    2    0    0  0.13721605722E+03 -0.18905036088E+03  0.38540612561E+03  0.46768703955E+03  0.12500000000E+03 0.  0.
</event>
<event>
 5    0  0.5583350E-005  0.4214545E+03  0.7546771E-02  0.1036594E+00
         21   -1    0    0  502  501  0.00000000000E+00  0.00000000000E+00  0.17639526952E+04  0.17639526952E+04  0.00000000000E+00 0. -1.
         21   -1    0    0  501  502 -0.00000000000E+00 -0.00000000000E+00 -0.10069652255E+03  0.10069652255E+03  0.00000000000E+00 0. -1.
         25    1    1    2    0    0  0.23260200427E+02  0.72282609668E+02  0.68881303142E+03  0.70416915925E+03  0.12500000000E+03 0.  0.
         25    1    1    2    0    0  0.16637541598E+03  0.15759327633E+03  0.22610142222E+03  0.34534515042E+03  0.12500000000E+03 0.  0.
         25    1    1    2    0    0 -0.18963561641E+03 -0.22987588600E+03  0.74834171900E+03  0.81513490808E+03  0.12500000000E+03 0.  0.
</event>
<event>
 5    0  0.5583350E-005  0.3425574E+03  0.7546771E-02  0.1065712E+00
         21   -1    0    0  502  501  0.00000000000E+00  0.00000000000E+00  0.51113241833E+03  0.51113241833E+03  0.00000000000E+00 0.  1.
         21   -1    0    0  501  502 -0.00000000000E+00 -0.00000000000E+00 -0.22957961054E+03  0.22957961054E+03  0.00000000000E+00 0.  1.
         25    1    1    2    0    0 -0.16416606755E+03 -0.14031725114E+03  0.15529858869E+03  0.29390828561E+03  0.12500000000E+03 0.  0.
         25    1    1    2    0    0 -0.48865327165E+02  0.83331814717E+02  0.11058091951E+03  0.19283451793E+03  0.12500000000E+03 0.  0.
         25    1    1    2    0    0  0.21303139471E+03  0.56985436421E+02  0.15673299580E+02  0.25396922534E+03  0.12500000000E+03 0.  0.
</event>
<event>
 5    0  0.5583350E-005  0.2523934E+03  0.7546771E-02  0.1111802E+00
         21   -1    0    0  502  501  0.00000000000E+00  0.00000000000E+00  0.32095392399E+03  0.32095392399E+03  0.00000000000E+00 0.  1.
         21   -1    0    0  501  502 -0.00000000000E+00 -0.00000000000E+00 -0.19847836443E+03  0.19847836443E+03  0.00000000000E+00 0.  1.
         25    1    1    2    0    0  0.54115067788E+02  0.31501683091E+02  0.72500263937E+02  0.15748677681E+03  0.12500000000E+03 0.  0.
         25    1    1    2    0    0 -0.40398139132E+02 -0.54439506482E+01  0.14978057844E+03  0.19930094812E+03  0.12500000000E+03 0.  0.
         25    1    1    2    0    0 -0.13716928656E+02 -0.26057732442E+02 -0.99805282827E+02  0.16264456349E+03  0.12500000000E+03 0.  0.
</event>
<event>
 5    0  0.5583350E-005  0.1974664E+03  0.7546771E-02  0.1151894E+00
         21   -1    0    0  502  501  0.00000000000E+00  0.00000000000E+00  0.29415045761E+02  0.29415045761E+02  0.00000000000E+00 0. -1.
         21   -1    0    0  501  502 -0.00000000000E+00 -0.00000000000E+00 -0.13256137674E+04  0.13256137674E+04  0.00000000000E+00 0. -1.
         25    1    1    2    0    0  0.10025762711E+02  0.77002038783E+01 -0.27373500297E+03  0.30119040640E+03  0.12500000000E+03 0.  0.
         25    1    1    2    0    0 -0.67160020041E+01 -0.19135514281E+02 -0.59432247139E+03  0.60766394709E+03  0.12500000000E+03 0.  0.
         25    1    1    2    0    0 -0.33097607074E+01  0.11435310402E+02 -0.42814124724E+03  0.44617445963E+03  0.12500000000E+03 0.  0.
</event>
<event>
 5    0  0.5583350E-005  0.4270522E+03  0.7546771E-02  0.1034795E+00
         21   -1    0    0  502  501  0.00000000000E+00  0.00000000000E+00  0.74580873972E+03  0.74580873972E+03  0.00000000000E+00 0. -1.
         21   -1    0    0  501  502 -0.00000000000E+00 -0.00000000000E+00 -0.24453126783E+03  0.24453126783E+03  0.00000000000E+00 0. -1.
         25    1    1    2    0    0  0.34860427162E+03 -0.86434640753E+01  0.17261444973E+03  0.40868128893E+03  0.12500000000E+03 0.  0.
         25    1    1    2    0    0 -0.31941281567E+03  0.12135425242E+02  0.28471185452E+03  0.44593458653E+03  0.12500000000E+03 0.  0.
         25    1    1    2    0    0 -0.29191455953E+02 -0.34919611669E+01  0.43951167644E+02  0.13572413209E+03  0.12500000000E+03 0.  0.
</event>
<event>
 5    0  0.5583350E-005  0.2549805E+03  0.7546771E-02  0.1110197E+00
         21   -1    0    0  502  501  0.00000000000E+00  0.00000000000E+00  0.71120191207E+02  0.71120191207E+02  0.00000000000E+00 0. -1.
         21   -1    0    0  501  502 -0.00000000000E+00 -0.00000000000E+00 -0.91415764537E+03  0.91415764537E+03  0.00000000000E+00 0. -1.
         25    1    1    2    0    0 -0.56967773768E+02 -0.86359175528E+02 -0.26904264674E+03  0.31418494587E+03  0.12500000000E+03 0.  0.
         25    1    1    2    0    0 -0.73014323471E+01  0.67184575934E+02 -0.48080840031E+03  0.50136692747E+03  0.12500000000E+03 0.  0.
         25    1    1    2    0    0  0.64269206115E+02  0.19174599594E+02 -0.93186407112E+02  0.16972596323E+03  0.12500000000E+03 0.  0.
</event>
<event>
 5    0  0.5583350E-005  0.2639417E+03  0.7546771E-02  0.1104798E+00
         21   -1    0    0  502  501  0.00000000000E+00  0.00000000000E+00  0.81396474900E+03  0.81396474900E+03  0.00000000000E+00 0. -1.
         21   -1    0    0  501  502 -0.00000000000E+00 -0.00000000000E+00 -0.85587513203E+02  0.85587513203E+02  0.00000000000E+00 0. -1.
         25    1    1    2    0    0  0.62898614860E+01 -0.80803322767E+02  0.16206216235E+03  0.22013151476E+03  0.12500000000E+03 0.  0.
         25    1    1    2    0    0 -0.10435100376E+03  0.32008167030E+02  0.44124700502E+03  0.47142080372E+03  0.12500000000E+03 0.  0.
         25    1    1    2    0    0  0.98061142272E+02  0.48795155737E+02  0.12506806844E+03  0.20799994373E+03  0.12500000000E+03 0.  0.
</event>
<event>
 5    0  0.5583350E-005  0.3844050E+03  0.7546771E-02  0.1049318E+00
         21   -1    0    0  502  501  0.00000000000E+00  0.00000000000E+00  0.13795178387E+03  0.13795178387E+03  0.00000000000E+00 0. -1.
         21   -1    0    0  501  502 -0.00000000000E+00 -0.00000000000E+00 -0.10711511767E+04  0.10711511767E+04  0.00000000000E+00 0. -1.
         25    1    1    2    0    0  0.23643975778E+03  0.11501278739E+03 -0.19365395776E+03  0.34965490941E+03  0.12500000000E+03 0.  0.
         25    1    1    2    0    0  0.16722515854E+02  0.14953281282E+02 -0.22034324545E+03  0.25432142846E+03  0.12500000000E+03 0.  0.
         25    1    1    2    0    0 -0.25316227363E+03 -0.12996606867E+03 -0.51920218958E+03  0.60512662266E+03  0.12500000000E+03 0.  0.
</event>
<event>
 5    0  0.5583350E-005  0.2590406E+03  0.7546771E-02  0.1107721E+00
         21   -1    0    0  502  501  0.00000000000E+00  0.00000000000E+00  0.13437353964E+04  0.13437353964E+04  0.00000000000E+00 0.  1.
         21   -1    0    0  501  502 -0.00000000000E+00 -0.00000000000E+00 -0.49936939586E+02  0.49936939586E+02  0.00000000000E+00 0.  1.
         25    1    1    2    0    0 -0.58542297696E+02  0.47534482845E+02  0.31363608677E+03  0.34594699392E+03  0.12500000000E+03 0.  0.
         25    1    1    2    0    0  0.12236778667E+03 -0.85137125686E+02  0.75568832433E+03  0.78032816745E+03  0.12500000000E+03 0.  0.
         25    1    1    2    0    0 -0.63825488977E+02  0.37602642842E+02  0.22447404569E+03  0.26739717460E+03  0.12500000000E+03 0.  0.
</event>
<event>
 5    0  0.5583350E-005  0.2166406E+03  0.7546771E-02  0.1136413E+00
         21   -1    0    0  502  501  0.00000000000E+00  0.00000000000E+00  0.19110349666E+03  0.19110349666E+03  0.00000000000E+00 0. -1.
         21   -1    0    0  501  502 -0.00000000000E+00 -0.00000000000E+00 -0.24559025599E+03  0.24559025599E+03  0.00000000000E+00 0. -1.
         25    1    1    2    0    0  0.47856025484E+02 -0.34917887610E+01 -0.69425557775E+02  0.15082208007E+03  0.12500000000E+03 0.  0.
         25    1    1    2    0    0 -0.82637297781E+02 -0.24816818159E+02 -0.26524643140E+01  0.15191060863E+03  0.12500000000E+03 0.  0.
         25    1    1    2    0    0  0.34781272297E+02  0.28308606920E+02  0.17591262765E+02  0.13396106395E+03  0.12500000000E+03 0.  0.
</event>
<event>
 5    0  0.5583350E-005  0.3705460E+03  0.7546771E-02  0.1054484E+00
         21   -1    0    0  502  501  0.00000000000E+00  0.00000000000E+00  0.40868536737E+03  0.40868536737E+03  0.00000000000E+00 0.  1.
         21   -1    0    0  501  502 -0.00000000000E+00 -0.00000000000E+00 -0.33596585150E+03  0.33596585150E+03  0.00000000000E+00 0.  1.
         25    1    1    2    0    0 -0.13994720985E+02 -0.19811965493E+03  0.17170822733E+03  0.29078508425E+03  0.12500000000E+03 0.  0.
         25    1    1    2    0    0 -0.16526662513E+02 -0.39598958856E+02  0.54572662940E+02  0.14298385803E+03  0.12500000000E+03 0.  0.
         25    1    1    2    0    0  0.30521383498E+02  0.23771861379E+03 -0.15356137440E+03  0.31088227659E+03  0.12500000000E+03 0.  0.
</event>
<event>
 5    0  0.5583350E-005  0.2745137E+03  0.7546771E-02  0.1098724E+00
         21   -1    0    0  502  501  0.00000000000E+00  0.00000000000E+00  0.25595810348E+03  0.25595810348E+03  0.00000000000E+00 0.  1.
         21   -1    0    0  501  502 -0.00000000000E+00 -0.00000000000E+00 -0.29441442946E+03  0.29441442946E+03  0.00000000000E+00 0.  1.
         25    1    1    2    0    0 -0.46912754145E+01  0.65760280090E+02 -0.91101215717E+02  0.16813938863E+03  0.12500000000E+03 0.  0.
         25    1    1    2    0    0  0.60766982669E+02 -0.39656593219E+02  0.15295380641E+03  0.21044034419E+03  0.12500000000E+03 0.  0.
         25    1    1    2    0    0 -0.56075707254E+02 -0.26103686872E+02 -0.10030891667E+03  0.17179280013E+03  0.12500000000E+03 0.  0.
</event>
<event>
 5    0  0.5583350E-005  0.2699223E+03  0.7546771E-02  0.1101324E+00
         21   -1    0    0  502  501  0.00000000000E+00  0.00000000000E+00  0.40482578910E+02  0.40482578910E+02  0.00000000000E+00 0.  1.
         21   -1    0    0  501  502 -0.00000000000E+00 -0.00000000000E+00 -0.17997385008E+04  0.17997385008E+04  0.00000000000E+00 0.  1.
         25    1    1    2    0    0  0.66869072674E+02 -0.10157740743E+03 -0.38626126830E+03  0.42380680737E+03  0.12500000000E+03 0.  0.
         25    1    1    2    0    0  0.74855439723E+01 -0.49337948970E+02 -0.64250339308E+03  0.65644944718E+03  0.12500000000E+03 0.  0.
         25    1    1    2    0    0 -0.74354616646E+02  0.15091535640E+03 -0.73049126049E+03  0.75996482515E+03  0.12500000000E+03 0.  0.
</event>
<event>
 5    0  0.5583350E-005  0.4501115E+03  0.7546771E-02  0.1027689E+00
         21   -1    0    0  502  501  0.00000000000E+00  0.00000000000E+00  0.87804091432E+03  0.87804091432E+03  0.00000000000E+00 0. -1.
         21   -1    0    0  501  502 -0.00000000000E+00 -0.00000000000E+00 -0.23074141241E+03  0.23074141241E+03  0.00000000000E+00 0. -1.
         25    1    1    2    0    0  0.84379990433E+01 -0.19445891947E+03  0.29643740233E+03  0.37601277198E+03  0.12500000000E+03 0.  0.
         25    1    1    2    0    0 -0.18654075322E+03  0.31262782628E+03  0.27752401959E+03  0.47452944253E+03  0.12500000000E+03 0.  0.
         25    1    1    2    0    0  0.17810275418E+03 -0.11816890682E+03  0.73338079995E+02  0.25824011222E+03  0.12500000000E+03 0.  0.
</event>
<event>
 5    0  0.5583350E-005  0.2904677E+03  0.7546771E-02  0.1090105E+00
         21   -1    0    0  502  501  0.00000000000E+00  0.00000000000E+00  0.23759752273E+03  0.23759752273E+03  0.00000000000E+00 0.  1.
         21   -1    0    0  501  502 -0.00000000000E+00 -0.00000000000E+00 -0.35510251348E+03  0.35510251348E+03  0.00000000000E+00 0.  1.
         25    1    1    2    0    0 -0.10471225394E+03  0.31309484802E+02  0.31219774676E+02  0.16895151462E+03  0.12500000000E+03 0.  0.
         25    1    1    2    0    0  0.16321716489E+03 -0.78334690327E+02 -0.65507084102E+01  0.22010015540E+03  0.12500000000E+03 0.  0.
         25    1    1    2    0    0 -0.58504910958E+02  0.47025205524E+02 -0.14217405702E+03  0.20364836619E+03  0.12500000000E+03 0.  0.
</event>
<event>
 5    0  0.5784802E-005  0.2563388E+03  0.7546771E-02  0.1109363E+00
         21   -1    0    0  502  501  0.00000000000E+00  0.00000000000E+00  0.18673569467E+03  0.18673569467E+03  0.00000000000E+00 0.  1.
         21   -1    0    0  501  502 -0.00000000000E+00 -0.00000000000E+00 -0.35188541096E+03  0.35188541096E+03  0.00000000000E+00 0.  1.
         25    1    1    2    0    0 -0.79902288176E+02 -0.97869948532E+02 -0.52876409586E+02  0.18542873880E+03  0.12500000000E+03 0.  0.
         25    1    1    2    0    0  0.83992927813E+02  0.10800566001E+03 -0.76208908084E+00  0.18532570058E+03  0.12500000000E+03 0.  0.
         25    1    1    2    0    0 -0.40906396371E+01 -0.10135711476E+02 -0.11151121763E+03  0.16786666625E+03  0.12500000000E+03 0.  0.
</event>
<event>
 5    0  0.5583350E-005  0.3483052E+03  0.7546771E-02  0.1063313E+00
         21   -1    0    0  502  501  0.00000000000E+00  0.00000000000E+00  0.10329929854E+04  0.10329929854E+04  0.00000000000E+00 0.  1.
         21   -1    0    0  501  502 -0.00000000000E+00 -0.00000000000E+00 -0.11744173821E+03  0.11744173821E+03  0.00000000000E+00 0.  1.
         25    1    1    2    0    0 -0.18771209620E+03  0.55126954001E+02  0.51797789928E+03  0.56762744495E+03  0.12500000000E+03 0.  0.
         25    1    1    2    0    0  0.11341094816E+03 -0.16093896767E+03  0.29403556055E+03  0.37529362551E+03  0.12500000000E+03 0.  0.
         25    1    1    2    0    0  0.74301148043E+02  0.10581201367E+03  0.10353778739E+03  0.20751365318E+03  0.12500000000E+03 0.  0.
</event>
<event>
 5    0  0.5583350E-005  0.2452561E+03  0.7546771E-02  0.1116340E+00
         21   -1    0    0  502  501  0.00000000000E+00  0.00000000000E+00  0.97216212172E+02  0.97216212172E+02  0.00000000000E+00 0. -1.
         21   -1    0    0  501  502 -0.00000000000E+00 -0.00000000000E+00 -0.61872983817E+03  0.61872983817E+03  0.00000000000E+00 0. -1.
         25    1    1    2    0    0  0.14000386263E+02  0.95723420922E+02 -0.89231652103E+02  0.18151107918E+03  0.12500000000E+03 0.  0.
         25    1    1    2    0    0 -0.47556278060E+02 -0.19225900405E+02 -0.31823251127E+03  0.34572845711E+03  0.12500000000E+03 0.  0.
         25    1    1    2    0    0  0.33555891797E+02 -0.76497520516E+02 -0.11404946263E+03  0.18870651405E+03  0.12500000000E+03 0.  0.
</event>
<event>
 5    0  0.5583350E-005  0.2658440E+03  0.7546771E-02  0.1103682E+00
         21   -1    0    0  502  501  0.00000000000E+00  0.00000000000E+00  0.47126832237E+03  0.47126832237E+03  0.00000000000E+00 0. -1.
         21   -1    0    0  501  502 -0.00000000000E+00 -0.00000000000E+00 -0.14996349303E+03  0.14996349303E+03  0.00000000000E+00 0. -1.
         25    1    1    2    0    0  0.95441472294E+02  0.24010621186E+02  0.12535034036E+03  0.20254207561E+03  0.12500000000E+03 0.  0.
         25    1    1    2    0    0 -0.10305189667E+03 -0.10826154679E+02  0.23608380119E+03  0.28652654365E+03  0.12500000000E+03 0.  0.
         25    1    1    2    0    0  0.76104243716E+01 -0.13184466507E+02 -0.40129312212E+02  0.13216319614E+03  0.12500000000E+03 0.  0.
</event>
<event>
 5    0  0.5583350E-005  0.3588913E+03  0.7546771E-02  0.1059024E+00
         21   -1    0    0  502  501  0.00000000000E+00  0.00000000000E+00  0.59513250727E+03  0.59513250727E+03  0.00000000000E+00 0. -1.
         21   -1    0    0  501  502 -0.00000000000E+00 -0.00000000000E+00 -0.21642733855E+03  0.21642733855E+03  0.00000000000E+00 0. -1.
         25    1    1    2    0    0  0.61278764986E+02 -0.32724064863E+02 -0.52759306419E+02  0.15242865831E+03  0.12500000000E+03 0.  0.
         25    1    1    2    0    0 -0.66317195899E+01  0.22724045321E+03  0.24861677987E+03  0.35932924528E+03  0.12500000000E+03 0.  0.
         25    1    1    2    0    0 -0.54647045396E+02 -0.19451638835E+03  0.18284769527E+03  0.29980194224E+03  0.12500000000E+03 0.  0.
</event>
<event>
 5    0  0.5583350E-005  0.2824287E+03  0.7546771E-02  0.1094370E+00
         21   -1    0    0  502  501  0.00000000000E+00  0.00000000000E+00  0.15001855233E+04  0.15001855233E+04  0.00000000000E+00 0.  1.
         21   -1    0    0  501  502 -0.00000000000E+00 -0.00000000000E+00 -0.53170730604E+02  0.53170730604E+02  0.00000000000E+00 0.  1.
         25    1    1    2    0    0 -0.61605963487E+02 -0.91918799557E+02  0.82277379683E+03  0.83953920766E+03  0.12500000000E+03 0.  0.
         25    1    1    2    0    0  0.11020033833E+02 -0.60269307549E+00  0.88192269450E+02  0.15337757586E+03  0.12500000000E+03 0.  0.
         25    1    1    2    0    0  0.50585929654E+02  0.92521492633E+02  0.53604872643E+03  0.56043947040E+03  0.12500000000E+03 0.  0.
</event>
<event>
 5    0  0.5583350E-005  0.3335194E+03  0.7546771E-02  0.1069590E+00
         21   -1    0    0  502  501  0.00000000000E+00  0.00000000000E+00  0.26290369537E+03  0.26290369537E+03  0.00000000000E+00 0. -1.
         21   -1    0    0  501  502 -0.00000000000E+00 -0.00000000000E+00 -0.42310246629E+03  0.42310246629E+03  0.00000000000E+00 0. -1.
         25    1    1    2    0    0  0.47686103369E+01  0.46497388773E+02  0.61030860115E+02  0.14674642310E+03  0.12500000000E+03 0.  0.
         25    1    1    2    0    0  0.58333264188E+02 -0.13627745347E+03 -0.29842173499E+03  0.35588600134E+03  0.12500000000E+03 0.  0.
         25    1    1    2    0    0 -0.63101874525E+02  0.89780064697E+02  0.77192103953E+02  0.18337373721E+03  0.12500000000E+03 0.  0.
</event>
<event>
 5    0  0.5583350E-005  0.2462294E+03  0.7546771E-02  0.1115711E+00
         21   -1    0    0  502  501  0.00000000000E+00  0.00000000000E+00  0.65808144617E+03  0.65808144617E+03  0.00000000000E+00 0.  1.
         21   -1    0    0  501  502 -0.00000000000E+00 -0.00000000000E+00 -0.92129834228E+02  0.92129834228E+02  0.00000000000E+00 0.  1.
         25    1    1    2    0    0 -0.22785196436E+02  0.73324345136E+02  0.64745876291E+02  0.16035165501E+03  0.12500000000E+03 0.  0.
         25    1    1    2    0    0  0.47837606539E+02 -0.18861478720E+01  0.11339777751E+03  0.17543104086E+03  0.12500000000E+03 0.  0.
         25    1    1    2    0    0 -0.25052410103E+02 -0.71438197264E+02  0.38780795814E+03  0.41442858454E+03  0.12500000000E+03 0.  0.
</event>
<event>
 5    0  0.5583350E-005  0.4478606E+03  0.7546771E-02  0.1028362E+00
         21   -1    0    0  502  501  0.00000000000E+00  0.00000000000E+00  0.10576698432E+04  0.10576698432E+04  0.00000000000E+00 0.  1.
         21   -1    0    0  501  502 -0.00000000000E+00 -0.00000000000E+00 -0.18964248378E+03  0.18964248378E+03  0.00000000000E+00 0.  1.
         25    1    1    2    0    0  0.10213632331E+03 -0.10569698340E+03  0.76131953854E+02  0.20742409512E+03  0.12500000000E+03 0.  0.
         25    1    1    2    0    0  0.13968872051E+03  0.23895120545E+03  0.62260389447E+03  0.69272738262E+03  0.12500000000E+03 0.  0.
         25    1    1    2    0    0 -0.24182504381E+03 -0.13325422205E+03  0.16929151107E+03  0.34716084922E+03  0.12500000000E+03 0.  0.
</event>
<event>
 5    0  0.5583350E-005  0.3368349E+03  0.7546771E-02  0.1068152E+00
         21   -1    0    0  502  501  0.00000000000E+00  0.00000000000E+00  0.27880238570E+03  0.27880238570E+03  0.00000000000E+00 0. -1.
         21   -1    0    0  501  502 -0.00000000000E+00 -0.00000000000E+00 -0.40694673420E+03  0.40694673420E+03  0.00000000000E+00 0. -1.
         25    1    1    2    0    0  0.17244018386E+03  0.17680470673E+03 -0.14514819805E+03  0.31255162890E+03  0.12500000000E+03 0.  0.
         25    1    1    2    0    0 -0.97114316796E+02 -0.26573870582E+02 -0.15458072025E+02  0.16124922671E+03  0.12500000000E+03 0.  0.
         25    1    1    2    0    0 -0.75325867068E+02 -0.15023083615E+03  0.32461921574E+02  0.21194826428E+03  0.12500000000E+03 0.  0.
</event>
<event>
 5    0  0.5583350E-005  0.4883067E+03  0.7546771E-02  0.1016877E+00
         21   -1    0    0  502  501  0.00000000000E+00  0.00000000000E+00  0.79206390761E+03  0.79206390761E+03  0.00000000000E+00 0. -1.
         21   -1    0    0  501  502 -0.00000000000E+00 -0.00000000000E+00 -0.30104064895E+03  0.30104064895E+03  0.00000000000E+00 0. -1.
         25    1    1    2    0    0  0.86487511228E+02  0.29141833840E+03  0.34057405512E+03  0.47330795955E+03  0.12500000000E+03 0.  0.
         25    1    1    2    0    0  0.12633232335E+03 -0.27984338790E+03  0.16884102160E+03  0.37202751008E+03  0.12500000000E+03 0.  0.
         25    1    1    2    0    0 -0.21281983458E+03 -0.11574950494E+02 -0.18391818067E+02  0.24776908694E+03  0.12500000000E+03 0.  0.
</event>
<event>
 5    0  0.5583350E-005  0.4382388E+03  0.7546771E-02  0.1031289E+00
         21   -1    0    0  502  501  0.00000000000E+00  0.00000000000E+00  0.75894282889E+02  0.75894282889E+02  0.00000000000E+00 0. -1.
         21   -1    0    0  501  502 -0.00000000000E+00 -0.00000000000E+00 -0.25305365159E+04  0.25305365159E+04  0.00000000000E+00 0. -1.
         25    1    1    2    0    0 -0.28634462545E+03  0.18814826826E+03 -0.13681721316E+04  0.14159495037E+04  0.12500000000E+03 0.  0.
         25    1    1    2    0    0  0.27494006070E+03 -0.10130118044E+03 -0.58265421430E+03  0.66405188019E+03  0.12500000000E+03 0.  0.
         25    1    1    2    0    0  0.11404564754E+02 -0.86847087819E+02 -0.50381588720E+03  0.52642941498E+03  0.12500000000E+03 0.  0.
</event>
<event>
 5    0  0.5583350E-005  0.2971292E+03  0.7546771E-02  0.1086685E+00
         21   -1    0    0  502  501  0.00000000000E+00  0.00000000000E+00  0.19569535873E+03  0.19569535873E+03  0.00000000000E+00 0.  1.
         21   -1    0    0  501  502 -0.00000000000E+00 -0.00000000000E+00 -0.45113884078E+03  0.45113884078E+03  0.00000000000E+00 0.  1.
         25    1    1    2    0    0  0.13544899933E+03  0.62268900011E+02 -0.20596847392E+03  0.28332288926E+03  0.12500000000E+03 0.  0.
         25    1    1    2    0    0 -0.39642447237E+02 -0.10739104969E+03  0.43699627215E+02  0.17504004855E+03  0.12500000000E+03 0.  0.
         25    1    1    2    0    0 -0.95806552096E+02  0.45122149677E+02 -0.93174635349E+02  0.18847126170E+03  0.12500000000E+03 0.  0.
</event>
<event>
 5    0  0.5583350E-005  0.2729772E+03  0.7546771E-02  0.1099588E+00
         21   -1    0    0  502  501  0.00000000000E+00  0.00000000000E+00  0.35143173659E+03  0.35143173659E+03  0.00000000000E+00 0. -1.
         21   -1    0    0  501  502 -0.00000000000E+00 -0.00000000000E+00 -0.21203704115E+03  0.21203704115E+03  0.00000000000E+00 0. -1.
         25    1    1    2    0    0 -0.48388924579E+02 -0.63887150229E+02  0.17082650478E+03  0.22633990086E+03  0.12500000000E+03 0.  0.
         25    1    1    2    0    0 -0.15730034312E+02 -0.21370210581E+02 -0.96761612124E+02  0.16028702212E+03  0.12500000000E+03 0.  0.
         25    1    1    2    0    0  0.64118958891E+02  0.85257360810E+02  0.65329802794E+02  0.17684185476E+03  0.12500000000E+03 0.  0.
</event>
<event>
 5    0  0.5583350E-005  0.2915611E+03  0.7546771E-02  0.1089537E+00
         21   -1    0    0  502  501  0.00000000000E+00  0.00000000000E+00  0.38386688512E+03  0.38386688512E+03  0.00000000000E+00 0.  1.
         21   -1    0    0  501  502 -0.00000000000E+00 -0.00000000000E+00 -0.22145142239E+03  0.22145142239E+03  0.00000000000E+00 0.  1.
         25    1    1    2    0    0 -0.71297286634E+02  0.11128490702E+03 -0.11615189784E+02  0.18228424574E+03  0.12500000000E+03 0.  0.
         25    1    1    2    0    0 -0.94402806015E+01  0.65863305527E+02  0.11961961340E+03  0.18536705700E+03  0.12500000000E+03 0.  0.
         25    1    1    2    0    0  0.80737567236E+02 -0.17714821255E+03  0.54411039110E+02  0.23766700476E+03  0.12500000000E+03 0.  0.
</event>
<event>
 5    0  0.5583350E-005  0.2808327E+03  0.7546771E-02  0.1095235E+00
         21   -1    0    0  502  501  0.00000000000E+00  0.00000000000E+00  0.22943807271E+03  0.22943807271E+03  0.00000000000E+00 0.  1.
         21   -1    0    0  501  502 -0.00000000000E+00 -0.00000000000E+00 -0.34373993365E+03  0.34373993365E+03  0.00000000000E+00 0.  1.
         25    1    1    2    0    0  0.26020692717E+02  0.14763992094E+03 -0.55007756363E+02  0.20279417143E+03  0.12500000000E+03 0.  0.
         25    1    1    2    0    0 -0.97500879043E+02 -0.64487558363E+02  0.41284111578E+02  0.17605239125E+03  0.12500000000E+03 0.  0.
         25    1    1    2    0    0  0.71480186327E+02 -0.83152362577E+02 -0.10057821615E+03  0.19433144368E+03  0.12500000000E+03 0.  0.
</event>
<event>
 5    0  0.5583350E-005  0.2538242E+03  0.7546771E-02  0.1110912E+00
         21   -1    0    0  502  501  0.00000000000E+00  0.00000000000E+00  0.88051296166E+02  0.88051296166E+02  0.00000000000E+00 0. -1.
         21   -1    0    0  501  502 -0.00000000000E+00 -0.00000000000E+00 -0.73169556497E+03  0.73169556497E+03  0.00000000000E+00 0. -1.
         25    1    1    2    0    0  0.20216651817E+02 -0.57394414235E+02 -0.38434713575E+02  0.14423958889E+03  0.12500000000E+03 0.  0.
         25    1    1    2    0    0 -0.66103811736E+02 -0.17865710363E+02 -0.23354682570E+03  0.27360193224E+03  0.12500000000E+03 0.  0.
         25    1    1    2    0    0  0.45887159920E+02  0.75260124598E+02 -0.37166272953E+03  0.40190534000E+03  0.12500000000E+03 0.  0.
</event>
<event>
 5    0  0.5583350E-005  0.3707211E+03  0.7546771E-02  0.1054418E+00
         21   -1    0    0  502  501  0.00000000000E+00  0.00000000000E+00  0.10676126041E+04  0.10676126041E+04  0.00000000000E+00 0. -1.
         21   -1    0    0  501  502 -0.00000000000E+00 -0.00000000000E+00 -0.12873037370E+03  0.12873037370E+03  0.00000000000E+00 0. -1.
         25    1    1    2    0    0 -0.29728953241E+02  0.28039434197E+03  0.50244742866E+03  0.58956188500E+03  0.12500000000E+03 0.  0.
         25    1    1    2    0    0 -0.35983226203E+02 -0.21272376523E+03  0.34425664032E+03  0.42506920291E+03  0.12500000000E+03 0.  0.
         25    1    1    2    0    0  0.65712179444E+02 -0.67670576740E+02  0.92178161410E+02  0.18171188988E+03  0.12500000000E+03 0.  0.
</event>
<event>
 5    0  0.5583350E-005  0.3099379E+03  0.7546771E-02  0.1080376E+00
         21   -1    0    0  502  501  0.00000000000E+00  0.00000000000E+00  0.17337774617E+03  0.17337774617E+03  0.00000000000E+00 0.  1.
         21   -1    0    0  501  502 -0.00000000000E+00 -0.00000000000E+00 -0.55405915002E+03  0.55405915002E+03  0.00000000000E+00 0.  1.
         25    1    1    2    0    0  0.11643729386E+03  0.30952770615E+02 -0.16717425240E+03  0.24101441467E+03  0.12500000000E+03 0.  0.
         25    1    1    2    0    0 -0.17465616562E+01  0.38573416484E+02 -0.26538983354E+03  0.29588464421E+03  0.12500000000E+03 0.  0.
         25    1    1    2    0    0 -0.11469073221E+03 -0.69526187099E+02  0.51882682095E+02  0.19053783731E+03  0.12500000000E+03 0.  0.
</event>
<event>
 5    0  0.5583350E-005  0.3368459E+03  0.7546771E-02  0.1068147E+00
         21   -1    0    0  502  501  0.00000000000E+00  0.00000000000E+00  0.34121376174E+03  0.34121376174E+03  0.00000000000E+00 0.  1.
         21   -1    0    0  501  502 -0.00000000000E+00 -0.00000000000E+00 -0.33253392324E+03  0.33253392324E+03  0.00000000000E+00 0.  1.
         25    1    1    2    0    0 -0.72718848188E+02 -0.85859295663E+02 -0.21501179755E+03  0.27297421603E+03  0.12500000000E+03 0.  0.
         25    1    1    2    0    0  0.92054110935E+02  0.12093754057E+03  0.10140875444E+03  0.22137882359E+03  0.12500000000E+03 0.  0.
         25    1    1    2    0    0 -0.19335262746E+02 -0.35078244905E+02  0.12228288160E+03  0.17939464536E+03  0.12500000000E+03 0.  0.
</event>
<event>
 5    0  0.5583350E-005  0.2272528E+03  0.7546771E-02  0.1128588E+00
         21   -1    0    0  502  501  0.00000000000E+00  0.00000000000E+00  0.11760058154E+04  0.11760058154E+04  0.00000000000E+00 0. -1.
         21   -1    0    0  501  502 -0.00000000000E+00 -0.00000000000E+00 -0.43914618892E+02  0.43914618892E+02  0.00000000000E+00 0. -1.
         25    1    1    2    0    0  0.60489011637E+01  0.14295047784E+02  0.45673533245E+03  0.47378592371E+03  0.12500000000E+03 0.  0.
         25    1    1    2    0    0 -0.33785503649E+02 -0.53402444142E+02  0.53138716078E+03  0.54953671028E+03  0.12500000000E+03 0.  0.
         25    1    1    2    0    0  0.27736602485E+02  0.39107396358E+02  0.14396870332E+03  0.19659780035E+03  0.12500000000E+03 0.  0.
</event>
<event>
 5    0  0.5583350E-005  0.2833391E+03  0.7546771E-02  0.1093879E+00
         21   -1    0    0  502  501  0.00000000000E+00  0.00000000000E+00  0.30785519812E+03  0.30785519812E+03  0.00000000000E+00 0. -1.
         21   -1    0    0  501  502 -0.00000000000E+00 -0.00000000000E+00 -0.26077540165E+03  0.26077540165E+03  0.00000000000E+00 0. -1.
         25    1    1    2    0    0  0.15543164239E+03 -0.73876248396E+02  0.32605848955E+02  0.21518558715E+03  0.12500000000E+03 0.  0.
         25    1    1    2    0    0 -0.11497213456E+03 -0.31158349310E+02 -0.38852105398E+02  0.17698565069E+03  0.12500000000E+03 0.  0.
         25    1    1    2    0    0 -0.40459507831E+02  0.10503459771E+03  0.53326052916E+02  0.17645936192E+03  0.12500000000E+03 0.  0.
</event>
<event>
 5    0  0.5583350E-005  0.2779291E+03  0.7546771E-02  0.1096825E+00
         21   -1    0    0  502  501  0.00000000000E+00  0.00000000000E+00  0.28697164641E+03  0.28697164641E+03  0.00000000000E+00 0. -1.
         21   -1    0    0  501  502 -0.00000000000E+00 -0.00000000000E+00 -0.26917150365E+03  0.26917150365E+03  0.00000000000E+00 0. -1.
         25    1    1    2    0    0 -0.46184625726E+02  0.15646713798E+01 -0.34999957621E+02  0.13778775302E+03  0.12500000000E+03 0.  0.
         25    1    1    2    0    0 -0.57620574919E+02 -0.13709721264E+03  0.68971526516E+02  0.20615006146E+03  0.12500000000E+03 0.  0.
         25    1    1    2    0    0  0.10380520064E+03  0.13553254126E+03 -0.16171426140E+02  0.21220533557E+03  0.12500000000E+03 0.  0.
</event>
<event>
 5    0  0.5583350E-005  0.2490476E+03  0.7546771E-02  0.1113908E+00
         21   -1    0    0  502  501  0.00000000000E+00  0.00000000000E+00  0.35835014056E+03  0.35835014056E+03  0.00000000000E+00 0.  1.
         21   -1    0    0  501  502 -0.00000000000E+00 -0.00000000000E+00 -0.17308411443E+03  0.17308411443E+03  0.00000000000E+00 0.  1.
         25    1    1    2    0    0  0.15717321978E+02  0.83140574015E+02  0.13421671341E+03  0.20198642384E+03  0.12500000000E+03 0.  0.
         25    1    1    2    0    0 -0.31204238615E+02 -0.59190625201E+01  0.11084804459E+03  0.17006183816E+03  0.12500000000E+03 0.  0.
         25    1    1    2    0    0  0.15486916638E+02 -0.77221511495E+02 -0.59798731873E+02  0.15938599298E+03  0.12500000000E+03 0.  0.
</event>
<event>
 5    0  0.5583350E-005  0.6537498E+03  0.7546771E-02  0.9799768E-01
         21   -1    0    0  502  501  0.00000000000E+00  0.00000000000E+00  0.45467206721E+03  0.45467206721E+03  0.00000000000E+00 0.  1.
         21   -1    0    0  501  502 -0.00000000000E+00 -0.00000000000E+00 -0.93999343878E+03  0.93999343878E+03  0.00000000000E+00 0.  1.
         25    1    1    2    0    0  0.56800666534E+03 -0.20337942715E+03 -0.31006880681E+03  0.68975533939E+03  0.12500000000E+03 0.  0.
         25    1    1    2    0    0 -0.25764324416E+03  0.13565262704E+03 -0.17816176650E+03  0.36352206470E+03  0.12500000000E+03 0.  0.
         25    1    1    2    0    0 -0.31036342118E+03  0.67726800110E+02  0.29092017324E+01  0.34138810189E+03  0.12500000000E+03 0.  0.
</event>
<event>
 5    0  0.5583350E-005  0.3282430E+03  0.7546771E-02  0.1071917E+00
         21   -1    0    0  502  501  0.00000000000E+00  0.00000000000E+00  0.31576018111E+03  0.31576018111E+03  0.00000000000E+00 0.  1.
         21   -1    0    0  501  502 -0.00000000000E+00 -0.00000000000E+00 -0.34121922311E+03  0.34121922311E+03  0.00000000000E+00 0.  1.
         25    1    1    2    0    0  0.11872949525E+03 -0.14757235986E+03  0.15921545421E+03  0.27721626088E+03  0.12500000000E+03 0.  0.
         25    1    1    2    0    0 -0.59563682185E+02  0.68930473345E+02 -0.29375798303E+02  0.15743944841E+03  0.12500000000E+03 0.  0.
         25    1    1    2    0    0 -0.59165813067E+02  0.78641886514E+02 -0.15529869791E+03  0.22232369492E+03  0.12500000000E+03 0.  0.
</event>
<event>
 5    0  0.5583350E-005  0.2369254E+03  0.7546771E-02  0.1121858E+00
         21   -1    0    0  502  501  0.00000000000E+00  0.00000000000E+00  0.16392735257E+03  0.16392735257E+03  0.00000000000E+00 0. -1.
         21   -1    0    0  501  502 -0.00000000000E+00 -0.00000000000E+00 -0.34243008952E+03  0.34243008952E+03  0.00000000000E+00 0. -1.
         25    1    1    2    0    0  0.98933699132E+02 -0.50100374311E+02 -0.44178779676E+02  0.17284296024E+03  0.12500000000E+03 0.  0.
         25    1    1    2    0    0 -0.32227908000E+02 -0.30659308452E+02 -0.19597933546E+02  0.13411826963E+03  0.12500000000E+03 0.  0.
         25    1    1    2    0    0 -0.66705791133E+02  0.80759682764E+02 -0.11472602372E+03  0.19939621223E+03  0.12500000000E+03 0.  0.
</event>
<event>
 5    0  0.5583350E-005  0.2369401E+03  0.7546771E-02  0.1121848E+00
         21   -1    0    0  502  501  0.00000000000E+00  0.00000000000E+00  0.94573947277E+03  0.94573947277E+03  0.00000000000E+00 0. -1.
         21   -1    0    0  501  502 -0.00000000000E+00 -0.00000000000E+00 -0.59361614481E+02  0.59361614481E+02  0.00000000000E+00 0. -1.
         25    1    1    2    0    0  0.48198809919E+01  0.37958017262E+02  0.36070839372E+03  0.38366598445E+03  0.12500000000E+03 0.  0.
         25    1    1    2    0    0  0.33558255120E+01 -0.99917780389E+02  0.40961483002E+03  0.43977736797E+03  0.12500000000E+03 0.  0.
         25    1    1    2    0    0 -0.81757065039E+01  0.61959763126E+02  0.11605463455E+03  0.18165773483E+03  0.12500000000E+03 0.  0.
</event>
<event>
 5    0  0.5583350E-005  0.2824685E+03  0.7546771E-02  0.1094348E+00
         21   -1    0    0  502  501  0.00000000000E+00  0.00000000000E+00  0.35170091909E+03  0.35170091909E+03  0.00000000000E+00 0.  1.
         21   -1    0    0  501  502 -0.00000000000E+00 -0.00000000000E+00 -0.22686443479E+03  0.22686443479E+03  0.00000000000E+00 0.  1.
         25    1    1    2    0    0 -0.11671558320E+03 -0.31202757365E+02  0.71187549192E+02  0.18785315166E+03  0.12500000000E+03 0.  0.
         25    1    1    2    0    0  0.54022593241E+02  0.27295585296E+02  0.16227739587E+03  0.21359410752E+03  0.12500000000E+03 0.  0.
         25    1    1    2    0    0  0.62692989961E+02  0.39071720697E+01 -0.10862846076E+03  0.17711809470E+03  0.12500000000E+03 0.  0.
</event>
<event>
 5    0  0.5583350E-005  0.2448653E+03  0.7546771E-02  0.1116594E+00
         21   -1    0    0  502  501  0.00000000000E+00  0.00000000000E+00  0.96636444613E+02  0.96636444613E+02  0.00000000000E+00 0. -1.
         21   -1    0    0  501  502 -0.00000000000E+00 -0.00000000000E+00 -0.62045943598E+03  0.62045943598E+03  0.00000000000E+00 0. -1.
         25    1    1    2    0    0 -0.33749195095E+02 -0.56819295440E+02 -0.30423668804E+03  0.33548830509E+03  0.12500000000E+03 0.  0.
         25    1    1    2    0    0  0.87712069151E+02  0.77157526265E+02 -0.93711663231E+02  0.19507323435E+03  0.12500000000E+03 0.  0.
         25    1    1    2    0    0 -0.53962874055E+02 -0.20338230824E+02 -0.12587464010E+03  0.18653434115E+03  0.12500000000E+03 0.  0.
</event>
<event>
 5    0  0.5583350E-005  0.2444624E+03  0.7546771E-02  0.1116855E+00
         21   -1    0    0  502  501  0.00000000000E+00  0.00000000000E+00  0.15115094541E+04  0.15115094541E+04  0.00000000000E+00 0.  1.
         21   -1    0    0  501  502 -0.00000000000E+00 -0.00000000000E+00 -0.39537874213E+02  0.39537874213E+02  0.00000000000E+00 0.  1.
         25    1    1    2    0    0 -0.17415418350E+02 -0.38279495278E+02  0.67188189504E+03  0.68470351061E+03  0.12500000000E+03 0.  0.
         25    1    1    2    0    0 -0.12687747195E+02  0.10446849260E+03  0.58325360296E+03  0.60570983998E+03  0.12500000000E+03 0.  0.
         25    1    1    2    0    0  0.30103165546E+02 -0.66188997323E+02  0.21683608192E+03  0.26063397776E+03  0.12500000000E+03 0.  0.
</event>
<event>
 5    0  0.5583350E-005  0.2556263E+03  0.7546771E-02  0.1109800E+00
         21   -1    0    0  502  501  0.00000000000E+00  0.00000000000E+00  0.94799899918E+02  0.94799899918E+02  0.00000000000E+00 0.  1.
         21   -1    0    0  501  502 -0.00000000000E+00 -0.00000000000E+00 -0.68929193514E+03  0.68929193514E+03  0.00000000000E+00 0.  1.
         25    1    1    2    0    0 -0.94426808402E+02  0.58650547500E+02 -0.35025495903E+03  0.38814925633E+03  0.12500000000E+03 0.  0.
         25    1    1    2    0    0  0.85309734674E+02 -0.65137557022E+02 -0.64958423756E+02  0.17710236865E+03  0.12500000000E+03 0.  0.
         25    1    1    2    0    0  0.91170737280E+01  0.64870095221E+01 -0.17927865244E+03  0.21884021008E+03  0.12500000000E+03 0.  0.
</event>
<event>
 5    0  0.5583350E-005  0.3714431E+03  0.7546771E-02  0.1054143E+00
         21   -1    0    0  502  501  0.00000000000E+00  0.00000000000E+00  0.18358015886E+03  0.18358015886E+03  0.00000000000E+00 0.  1.
         21   -1    0    0  501  502 -0.00000000000E+00 -0.00000000000E+00 -0.75155148258E+03  0.75155148258E+03  0.00000000000E+00 0.  1.
         25    1    1    2    0    0 -0.18339403357E+03  0.30627900589E+02 -0.43219454793E+03  0.48681471537E+03  0.12500000000E+03 0.  0.
         25    1    1    2    0    0  0.31207099663E+02 -0.14266690146E+03 -0.18319966493E+02  0.19310191354E+03  0.12500000000E+03 0.  0.
         25    1    1    2    0    0  0.15218693391E+03  0.11203900087E+03 -0.11745680931E+03  0.25521501253E+03  0.12500000000E+03 0.  0.
</event>
<event>
 5    0  0.5583350E-005  0.4501093E+03  0.7546771E-02  0.1027689E+00
         21   -1    0    0  502  501  0.00000000000E+00  0.00000000000E+00  0.79293266136E+03  0.79293266136E+03  0.00000000000E+00 0.  1.
         21   -1    0    0  501  502 -0.00000000000E+00 -0.00000000000E+00 -0.25550519354E+03  0.25550519354E+03  0.00000000000E+00 0. -1.
         25    1    1    2    0    0 -0.13620521407E+03 -0.49058512063E+02  0.23659157331E+03  0.30423538668E+03  0.12500000000E+03 0.  0.
         25    1    1    2    0    0 -0.14626501357E+03  0.24731915985E+03  0.12759204926E+03  0.33832669427E+03  0.12500000000E+03 0.  0.
         25    1    1    2    0    0  0.28247022764E+03 -0.19826064779E+03  0.17324384524E+03  0.40587577395E+03  0.12500000000E+03 0.  0.
</event>
<event>
 5    0  0.5583350E-005  0.2564383E+03  0.7546771E-02  0.1109302E+00
         21   -1    0    0  502  501  0.00000000000E+00  0.00000000000E+00  0.17151616281E+04  0.17151616281E+04  0.00000000000E+00 0. -1.
         21   -1    0    0  501  502 -0.00000000000E+00 -0.00000000000E+00 -0.38340754911E+02  0.38340754911E+02  0.00000000000E+00 0. -1.
         25    1    1    2    0    0  0.64801376216E+02 -0.61681920668E+02  0.34110070180E+03  0.37413709581E+03  0.12500000000E+03 0.  0.
         25    1    1    2    0    0 -0.41342832331E+02 -0.71167537842E+02  0.77294032057E+03  0.78729650539E+03  0.12500000000E+03 0.  0.
         25    1    1    2    0    0 -0.23458543885E+02  0.13284945851E+03  0.56277985082E+03  0.59206878181E+03  0.12500000000E+03 0.  0.
</event>
<event>
 5    0  0.5583350E-005  0.3138515E+03  0.7546771E-02  0.1078514E+00
         21   -1    0    0  502  501  0.00000000000E+00  0.00000000000E+00  0.86192045720E+03  0.86192045720E+03  0.00000000000E+00 0. -1.
         21   -1    0    0  501  502 -0.00000000000E+00 -0.00000000000E+00 -0.11428286457E+03  0.11428286457E+03  0.00000000000E+00 0. -1.
         25    1    1    2    0    0  0.94584453102E+02 -0.38028813921E+02 -0.17079943233E+00  0.16129922080E+03  0.12500000000E+03 0.  0.
         25    1    1    2    0    0 -0.12460919503E+03 -0.25529679729E+01  0.30911652851E+03  0.35596628679E+03  0.12500000000E+03 0.  0.
         25    1    1    2    0    0  0.30024741925E+02  0.40581781894E+02  0.43869186355E+03  0.45893781419E+03  0.12500000000E+03 0.  0.
</event>
<event>
 5    0  0.5583350E-005  0.3219198E+03  0.7546771E-02  0.1074769E+00
         21   -1    0    0  502  501  0.00000000000E+00  0.00000000000E+00  0.43329225152E+02  0.43329225152E+02  0.00000000000E+00 0. -1.
         21   -1    0    0  501  502 -0.00000000000E+00 -0.00000000000E+00 -0.23917420774E+04  0.23917420774E+04  0.00000000000E+00 0. -1.
         25    1    1    2    0    0  0.14753046848E+03  0.14448865475E+03 -0.64649024872E+03  0.69008467029E+03  0.12500000000E+03 0.  0.
         25    1    1    2    0    0 -0.38573292085E+02 -0.19671112638E+02 -0.30118525677E+03  0.32895654793E+03  0.12500000000E+03 0.  0.
         25    1    1    2    0    0 -0.10895717640E+03 -0.12481754211E+03 -0.14007373467E+04  0.14160300843E+04  0.12500000000E+03 0.  0.
</event>
<event>
 5    0  0.5583350E-005  0.5323376E+03  0.7546771E-02  0.1005667E+00
         21   -1    0    0  502  501  0.00000000000E+00  0.00000000000E+00  0.16554268359E+04  0.16554268359E+04  0.00000000000E+00 0.  1.
         21   -1    0    0  501  502 -0.00000000000E+00 -0.00000000000E+00 -0.17118445129E+03  0.17118445129E+03  0.00000000000E+00 0.  1.
         25    1    1    2    0    0 -0.42026581169E+02  0.22284401472E+03  0.45498877492E+03  0.52351262996E+03  0.12500000000E+03 0.  0.
         25    1    1    2    0    0 -0.26159095124E+03  0.56090537531E+02  0.16711412262E+03  0.33930532585E+03  0.12500000000E+03 0.  0.
         25    1    1    2    0    0  0.30361753241E+03 -0.27893455225E+03  0.86213948706E+03  0.96379333136E+03  0.12500000000E+03 0.  0.
</event>
<event>
 5    0  0.5583350E-005  0.3690899E+03  0.7546771E-02  0.1055041E+00
         21   -1    0    0  502  501  0.00000000000E+00  0.00000000000E+00  0.31684833033E+03  0.31684833033E+03  0.00000000000E+00 0.  1.
         21   -1    0    0  501  502 -0.00000000000E+00 -0.00000000000E+00 -0.42994509953E+03  0.42994509953E+03  0.00000000000E+00 0.  1.
         25    1    1    2    0    0 -0.19768891022E+03 -0.47732361785E+02 -0.50573652064E+02  0.24401224942E+03  0.12500000000E+03 0.  0.
         25    1    1    2    0    0  0.13758811834E+01  0.59689780022E+02 -0.19156230480E+03  0.23640194481E+03  0.12500000000E+03 0.  0.
         25    1    1    2    0    0  0.19631302903E+03 -0.11957418237E+02  0.12903918767E+03  0.26637923563E+03  0.12500000000E+03 0.  0.
</event>
<event>
 5    0  0.5583350E-005  0.4321388E+03  0.7546771E-02  0.1033186E+00
         21   -1    0    0  502  501  0.00000000000E+00  0.00000000000E+00  0.22044374110E+04  0.22044374110E+04  0.00000000000E+00 0. -1.
         21   -1    0    0  501  502 -0.00000000000E+00 -0.00000000000E+00 -0.84712733040E+02  0.84712733040E+02  0.00000000000E+00 0. -1.
         25    1    1    2    0    0 -0.60269382139E+02 -0.77583148782E+02  0.10101508051E+03  0.18836292069E+03  0.12500000000E+03 0.  0.
         25    1    1    2    0    0 -0.81081229627E+02 -0.19619546457E+03  0.76203890510E+03  0.80087147470E+03  0.12500000000E+03 0.  0.
         25    1    1    2    0    0  0.14135061177E+03  0.27377861335E+03  0.12566706924E+04  0.12999157487E+04  0.12500000000E+03 0.  0.
</event>
<event>
 5    0  0.5583350E-005  0.2833768E+03  0.7546771E-02  0.1093859E+00
         21   -1    0    0  502  501  0.00000000000E+00  0.00000000000E+00  0.16807104588E+04  0.16807104588E+04  0.00000000000E+00 0. -1.
         21   -1    0    0  501  502 -0.00000000000E+00 -0.00000000000E+00 -0.47778833550E+02  0.47778833550E+02  0.00000000000E+00 0. -1.
         25    1    1    2    0    0 -0.38923960103E+02 -0.82626648916E+02  0.26950678781E+03  0.31080724968E+03  0.12500000000E+03 0.  0.
         25    1    1    2    0    0  0.12601225922E+03 -0.29973886895E+01  0.98479844600E+03  0.10006703019E+04  0.12500000000E+03 0.  0.
         25    1    1    2    0    0 -0.87088299113E+02  0.85624037606E+02  0.37862639141E+03  0.41701174076E+03  0.12500000000E+03 0.  0.
</event>
<event>
 5    0  0.5583350E-005  0.3724870E+03  0.7546771E-02  0.1053746E+00
         21   -1    0    0  502  501  0.00000000000E+00  0.00000000000E+00  0.85479906445E+02  0.85479906445E+02  0.00000000000E+00 0. -1.
         21   -1    0    0  501  502 -0.00000000000E+00 -0.00000000000E+00 -0.16231480522E+04  0.16231480522E+04  0.00000000000E+00 0. -1.
         25    1    1    2    0    0  0.11439602659E+03  0.17413280552E+03 -0.27257197444E+03  0.36514266541E+03  0.12500000000E+03 0.  0.
         25    1    1    2    0    0 -0.15331184064E+03 -0.15935366658E+03 -0.11158933748E+04  0.11444392231E+04  0.12500000000E+03 0.  0.
         25    1    1    2    0    0  0.38915814042E+02 -0.14779138933E+02 -0.14920279651E+03  0.19904607008E+03  0.12500000000E+03 0.  0.
</event>
<event>
 5    0  0.5583350E-005  0.2715889E+03  0.7546771E-02  0.1100374E+00
         21   -1    0    0  502  501  0.00000000000E+00  0.00000000000E+00  0.16641336945E+03  0.16641336945E+03  0.00000000000E+00 0.  1.
         21   -1    0    0  501  502 -0.00000000000E+00 -0.00000000000E+00 -0.44323696454E+03  0.44323696454E+03  0.00000000000E+00 0.  1.
         25    1    1    2    0    0  0.43594366302E+02  0.11984722872E+03 -0.77483581121E+02  0.19466004302E+03  0.12500000000E+03 0.  0.
         25    1    1    2    0    0  0.61265231291E+02 -0.10327270208E+01 -0.12194438997E+02  0.13974333413E+03  0.12500000000E+03 0.  0.
         25    1    1    2    0    0 -0.10485959759E+03 -0.11881450170E+03 -0.18714557498E+03  0.27524695685E+03  0.12500000000E+03 0.  0.
</event>
<event>
 5    0  0.5583350E-005  0.3807204E+03  0.7546771E-02  0.1050668E+00
         21   -1    0    0  502  501  0.00000000000E+00  0.00000000000E+00  0.88884726177E+03  0.88884726177E+03  0.00000000000E+00 0.  1.
         21   -1    0    0  501  502 -0.00000000000E+00 -0.00000000000E+00 -0.16307412622E+03  0.16307412622E+03  0.00000000000E+00 0.  1.
         25    1    1    2    0    0 -0.45585418925E+02  0.15177389036E+02  0.34240643390E+02  0.13822375055E+03  0.12500000000E+03 0.  0.
         25    1    1    2    0    0  0.76475970755E+02 -0.27094971375E+03  0.40234120415E+03  0.50672059958E+03  0.12500000000E+03 0.  0.
         25    1    1    2    0    0 -0.30890551830E+02  0.25577232471E+03  0.28919128801E+03  0.40697703786E+03  0.12500000000E+03 0.  0.
</event>
<event>
 5    0  0.5583350E-005  0.4064447E+03  0.7546771E-02  0.1041571E+00
         21   -1    0    0  502  501  0.00000000000E+00  0.00000000000E+00  0.19032953543E+04  0.19032953543E+04  0.00000000000E+00 0. -1.
         21   -1    0    0  501  502 -0.00000000000E+00 -0.00000000000E+00 -0.86795395251E+02  0.86795395251E+02  0.00000000000E+00 0. -1.
         25    1    1    2    0    0  0.27654967846E+03 -0.12251414479E+03  0.63920346215E+03  0.71811942346E+03  0.12500000000E+03 0.  0.
         25    1    1    2    0    0 -0.26683098862E+03  0.14212852573E+03  0.62680752864E+03  0.70704453344E+03  0.12500000000E+03 0.  0.
         25    1    1    2    0    0 -0.97186898374E+01 -0.19614380942E+02  0.55048896825E+03  0.56492679263E+03  0.12500000000E+03 0.  0.
</event>
<event>
 5    0  0.5583350E-005  0.2518508E+03  0.7546771E-02  0.1112141E+00
         21   -1    0    0  502  501  0.00000000000E+00  0.00000000000E+00  0.10042149382E+03  0.10042149382E+03  0.00000000000E+00 0.  1.
         21   -1    0    0  501  502 -0.00000000000E+00 -0.00000000000E+00 -0.63162618058E+03  0.63162618058E+03  0.00000000000E+00 0.  1.
         25    1    1    2    0    0  0.47130748319E+02  0.12437285734E+02 -0.52993148552E+02  0.14425417605E+03  0.12500000000E+03 0.  0.
         25    1    1    2    0    0  0.57503090457E+02 -0.71694145066E+02 -0.14607816094E+03  0.21309736026E+03  0.12500000000E+03 0.  0.
         25    1    1    2    0    0 -0.10463383878E+03  0.59256859332E+02 -0.33213337728E+03  0.37469613808E+03  0.12500000000E+03 0.  0.
</event>
<event>
 5    0  0.5583350E-005  0.2502371E+03  0.7546771E-02  0.1113155E+00
         21   -1    0    0  502  501  0.00000000000E+00  0.00000000000E+00  0.88879310132E+02  0.88879310132E+02  0.00000000000E+00 0. -1.
         21   -1    0    0  501  502 -0.00000000000E+00 -0.00000000000E+00 -0.70453546328E+03  0.70453546328E+03  0.00000000000E+00 0. -1.
         25    1    1    2    0    0 -0.94134413971E+02 -0.28794795114E+02 -0.33687006010E+03  0.37255451347E+03  0.12500000000E+03 0.  0.
         25    1    1    2    0    0  0.13548162844E+02  0.89428522829E+02 -0.14690586898E+03  0.21304306549E+03  0.12500000000E+03 0.  0.
         25    1    1    2    0    0  0.80586251127E+02 -0.60633727715E+02 -0.13188022407E+03  0.20781719445E+03  0.12500000000E+03 0.  0.
</event>
<event>
 5    0  0.5583350E-005  0.2433544E+03  0.7546771E-02  0.1117578E+00
         21   -1    0    0  502  501  0.00000000000E+00  0.00000000000E+00  0.11694575170E+03  0.11694575170E+03  0.00000000000E+00 0.  1.
         21   -1    0    0  501  502 -0.00000000000E+00 -0.00000000000E+00 -0.50640047213E+03  0.50640047213E+03  0.00000000000E+00 0.  1.
         25    1    1    2    0    0 -0.20475781340E+02  0.54079888056E+01 -0.29658898263E+03  0.32255004043E+03  0.12500000000E+03 0.  0.
         25    1    1    2    0    0 -0.56851950840E+02 -0.15037651040E+02 -0.34748434719E+02  0.14244552986E+03  0.12500000000E+03 0.  0.
         25    1    1    2    0    0  0.77327732179E+02  0.96296622340E+01 -0.58117303075E+02  0.15835065354E+03  0.12500000000E+03 0.  0.
</event>
<event>
 5    0  0.5583350E-005  0.2794932E+03  0.7546771E-02  0.1095966E+00
         21   -1    0    0  502  501  0.00000000000E+00  0.00000000000E+00  0.26961105825E+04  0.26961105825E+04  0.00000000000E+00 0. -1.
         21   -1    0    0  501  502 -0.00000000000E+00 -0.00000000000E+00 -0.28973760682E+02  0.28973760682E+02  0.00000000000E+00 0.  1.
         25    1    1    2    0    0 -0.13517319689E+03 -0.70834727111E+02  0.56702512338E+03  0.60035976070E+03  0.12500000000E+03 0.  0.
         25    1    1    2    0    0  0.68159781774E+02 -0.15388055932E+02  0.67794987526E+03  0.69290950454E+03  0.12500000000E+03 0.  0.
         25    1    1    2    0    0  0.67013415112E+02  0.86222783043E+02  0.14221618231E+04  0.14318150779E+04  0.12500000000E+03 0.  0.
</event>
<event>
 5    0  0.5583350E-005  0.2992199E+03  0.7546771E-02  0.1085631E+00
         21   -1    0    0  502  501  0.00000000000E+00  0.00000000000E+00  0.44771752384E+03  0.44771752384E+03  0.00000000000E+00 0.  1.
         21   -1    0    0  501  502 -0.00000000000E+00 -0.00000000000E+00 -0.19997551471E+03  0.19997551471E+03  0.00000000000E+00 0.  1.
         25    1    1    2    0    0  0.94330080135E+02  0.14581120335E+03 -0.76853007983E+01  0.21411009992E+03  0.12500000000E+03 0.  0.
         25    1    1    2    0    0 -0.21665847341E+02 -0.88089085265E+01  0.18044004048E+03  0.22075011669E+03  0.12500000000E+03 0.  0.
         25    1    1    2    0    0 -0.72664232795E+02 -0.13700229483E+03  0.74987269439E+02  0.21283282194E+03  0.12500000000E+03 0.  0.
</event>
<event>
 5    0  0.5583350E-005  0.3224464E+03  0.7546771E-02  0.1074529E+00
         21   -1    0    0  502  501  0.00000000000E+00  0.00000000000E+00  0.62898859911E+03  0.62898859911E+03  0.00000000000E+00 0.  1.
         21   -1    0    0  501  502 -0.00000000000E+00 -0.00000000000E+00 -0.16529977409E+03  0.16529977409E+03  0.00000000000E+00 0.  1.
         25    1    1    2    0    0  0.17672029554E+03  0.55024393059E+02  0.12794498328E+03  0.25739593127E+03  0.12500000000E+03 0.  0.
         25    1    1    2    0    0  0.37713559845E+01  0.76855658441E+02  0.19681295678E+03  0.24552261671E+03  0.12500000000E+03 0.  0.
         25    1    1    2    0    0 -0.18049165153E+03 -0.13188005150E+03  0.13893088496E+03  0.29136982522E+03  0.12500000000E+03 0.  0.
</event>
<event>
 5    0  0.5583350E-005  0.4461228E+03  0.7546771E-02  0.1028885E+00
         21   -1    0    0  502  501  0.00000000000E+00  0.00000000000E+00  0.15411845702E+03  0.15411845702E+03  0.00000000000E+00 0. -1.
         21   -1    0    0  501  502 -0.00000000000E+00 -0.00000000000E+00 -0.12913805671E+04  0.12913805671E+04  0.00000000000E+00 0. -1.
         25    1    1    2    0    0 -0.14708630875E+03  0.15768516036E+03 -0.81781363988E+03  0.85495212825E+03  0.12500000000E+03 0.  0.
         25    1    1    2    0    0  0.25527101111E+03 -0.16951903022E+03 -0.21172233428E+03  0.39287572788E+03  0.12500000000E+03 0.  0.
         25    1    1    2    0    0 -0.10818470236E+03  0.11833869860E+02 -0.10772613594E+03  0.19767116802E+03  0.12500000000E+03 0.  0.
</event>
<event>
 5    0  0.5583350E-005  0.2668288E+03  0.7546771E-02  0.1103108E+00
         21   -1    0    0  502  501  0.00000000000E+00  0.00000000000E+00  0.24813594980E+03  0.24813594980E+03  0.00000000000E+00 0.  1.
         21   -1    0    0  501  502 -0.00000000000E+00 -0.00000000000E+00 -0.28692977484E+03  0.28692977484E+03  0.00000000000E+00 0.  1.
         25    1    1    2    0    0  0.67111430767E+02 -0.11117402845E+03  0.81469649684E+02  0.19780271121E+03  0.12500000000E+03 0.  0.
         25    1    1    2    0    0  0.83658561460E+01  0.84765265469E+02 -0.11279351386E+03  0.18868628606E+03  0.12500000000E+03 0.  0.
         25    1    1    2    0    0 -0.75477286913E+02  0.26408762981E+02 -0.74699608744E+01  0.14857672737E+03  0.12500000000E+03 0.  0.
</event>
<event>
 5    0  0.5583350E-005  0.3549826E+03  0.7546771E-02  0.1060588E+00
         21   -1    0    0  502  501  0.00000000000E+00  0.00000000000E+00  0.18597964192E+03  0.18597964192E+03  0.00000000000E+00 0. -1.
         21   -1    0    0  501  502 -0.00000000000E+00 -0.00000000000E+00 -0.67756154596E+03  0.67756154596E+03  0.00000000000E+00 0. -1.
         25    1    1    2    0    0  0.73734697244E+02  0.27103319950E+02 -0.58120437804E+02  0.15866436531E+03  0.12500000000E+03 0.  0.
         25    1    1    2    0    0  0.62925406714E+01  0.18030713047E+03 -0.21743856019E+02  0.22056303553E+03  0.12500000000E+03 0.  0.
         25    1    1    2    0    0 -0.80027237915E+02 -0.20741045042E+03 -0.41171761022E+03  0.48431378704E+03  0.12500000000E+03 0.  0.
</event>
<event>
 5    0  0.5583350E-005  0.2561225E+03  0.7546771E-02  0.1109496E+00
         21   -1    0    0  502  501  0.00000000000E+00  0.00000000000E+00  0.68842444377E+03  0.68842444377E+03  0.00000000000E+00 0.  1.
         21   -1    0    0  501  502 -0.00000000000E+00 -0.00000000000E+00 -0.95288241217E+02  0.95288241217E+02  0.00000000000E+00 0.  1.
         25    1    1    2    0    0  0.10696264530E+02 -0.98633353570E+02  0.67838860362E+02  0.17340720714E+03  0.12500000000E+03 0.  0.
         25    1    1    2    0    0  0.15218780048E+02 -0.15930715496E+02  0.31038742085E+03  0.33533677100E+03  0.12500000000E+03 0.  0.
         25    1    1    2    0    0 -0.25915044578E+02  0.11456406907E+03  0.21490992134E+03  0.27496870685E+03  0.12500000000E+03 0.  0.
</event>
<event>
 5    0  0.5583350E-005  0.2683680E+03  0.7546771E-02  0.1102217E+00
         21   -1    0    0  502  501  0.00000000000E+00  0.00000000000E+00  0.30773813312E+03  0.30773813312E+03  0.00000000000E+00 0.  1.
         21   -1    0    0  501  502 -0.00000000000E+00 -0.00000000000E+00 -0.23403462470E+03  0.23403462470E+03  0.00000000000E+00 0.  1.
         25    1    1    2    0    0  0.46835740596E+02 -0.63999544480E+01 -0.46596998555E+02  0.14153030166E+03  0.12500000000E+03 0.  0.
         25    1    1    2    0    0 -0.83723755141E+02 -0.11643047986E+03  0.11265068981E+02  0.19057183841E+03  0.12500000000E+03 0.  0.
         25    1    1    2    0    0  0.36888014546E+02  0.12283043430E+03  0.10903543799E+03  0.20967061775E+03  0.12500000000E+03 0.  0.
</event>
<event>
 5    0  0.5583350E-005  0.2538270E+03  0.7546771E-02  0.1110910E+00
         21   -1    0    0  502  501  0.00000000000E+00  0.00000000000E+00  0.21337952995E+03  0.21337952995E+03  0.00000000000E+00 0.  1.
         21   -1    0    0  501  502 -0.00000000000E+00 -0.00000000000E+00 -0.30194157080E+03  0.30194157080E+03  0.00000000000E+00 0.  1.
         25    1    1    2    0    0  0.66599053621E+02 -0.77248775572E+02 -0.36122233266E+02  0.16532580865E+03  0.12500000000E+03 0.  0.
         25    1    1    2    0    0 -0.10999353391E+03  0.12147300587E+03 -0.39782972312E+02  0.20990939365E+03  0.12500000000E+03 0.  0.
         25    1    1    2    0    0  0.43394480290E+02 -0.44224230295E+02 -0.12656835265E+02  0.14008589845E+03  0.12500000000E+03 0.  0.
</event>
<event>
 5    0  0.5583350E-005  0.2490561E+03  0.7546771E-02  0.1113903E+00
         21   -1    0    0  502  501  0.00000000000E+00  0.00000000000E+00  0.16907618552E+03  0.16907618552E+03  0.00000000000E+00 0.  1.
         21   -1    0    0  501  502 -0.00000000000E+00 -0.00000000000E+00 -0.36686982903E+03  0.36686982903E+03  0.00000000000E+00 0.  1.
         25    1    1    2    0    0 -0.62334358110E+02 -0.40756696137E+02 -0.80973249105E+02  0.16651830996E+03  0.12500000000E+03 0.  0.
         25    1    1    2    0    0  0.27496797561E+02 -0.13582654983E+02 -0.17496313171E+03  0.21720418930E+03  0.12500000000E+03 0.  0.
         25    1    1    2    0    0  0.34837560549E+02  0.54339351120E+02  0.58142737305E+02  0.15222351529E+03  0.12500000000E+03 0.  0.
</event>
<event>
 5    0  0.5583350E-005  0.2470996E+03  0.7546771E-02  0.1115152E+00
         21   -1    0    0  502  501  0.00000000000E+00  0.00000000000E+00  0.83065992638E+03  0.83065992638E+03  0.00000000000E+00 0.  1.
         21   -1    0    0  501  502 -0.00000000000E+00 -0.00000000000E+00 -0.73505678580E+02  0.73505678580E+02  0.00000000000E+00 0.  1.
         25    1    1    2    0    0  0.32946688242E+02 -0.97437000030E+02  0.19995549205E+03  0.25726766615E+03  0.12500000000E+03 0.  0.
         25    1    1    2    0    0 -0.56206468253E+02  0.10351690418E+02  0.11699263323E+03  0.18049543152E+03  0.12500000000E+03 0.  0.
         25    1    1    2    0    0  0.23259780011E+02  0.87085309612E+02  0.44020612251E+03  0.46640250730E+03  0.12500000000E+03 0.  0.
</event>
<event>
 5    0  0.5583350E-005  0.3177376E+03  0.7546771E-02  0.1076695E+00
         21   -1    0    0  502  501  0.00000000000E+00  0.00000000000E+00  0.12465785942E+04  0.12465785942E+04  0.00000000000E+00 0.  1.
         21   -1    0    0  501  502 -0.00000000000E+00 -0.00000000000E+00 -0.80987417367E+02  0.80987417367E+02  0.00000000000E+00 0.  1.
         25    1    1    2    0    0  0.59080344086E+02 -0.11394971875E+03  0.53735538167E+03  0.56643696178E+03  0.12500000000E+03 0.  0.
         25    1    1    2    0    0  0.56738190772E+02 -0.89264300500E+02  0.26180275515E+03  0.30879284357E+03  0.12500000000E+03 0.  0.
         25    1    1    2    0    0 -0.11581853486E+03  0.20321401925E+03  0.36643303998E+03  0.45233620618E+03  0.12500000000E+03 0.  0.
</event>
<event>
 5    0  0.5583350E-005  0.2256022E+03  0.7546771E-02  0.1129774E+00
         21   -1    0    0  502  501  0.00000000000E+00  0.00000000000E+00  0.23386956318E+03  0.23386956318E+03  0.00000000000E+00 0. -1.
         21   -1    0    0  501  502 -0.00000000000E+00 -0.00000000000E+00 -0.21762718651E+03  0.21762718651E+03  0.00000000000E+00 0. -1.
         25    1    1    2    0    0 -0.85139219269E+02  0.13704114746E+02 -0.13316894287E+02  0.15244287157E+03  0.12500000000E+03 0.  0.
         25    1    1    2    0    0  0.11120221536E+03 -0.76514007047E+01  0.35035182807E+02  0.17110505740E+03  0.12500000000E+03 0.  0.
         25    1    1    2    0    0 -0.26062996091E+02 -0.60527140412E+01 -0.54759118574E+01  0.12794882072E+03  0.12500000000E+03 0.  0.
</event>
<event>
 5    0  0.5583350E-005  0.2394713E+03  0.7546771E-02  0.1120146E+00
         21   -1    0    0  502  501  0.00000000000E+00  0.00000000000E+00  0.17298661061E+03  0.17298661061E+03  0.00000000000E+00 0. -1.
         21   -1    0    0  501  502 -0.00000000000E+00 -0.00000000000E+00 -0.33150832777E+03  0.33150832777E+03  0.00000000000E+00 0. -1.
         25    1    1    2    0    0  0.17082591377E+02  0.91068832081E+02 -0.66725142408E+02  0.16930030045E+03  0.12500000000E+03 0.  0.
         25    1    1    2    0    0  0.52378834721E+02  0.23467766380E+02 -0.22840616003E+02  0.13943088655E+03  0.12500000000E+03 0.  0.
         25    1    1    2    0    0 -0.69461426098E+02 -0.11453659846E+03 -0.68955958753E+02  0.19576375137E+03  0.12500000000E+03 0.  0.
</event>
<event>
 5    0  0.5583350E-005  0.2220830E+03  0.7546771E-02  0.1132340E+00
         21   -1    0    0  502  501  0.00000000000E+00  0.00000000000E+00  0.28744955393E+03  0.28744955393E+03  0.00000000000E+00 0. -1.
         21   -1    0    0  501  502 -0.00000000000E+00 -0.00000000000E+00 -0.17158089013E+03  0.17158089013E+03  0.00000000000E+00 0. -1.
         25    1    1    2    0    0 -0.18830531249E+02  0.24656433189E+02  0.40937827836E+02  0.13514227448E+03  0.12500000000E+03 0.  0.
         25    1    1    2    0    0 -0.63824961889E+02 -0.58586529849E+02 -0.18986184263E+01  0.15210066401E+03  0.12500000000E+03 0.  0.
         25    1    1    2    0    0  0.82655493138E+02  0.33930096660E+02  0.76829454390E+02  0.17178750556E+03  0.12500000000E+03 0.  0.
</event>
<event>
 5    0  0.5598346E-005  0.3006264E+03  0.7546771E-02  0.1084928E+00
         21   -1    0    0  502  501  0.00000000000E+00  0.00000000000E+00  0.80832416176E+02  0.80832416176E+02  0.00000000000E+00 0.  1.
         21   -1    0    0  501  502 -0.00000000000E+00 -0.00000000000E+00 -0.11180690222E+04  0.11180690222E+04  0.00000000000E+00 0.  1.
         25    1    1    2    0    0 -0.13081456207E+03 -0.64964271338E+02 -0.27379958416E+03  0.33455047226E+03  0.12500000000E+03 0.  0.
         25    1    1    2    0    0 -0.33202251569E+02 -0.54210580900E+02 -0.14540374709E+03  0.20201095579E+03  0.12500000000E+03 0.  0.
         25    1    1    2    0    0  0.16401681364E+03  0.11917485224E+03 -0.61803327478E+03  0.66234001034E+03  0.12500000000E+03 0.  0.
</event>
<event>
 5    0  0.5583350E-005  0.3744064E+03  0.7546771E-02  0.1053021E+00
         21   -1    0    0  502  501  0.00000000000E+00  0.00000000000E+00  0.10266125418E+04  0.10266125418E+04  0.00000000000E+00 0. -1.
         21   -1    0    0  501  502 -0.00000000000E+00 -0.00000000000E+00 -0.13654632425E+03  0.13654632425E+03  0.00000000000E+00 0. -1.
         25    1    1    2    0    0  0.62531349559E+02 -0.48631279909E+02  0.71147058455E+02  0.16420132457E+03  0.12500000000E+03 0.  0.
         25    1    1    2    0    0  0.22927984397E+02  0.23036461075E+03  0.66907153866E+03  0.71894038015E+03  0.12500000000E+03 0.  0.
         25    1    1    2    0    0 -0.85459333956E+02 -0.18173333084E+03  0.14984762045E+03  0.28001716136E+03  0.12500000000E+03 0.  0.
</event>
<event>
 5    0  0.5583350E-005  0.4266998E+03  0.7546771E-02  0.1034908E+00
         21   -1    0    0  502  501  0.00000000000E+00  0.00000000000E+00  0.76013513333E+02  0.76013513333E+02  0.00000000000E+00 0. -1.
         21   -1    0    0  501  502 -0.00000000000E+00 -0.00000000000E+00 -0.23952676900E+04  0.23952676900E+04  0.00000000000E+00 0. -1.
         25    1    1    2    0    0  0.11858976737E+03 -0.10449073383E+03 -0.12660636200E+03  0.23798322899E+03  0.12500000000E+03 0.  0.
         25    1    1    2    0    0 -0.92509082456E+01 -0.32814450391E+02 -0.15516538960E+04  0.15570540069E+04  0.12500000000E+03 0.  0.
         25    1    1    2    0    0 -0.10933885912E+03  0.13730518422E+03 -0.64099391868E+03  0.67624396745E+03  0.12500000000E+03 0.  0.
</event>
<event>
 5    0  0.5583350E-005  0.2578987E+03  0.7546771E-02  0.1108412E+00
         21   -1    0    0  502  501  0.00000000000E+00  0.00000000000E+00  0.96178178464E+02  0.96178178464E+02  0.00000000000E+00 0. -1.
         21   -1    0    0  501  502 -0.00000000000E+00 -0.00000000000E+00 -0.69154695805E+03  0.69154695805E+03  0.00000000000E+00 0. -1.
         25    1    1    2    0    0 -0.47831006139E+02  0.73021338389E+02 -0.49365738196E+02  0.16025572413E+03  0.12500000000E+03 0.  0.
         25    1    1    2    0    0 -0.48606775971E+02  0.25088017651E+01 -0.24155022834E+03  0.27629771184E+03  0.12500000000E+03 0.  0.
         25    1    1    2    0    0  0.96437782109E+02 -0.75530140154E+02 -0.30445281305E+03  0.35117170054E+03  0.12500000000E+03 0.  0.
</event>
<event>
 5    0  0.6536790E-005  0.3113269E+03  0.7546771E-02  0.1079712E+00
         21   -1    0    0  502  501  0.00000000000E+00  0.00000000000E+00  0.16255742110E+03  0.16255742110E+03  0.00000000000E+00 0.  1.
         21   -1    0    0  501  502 -0.00000000000E+00 -0.00000000000E+00 -0.59624723392E+03  0.59624723392E+03  0.00000000000E+00 0.  1.
         25    1    1    2    0    0  0.82736775707E+02  0.95486020372E+02 -0.17750863105E+02  0.17861424154E+03  0.12500000000E+03 0.  0.
         25    1    1    2    0    0 -0.39760960181E+02 -0.19779276397E+03 -0.24615736473E+03  0.34193765462E+03  0.12500000000E+03 0.  0.
         25    1    1    2    0    0 -0.42975815526E+02  0.10230674360E+03 -0.16978158498E+03  0.23825275886E+03  0.12500000000E+03 0.  0.
</event>
<event>
 5    0  0.5583350E-005  0.3366336E+03  0.7546771E-02  0.1068239E+00
         21   -1    0    0  502  501  0.00000000000E+00  0.00000000000E+00  0.28570832555E+03  0.28570832555E+03  0.00000000000E+00 0.  1.
         21   -1    0    0  501  502 -0.00000000000E+00 -0.00000000000E+00 -0.39663588499E+03  0.39663588499E+03  0.00000000000E+00 0.  1.
         25    1    1    2    0    0 -0.16766206089E+03  0.30687106781E+02 -0.10214557914E+03  0.23475728854E+03  0.12500000000E+03 0.  0.
         25    1    1    2    0    0 -0.91884277129E+02  0.10189760591E+02 -0.17767072226E+02  0.15648393036E+03  0.12500000000E+03 0.  0.
         25    1    1    2    0    0  0.25954633802E+03 -0.40876867372E+02  0.89850919261E+01  0.29110299164E+03  0.12500000000E+03 0.  0.
</event>
<event>
 5    0  0.5583350E-005  0.2437208E+03  0.7546771E-02  0.1117339E+00
         21   -1    0    0  502  501  0.00000000000E+00  0.00000000000E+00  0.18782210576E+03  0.18782210576E+03  0.00000000000E+00 0. -1.
         21   -1    0    0  501  502 -0.00000000000E+00 -0.00000000000E+00 -0.31625587580E+03  0.31625587580E+03  0.00000000000E+00 0. -1.
         25    1    1    2    0    0 -0.20253639852E+02  0.25598074614E+02 -0.14173158969E+03  0.19177673182E+03  0.12500000000E+03 0.  0.
         25    1    1    2    0    0  0.30759363999E+02  0.47468254323E+02 -0.59916980591E+02  0.14971445557E+03  0.12500000000E+03 0.  0.
         25    1    1    2    0    0 -0.10505724148E+02 -0.73066328937E+02  0.73214800242E+02  0.16258679417E+03  0.12500000000E+03 0.  0.
</event>
<event>
 5    0  0.5583350E-005  0.5165559E+03  0.7546771E-02  0.1009546E+00
         21   -1    0    0  502  501  0.00000000000E+00  0.00000000000E+00  0.11151762573E+04  0.11151762573E+04  0.00000000000E+00 0.  1.
         21   -1    0    0  501  502 -0.00000000000E+00 -0.00000000000E+00 -0.23927156158E+03  0.23927156158E+03  0.00000000000E+00 0.  1.
         25    1    1    2    0    0  0.29026489624E+01  0.24062655917E+02  0.19542234302E+02  0.12881900365E+03  0.12500000000E+03 0.  0.
         25    1    1    2    0    0 -0.17672556858E+03 -0.25823921698E+03  0.84322382957E+03  0.90805883429E+03  0.12500000000E+03 0.  0.
         25    1    1    2    0    0  0.17382291962E+03  0.23417656106E+03  0.13138631828E+02  0.31756998092E+03  0.12500000000E+03 0.  0.
</event>
<event>
 5    0  0.6368782E-005  0.3693828E+03  0.7546771E-02  0.1054929E+00
         21   -1    0    0  502  501  0.00000000000E+00  0.00000000000E+00  0.55513705395E+03  0.55513705395E+03  0.00000000000E+00 0. -1.
         21   -1    0    0  501  502 -0.00000000000E+00 -0.00000000000E+00 -0.24578366559E+03  0.24578366559E+03  0.00000000000E+00 0. -1.
         25    1    1    2    0    0  0.12197375057E+03  0.11705103718E+03  0.71828258083E+02  0.22217749614E+03  0.12500000000E+03 0.  0.
         25    1    1    2    0    0 -0.10931297931E+03  0.13350697545E+03  0.20653598070E+03  0.29674155635E+03  0.12500000000E+03 0.  0.
         25    1    1    2    0    0 -0.12660771267E+02 -0.25055801263E+03  0.30989149579E+02  0.28200166705E+03  0.12500000000E+03 0.  0.
</event>
<event>
 5    0  0.5583350E-005  0.6933489E+03  0.7546771E-02  0.9728675E-01
         21   -1    0    0  502  501  0.00000000000E+00  0.00000000000E+00  0.29682283551E+03  0.29682283551E+03  0.00000000000E+00 0.  1.
         21   -1    0    0  501  502 -0.00000000000E+00 -0.00000000000E+00 -0.16195947143E+04  0.16195947143E+04  0.00000000000E+00 0.  1.
         25    1    1    2    0    0 -0.54263552677E+03  0.62684109423E+02 -0.17458408508E+03  0.58693033253E+03  0.12500000000E+03 0.  0.
         25    1    1    2    0    0  0.35735463662E+03  0.95611799506E+02 -0.75953033363E+03  0.85402299748E+03  0.12500000000E+03 0.  0.
         25    1    1    2    0    0  0.18528089014E+03 -0.15829590893E+03 -0.38865746012E+03  0.47546421984E+03  0.12500000000E+03 0.  0.
</event>
<event>
 5    0  0.5583350E-005  0.2676948E+03  0.7546771E-02  0.1102606E+00
         21   -1    0    0  502  501  0.00000000000E+00  0.00000000000E+00  0.28691388463E+03  0.28691388463E+03  0.00000000000E+00 0. -1.
         21   -1    0    0  501  502 -0.00000000000E+00 -0.00000000000E+00 -0.24976319456E+03  0.24976319456E+03  0.00000000000E+00 0. -1.
         25    1    1    2    0    0 -0.50496612339E+02 -0.60768316732E+02 -0.26491543805E+02  0.15023148162E+03  0.12500000000E+03 0.  0.
         25    1    1    2    0    0 -0.11379648582E+03  0.19855130370E+02  0.38422019044E+02  0.17448529432E+03  0.12500000000E+03 0.  0.
         25    1    1    2    0    0  0.16429309816E+03  0.40913186362E+02  0.25220214826E+02  0.21196030326E+03  0.12500000000E+03 0.  0.
</event>
<event>
 5    0  0.5583350E-005  0.3054758E+03  0.7546771E-02  0.1082535E+00
         21   -1    0    0  502  501  0.00000000000E+00  0.00000000000E+00  0.87529945047E+03  0.87529945047E+03  0.00000000000E+00 0.  1.
         21   -1    0    0  501  502 -0.00000000000E+00 -0.00000000000E+00 -0.10660973263E+03  0.10660973263E+03  0.00000000000E+00 0.  1.
         25    1    1    2    0    0 -0.99728251394E+02  0.13688549890E+03  0.19806206442E+03  0.28902758570E+03  0.12500000000E+03 0.  0.
         25    1    1    2    0    0  0.31260139103E+02 -0.19257912380E+03  0.41061287342E+03  0.47147836328E+03  0.12500000000E+03 0.  0.
         25    1    1    2    0    0  0.68468112291E+02  0.55693624905E+02  0.16001478000E+03  0.22140323411E+03  0.12500000000E+03 0.  0.
</event>
<event>
 5    0  0.5583350E-005  0.5155348E+03  0.7546771E-02  0.1009802E+00
         21   -1    0    0  502  501  0.00000000000E+00  0.00000000000E+00  0.25737157417E+03  0.25737157417E+03  0.00000000000E+00 0. -1.
         21   -1    0    0  501  502 -0.00000000000E+00 -0.00000000000E+00 -0.10326552746E+04  0.10326552746E+04  0.00000000000E+00 0. -1.
         25    1    1    2    0    0 -0.88375988948E+02 -0.38348509835E+03 -0.24809109204E+03  0.48171083237E+03  0.12500000000E+03 0.  0.
         25    1    1    2    0    0 -0.92244175048E+02  0.20353684301E+03 -0.62228473638E+02  0.26350259434E+03  0.12500000000E+03 0.  0.
         25    1    1    2    0    0  0.18062016400E+03  0.17994825533E+03 -0.46496413470E+03  0.54481342201E+03  0.12500000000E+03 0.  0.
</event>
<event>
 5    0  0.5583350E-005  0.2834373E+03  0.7546771E-02  0.1093826E+00
         21   -1    0    0  502  501  0.00000000000E+00  0.00000000000E+00  0.13363025738E+03  0.13363025738E+03  0.00000000000E+00 0.  1.
         21   -1    0    0  501  502 -0.00000000000E+00 -0.00000000000E+00 -0.60118660377E+03  0.60118660377E+03  0.00000000000E+00 0.  1.
         25    1    1    2    0    0 -0.76437125699E+02  0.67933942386E+02 -0.11365114766E+03  0.19748224750E+03  0.12500000000E+03 0.  0.
         25    1    1    2    0    0  0.22597042665E+02 -0.92006698386E+02  0.59025128445E+00  0.15684772004E+03  0.12500000000E+03 0.  0.
         25    1    1    2    0    0  0.53840083034E+02  0.24072756000E+02 -0.35449545002E+03  0.38048689361E+03  0.12500000000E+03 0.  0.
</event>
<event>
 5    0  0.5583350E-005  0.3095072E+03  0.7546771E-02  0.1080582E+00
         21   -1    0    0  502  501  0.00000000000E+00  0.00000000000E+00  0.88316653318E+03  0.88316653318E+03  0.00000000000E+00 0. -1.
         21   -1    0    0  501  502 -0.00000000000E+00 -0.00000000000E+00 -0.10846733784E+03  0.10846733784E+03  0.00000000000E+00 0. -1.
         25    1    1    2    0    0  0.12456767102E+03 -0.13862680629E+02  0.56859388016E+02  0.18592274896E+03  0.12500000000E+03 0.  0.
         25    1    1    2    0    0 -0.70911309239E+02  0.25890800755E+02  0.62191137574E+03  0.63882509862E+03  0.12500000000E+03 0.  0.
         25    1    1    2    0    0 -0.53656361779E+02 -0.12028120127E+02  0.95928431574E+02  0.16688602343E+03  0.12500000000E+03 0.  0.
</event>
<event>
 5    0  0.5583350E-005  0.2445870E+03  0.7546771E-02  0.1116774E+00
         21   -1    0    0  502  501  0.00000000000E+00  0.00000000000E+00  0.11947427386E+04  0.11947427386E+04  0.00000000000E+00 0. -1.
         21   -1    0    0  501  502 -0.00000000000E+00 -0.00000000000E+00 -0.50071685948E+02  0.50071685948E+02  0.00000000000E+00 0. -1.
         25    1    1    2    0    0  0.48176175983E+02 -0.21273824474E+02  0.23424781358E+03  0.27068534816E+03  0.12500000000E+03 0.  0.
         25    1    1    2    0    0  0.74852250088E+01 -0.96919180572E+02  0.32686618990E+03  0.36320223327E+03  0.12500000000E+03 0.  0.
         25    1    1    2    0    0 -0.55661400991E+02  0.11819300505E+03  0.58355704921E+03  0.61092684315E+03  0.12500000000E+03 0.  0.
</event>
<event>
 5    0  0.5583350E-005  0.3068947E+03  0.7546771E-02  0.1081844E+00
         21   -1    0    0  502  501  0.00000000000E+00  0.00000000000E+00  0.24773414528E+03  0.24773414528E+03  0.00000000000E+00 0. -1.
         21   -1    0    0  501  502 -0.00000000000E+00 -0.00000000000E+00 -0.38018308687E+03  0.38018308687E+03  0.00000000000E+00 0. -1.
         25    1    1    2    0    0 -0.92300306973E+02  0.22289309084E+02 -0.22845812854E+03  0.27718996458E+03  0.12500000000E+03 0.  0.
         25    1    1    2    0    0  0.11246635451E+03 -0.74636278416E+01  0.13678242941E+03  0.21688434621E+03  0.12500000000E+03 0.  0.
         25    1    1    2    0    0 -0.20166047534E+02 -0.14825681242E+02 -0.40773242460E+02  0.13384292136E+03  0.12500000000E+03 0.  0.
</event>
<event>
 5    0  0.6847532E-005  0.2786892E+03  0.7546771E-02  0.1096407E+00
         21   -1    0    0  502  501  0.00000000000E+00  0.00000000000E+00  0.80499415006E+02  0.80499415006E+02  0.00000000000E+00 0. -1.
         21   -1    0    0  501  502 -0.00000000000E+00 -0.00000000000E+00 -0.96482300645E+03  0.96482300645E+03  0.00000000000E+00 0. -1.
         25    1    1    2    0    0 -0.42270975009E+02  0.39141276615E+02 -0.76628762673E+02  0.15753044827E+03  0.12500000000E+03 0.  0.
         25    1    1    2    0    0 -0.75902353148E+02 -0.86933174510E+02 -0.53883247271E+03  0.56505219023E+03  0.12500000000E+03 0.  0.
         25    1    1    2    0    0  0.11817332816E+03  0.47791897895E+02 -0.26886235606E+03  0.32273978295E+03  0.12500000000E+03 0.  0.
</event>
<event>
 5    0  0.5583350E-005  0.3252090E+03  0.7546771E-02  0.1073277E+00
         21   -1    0    0  502  501  0.00000000000E+00  0.00000000000E+00  0.24075889972E+03  0.24075889972E+03  0.00000000000E+00 0.  1.
         21   -1    0    0  501  502 -0.00000000000E+00 -0.00000000000E+00 -0.43928142206E+03  0.43928142206E+03  0.00000000000E+00 0.  1.
         25    1    1    2    0    0  0.13412503440E+03  0.20424862082E+03 -0.16797924171E+03  0.32179038147E+03  0.12500000000E+03 0.  0.
         25    1    1    2    0    0 -0.58903568318E+02 -0.97368461046E+02 -0.50191085167E+02  0.17633602184E+03  0.12500000000E+03 0.  0.
         25    1    1    2    0    0 -0.75221466081E+02 -0.10688015977E+03  0.19647804533E+02  0.18191391847E+03  0.12500000000E+03 0.  0.
</event>
<event>
 5    0  0.5583350E-005  0.2597879E+03  0.7546771E-02  0.1107271E+00
         21   -1    0    0  502  501  0.00000000000E+00  0.00000000000E+00  0.18667617948E+03  0.18667617948E+03  0.00000000000E+00 0. -1.
         21   -1    0    0  501  502 -0.00000000000E+00 -0.00000000000E+00 -0.36153373788E+03  0.36153373788E+03  0.00000000000E+00 0. -1.
         25    1    1    2    0    0 -0.12656443825E+02 -0.87849436267E+02  0.53721547132E+02  0.16244603304E+03  0.12500000000E+03 0.  0.
         25    1    1    2    0    0  0.99165735926E+01  0.33208802577E+02 -0.21169380213E+03  0.24827490582E+03  0.12500000000E+03 0.  0.
         25    1    1    2    0    0  0.27398702320E+01  0.54640633690E+02 -0.16885303411E+02  0.13748897850E+03  0.12500000000E+03 0.  0.
</event>
<event>
 5    0  0.5583350E-005  0.3824561E+03  0.7546771E-02  0.1050030E+00
         21   -1    0    0  502  501  0.00000000000E+00  0.00000000000E+00  0.73909767097E+03  0.73909767097E+03  0.00000000000E+00 0.  1.
         21   -1    0    0  501  502 -0.00000000000E+00 -0.00000000000E+00 -0.19790707780E+03  0.19790707780E+03  0.00000000000E+00 0.  1.
         25    1    1    2    0    0  0.24485014458E+03 -0.39691496270E+02  0.33628343835E+03  0.43616345455E+03  0.12500000000E+03 0.  0.
         25    1    1    2    0    0 -0.23387117536E+03  0.12844958217E+03  0.87314355192E+02  0.30731713009E+03  0.12500000000E+03 0.  0.
         25    1    1    2    0    0 -0.10978969218E+02 -0.88758085898E+02  0.11759279963E+03  0.19352416413E+03  0.12500000000E+03 0.  0.
</event>
<event>
 5    0  0.5583350E-005  0.3013870E+03  0.7546771E-02  0.1084549E+00
         21   -1    0    0  502  501  0.00000000000E+00  0.00000000000E+00  0.85866265648E+02  0.85866265648E+02  0.00000000000E+00 0. -1.
         21   -1    0    0  501  502 -0.00000000000E+00 -0.00000000000E+00 -0.10578558772E+04  0.10578558772E+04  0.00000000000E+00 0. -1.
         25    1    1    2    0    0 -0.77648374735E+02  0.39506917814E+01 -0.30796265016E+03  0.34133688924E+03  0.12500000000E+03 0.  0.
         25    1    1    2    0    0  0.16338909683E+03 -0.54313031974E+02 -0.58834283197E+03  0.62563423047E+03  0.12500000000E+03 0.  0.
         25    1    1    2    0    0 -0.85740722099E+02  0.50362340193E+02 -0.75684129438E+02  0.17675102315E+03  0.12500000000E+03 0.  0.
</event>
<event>
 5    0  0.5583350E-005  0.2231084E+03  0.7546771E-02  0.1131587E+00
         21   -1    0    0  502  501  0.00000000000E+00  0.00000000000E+00  0.11252747464E+03  0.11252747464E+03  0.00000000000E+00 0. -1.
         21   -1    0    0  501  502 -0.00000000000E+00 -0.00000000000E+00 -0.44235756112E+03  0.44235756112E+03  0.00000000000E+00 0. -1.
         25    1    1    2    0    0  0.46380602207E+02  0.45334662832E+02 -0.12174567847E+02  0.14134925545E+03  0.12500000000E+03 0.  0.
         25    1    1    2    0    0 -0.15072319136E+02 -0.14408760573E+02 -0.11339962787E+03  0.17005664582E+03  0.12500000000E+03 0.  0.
         25    1    1    2    0    0 -0.31308283071E+02 -0.30925902260E+02 -0.20425589076E+03  0.24347913448E+03  0.12500000000E+03 0.  0.
</event>
<event>
 5    0  0.5583350E-005  0.3352836E+03  0.7546771E-02  0.1068823E+00
         21   -1    0    0  502  501  0.00000000000E+00  0.00000000000E+00  0.17628031204E+03  0.17628031204E+03  0.00000000000E+00 0. -1.
         21   -1    0    0  501  502 -0.00000000000E+00 -0.00000000000E+00 -0.63770656903E+03  0.63770656903E+03  0.00000000000E+00 0. -1.
         25    1    1    2    0    0  0.11867895200E+03 -0.18171222473E+03 -0.11228818612E+03  0.27447707191E+03  0.12500000000E+03 0.  0.
         25    1    1    2    0    0 -0.13542637722E+03  0.20461053425E+02 -0.81481643661E+02  0.20254188853E+03  0.12500000000E+03 0.  0.
         25    1    1    2    0    0  0.16747425226E+02  0.16125117131E+03 -0.26765642721E+03  0.33696792062E+03  0.12500000000E+03 0.  0.
</event>
<event>
 5    0  0.5583350E-005  0.3293045E+03  0.7546771E-02  0.1071445E+00
         21   -1    0    0  502  501  0.00000000000E+00  0.00000000000E+00  0.28907620007E+03  0.28907620007E+03  0.00000000000E+00 0. -1.
         21   -1    0    0  501  502 -0.00000000000E+00 -0.00000000000E+00 -0.37513105254E+03  0.37513105254E+03  0.00000000000E+00 0. -1.
         25    1    1    2    0    0  0.16461303336E+03  0.16922245920E+03 -0.15376394048E+03  0.30822401081E+03  0.12500000000E+03 0.  0.
         25    1    1    2    0    0 -0.94706054075E+02 -0.79142985361E+02  0.63337381933E+02  0.18673369476E+03  0.12500000000E+03 0.  0.
         25    1    1    2    0    0 -0.69906979283E+02 -0.90079473839E+02  0.43717060745E+01  0.16924954704E+03  0.12500000000E+03 0.  0.
</event>
<event>
 5    0  0.5583350E-005  0.3859119E+03  0.7546771E-02  0.1048770E+00
         21   -1    0    0  502  501  0.00000000000E+00  0.00000000000E+00  0.96573658032E+03  0.96573658032E+03  0.00000000000E+00 0. -1.
         21   -1    0    0  501  502 -0.00000000000E+00 -0.00000000000E+00 -0.15421179949E+03  0.15421179949E+03  0.00000000000E+00 0. -1.
         25    1    1    2    0    0  0.62345764899E+02 -0.80122793922E+02  0.46181629574E+03  0.48908685069E+03  0.12500000000E+03 0.  0.
         25    1    1    2    0    0 -0.25488628120E+02 -0.28255926355E+02  0.42555863557E+03  0.44516650801E+03  0.12500000000E+03 0.  0.
         25    1    1    2    0    0 -0.36857136778E+02  0.10837872028E+03 -0.75850150482E+02  0.18569502112E+03  0.12500000000E+03 0.  0.
</event>
<event>
 5    0  0.6456820E-005  0.2769853E+03  0.7546771E-02  0.1097347E+00
         21   -1    0    0  502  501  0.00000000000E+00  0.00000000000E+00  0.66199553853E+03  0.66199553853E+03  0.00000000000E+00 0.  1.
         21   -1    0    0  501  502 -0.00000000000E+00 -0.00000000000E+00 -0.11589334191E+03  0.11589334191E+03  0.00000000000E+00 0.  1.
         25    1    1    2    0    0  0.15424535008E+02 -0.44695561151E+02  0.10175843005E+02  0.13403043404E+03  0.12500000000E+03 0.  0.
         25    1    1    2    0    0  0.48384045031E+02 -0.12880693733E+01  0.45731294621E+03  0.47655304605E+03  0.12500000000E+03 0.  0.
         25    1    1    2    0    0 -0.63808580039E+02  0.45983630525E+02  0.78613407413E+02  0.16730540035E+03  0.12500000000E+03 0.  0.
</event>
<event>
 5    0  0.5583350E-005  0.2858811E+03  0.7546771E-02  0.1092519E+00
         21   -1    0    0  502  501  0.00000000000E+00  0.00000000000E+00  0.16054547057E+04  0.16054547057E+04  0.00000000000E+00 0.  1.
         21   -1    0    0  501  502 -0.00000000000E+00 -0.00000000000E+00 -0.50906446621E+02  0.50906446621E+02  0.00000000000E+00 0.  1.
         25    1    1    2    0    0 -0.47192595464E+02  0.14852437177E+03  0.74544200700E+03  0.77174828531E+03  0.12500000000E+03 0.  0.
         25    1    1    2    0    0  0.20090965266E+02 -0.14068617553E+03  0.26516927647E+03  0.32578519311E+03  0.12500000000E+03 0.  0.
         25    1    1    2    0    0  0.27101630198E+02 -0.78381962409E+01  0.54393697564E+03  0.55882767393E+03  0.12500000000E+03 0.  0.
</event>
<event>
 5    0  0.5583350E-005  0.3387203E+03  0.7546771E-02  0.1067342E+00
         21   -1    0    0  502  501  0.00000000000E+00  0.00000000000E+00  0.25164428746E+03  0.25164428746E+03  0.00000000000E+00 0.  1.
         21   -1    0    0  501  502 -0.00000000000E+00 -0.00000000000E+00 -0.45592699714E+03  0.45592699714E+03  0.00000000000E+00 0.  1.
         25    1    1    2    0    0  0.18313460250E+03  0.10697368246E+03  0.78085574320E+00  0.24618542018E+03  0.12500000000E+03 0.  0.
         25    1    1    2    0    0 -0.22928937827E+03 -0.59283821611E+02 -0.16400835221E+03  0.31402536536E+03  0.12500000000E+03 0.  0.
         25    1    1    2    0    0  0.46154775774E+02 -0.47689860850E+02 -0.41055213210E+02  0.14736049907E+03  0.12500000000E+03 0.  0.
</event>
<event>
 5    0  0.5583350E-005  0.3634642E+03  0.7546771E-02  0.1057221E+00
         21   -1    0    0  502  501  0.00000000000E+00  0.00000000000E+00  0.37596482077E+03  0.37596482077E+03  0.00000000000E+00 0. -1.
         21   -1    0    0  501  502 -0.00000000000E+00 -0.00000000000E+00 -0.35137912791E+03  0.35137912791E+03  0.00000000000E+00 0. -1.
         25    1    1    2    0    0  0.17983633455E+02  0.66522253925E+02 -0.90304738097E+02  0.16890401731E+03  0.12500000000E+03 0.  0.
         25    1    1    2    0    0 -0.11767866151E+03 -0.20141832472E+03  0.20088675299E+03  0.33226208997E+03  0.12500000000E+03 0.  0.
         25    1    1    2    0    0  0.99695028052E+02  0.13489607079E+03 -0.85996322036E+02  0.22617784139E+03  0.12500000000E+03 0.  0.
</event>
<event>
 5    0  0.5583350E-005  0.2994711E+03  0.7546771E-02  0.1085505E+00
         21   -1    0    0  502  501  0.00000000000E+00  0.00000000000E+00  0.77268265848E+02  0.77268265848E+02  0.00000000000E+00 0.  1.
         21   -1    0    0  501  502 -0.00000000000E+00 -0.00000000000E+00 -0.11606694692E+04  0.11606694692E+04  0.00000000000E+00 0.  1.
         25    1    1    2    0    0  0.58973678002E+02  0.66806034969E+02 -0.14768581818E+03  0.21301887686E+03  0.12500000000E+03 0.  0.
         25    1    1    2    0    0  0.51630385061E+02 -0.14346748157E+02 -0.77662960240E+03  0.78844788361E+03  0.12500000000E+03 0.  0.
         25    1    1    2    0    0 -0.11060406306E+03 -0.52459286812E+02 -0.15908578276E+03  0.23647097457E+03  0.12500000000E+03 0.  0.
</event>
<event>
 5    0  0.5583350E-005  0.5495933E+03  0.7546771E-02  0.1001588E+00
         21   -1    0    0  502  501  0.00000000000E+00  0.00000000000E+00  0.20432694238E+03  0.20432694238E+03  0.00000000000E+00 0.  1.
         21   -1    0    0  501  502 -0.00000000000E+00 -0.00000000000E+00 -0.14782819297E+04  0.14782819297E+04  0.00000000000E+00 0.  1.
         25    1    1    2    0    0 -0.22092311363E+03  0.13402153128E+03 -0.93851745108E+03  0.98143201444E+03  0.12500000000E+03 0.  0.
         25    1    1    2    0    0  0.29780339631E+03 -0.25051006644E+03 -0.30804973811E+03  0.51182203683E+03  0.12500000000E+03 0.  0.
         25    1    1    2    0    0 -0.76880282677E+02  0.11648853515E+03 -0.27387798176E+02  0.18935482084E+03  0.12500000000E+03 0.  0.
</event>
<event>
 5    0  0.5583350E-005  0.2678733E+03  0.7546771E-02  0.1102503E+00
         21   -1    0    0  502  501  0.00000000000E+00  0.00000000000E+00  0.28955148491E+03  0.28955148491E+03  0.00000000000E+00 0. -1.
         21   -1    0    0  501  502 -0.00000000000E+00 -0.00000000000E+00 -0.24781817504E+03  0.24781817504E+03  0.00000000000E+00 0. -1.
         25    1    1    2    0    0  0.56887727551E+02 -0.67207429764E+02 -0.89513104243E+02  0.17717406129E+03  0.12500000000E+03 0.  0.
         25    1    1    2    0    0 -0.99355891247E+02  0.92434052887E+02  0.19734330036E+02  0.18555347219E+03  0.12500000000E+03 0.  0.
         25    1    1    2    0    0  0.42468163697E+02 -0.25226623123E+02  0.11151208408E+03  0.17464212647E+03  0.12500000000E+03 0.  0.
</event>
<event>
 5    0  0.5583350E-005  0.3020430E+03  0.7546771E-02  0.1084224E+00
         21   -1    0    0  502  501  0.00000000000E+00  0.00000000000E+00  0.84768947227E+02  0.84768947227E+02  0.00000000000E+00 0. -1.
         21   -1    0    0  501  502 -0.00000000000E+00 -0.00000000000E+00 -0.10762189276E+04  0.10762189276E+04  0.00000000000E+00 0. -1.
         25    1    1    2    0    0 -0.32741319871E+02 -0.45713122690E+02 -0.17589023727E+03  0.22298892165E+03  0.12500000000E+03 0.  0.
         25    1    1    2    0    0 -0.16377383653E+01  0.11201960951E+03 -0.76600917607E+03  0.78418501192E+03  0.12500000000E+03 0.  0.
         25    1    1    2    0    0  0.34379058236E+02 -0.66306486818E+02 -0.49550567079E+02  0.15381394130E+03  0.12500000000E+03 0.  0.
</event>
<event>
 5    0  0.5583350E-005  0.2861697E+03  0.7546771E-02  0.1092366E+00
         21   -1    0    0  502  501  0.00000000000E+00  0.00000000000E+00  0.29740307977E+04  0.29740307977E+04  0.00000000000E+00 0.  1.
         21   -1    0    0  501  502 -0.00000000000E+00 -0.00000000000E+00 -0.27536057643E+02  0.27536057643E+02  0.00000000000E+00 0.  1.
         25    1    1    2    0    0 -0.57693429570E+02 -0.90721301146E+01  0.17608412545E+04  0.17662383075E+04  0.12500000000E+03 0.  0.
         25    1    1    2    0    0  0.12771339625E+03  0.54016419042E+02  0.79948323364E+03  0.82099142868E+03  0.12500000000E+03 0.  0.
         25    1    1    2    0    0 -0.70019966676E+02 -0.44944288928E+02  0.38617025198E+03  0.41433711921E+03  0.12500000000E+03 0.  0.
</event>
<event>
 5    0  0.5583350E-005  0.3724467E+03  0.7546771E-02  0.1053761E+00
         21   -1    0    0  502  501  0.00000000000E+00  0.00000000000E+00  0.15279998943E+03  0.15279998943E+03  0.00000000000E+00 0.  1.
         21   -1    0    0  501  502 -0.00000000000E+00 -0.00000000000E+00 -0.90783067429E+03  0.90783067429E+03  0.00000000000E+00 0.  1.
         25    1    1    2    0    0 -0.34981487194E+02  0.26917352046E+02 -0.37836162618E+03  0.40091241993E+03  0.12500000000E+03 0.  0.
         25    1    1    2    0    0  0.16835342181E+03  0.47954513572E+02  0.20566600138E+02  0.21607983490E+03  0.12500000000E+03 0.  0.
         25    1    1    2    0    0 -0.13337193462E+03 -0.74871865618E+02 -0.39723565882E+03  0.44363840889E+03  0.12500000000E+03 0.  0.
</event>
<event>
 5    0  0.6514317E-005  0.4434930E+03  0.7546771E-02  0.1029680E+00
         21   -1    0    0  502  501  0.00000000000E+00  0.00000000000E+00  0.57460861710E+03  0.57460861710E+03  0.00000000000E+00 0.  1.
         21   -1    0    0  501  502 -0.00000000000E+00 -0.00000000000E+00 -0.34229565709E+03  0.34229565709E+03  0.00000000000E+00 0.  1.
         25    1    1    2    0    0 -0.16622579640E+03 -0.11303767300E+03  0.27732908405E+03  0.36461617047E+03  0.12500000000E+03 0.  0.
         25    1    1    2    0    0  0.27340306236E+03  0.19996558443E+03 -0.14187066752E+01  0.36105744999E+03  0.12500000000E+03 0.  0.
         25    1    1    2    0    0 -0.10717726597E+03 -0.86927911428E+02 -0.43597417375E+02  0.19123065373E+03  0.12500000000E+03 0.  0.
</event>
<event>
 5    0  0.5583350E-005  0.2805086E+03  0.7546771E-02  0.1095411E+00
         21   -1    0    0  502  501  0.00000000000E+00  0.00000000000E+00  0.11524997012E+04  0.11524997012E+04  0.00000000000E+00 0. -1.
         21   -1    0    0  501  502 -0.00000000000E+00 -0.00000000000E+00 -0.68273420867E+02  0.68273420867E+02  0.00000000000E+00 0. -1.
         25    1    1    2    0    0  0.78972970622E+02  0.96173910944E+02  0.34776147080E+03  0.38993485585E+03  0.12500000000E+03 0.  0.
         25    1    1    2    0    0 -0.46941198610E+02 -0.93230968303E+02  0.12337288606E+03  0.20430702042E+03  0.12500000000E+03 0.  0.
         25    1    1    2    0    0 -0.32031772012E+02 -0.29429426410E+01  0.61309192349E+03  0.62653124581E+03  0.12500000000E+03 0.  0.
</event>
<event>
 5    0  0.5583350E-005  0.2548797E+03  0.7546771E-02  0.1110259E+00
         21   -1    0    0  502  501  0.00000000000E+00  0.00000000000E+00  0.10981087551E+03  0.10981087551E+03  0.00000000000E+00 0.  1.
         21   -1    0    0  501  502 -0.00000000000E+00 -0.00000000000E+00 -0.59159578157E+03  0.59159578157E+03  0.00000000000E+00 0.  1.
         25    1    1    2    0    0 -0.36203010211E+02 -0.44153639640E+02 -0.11507674325E+03  0.17924245780E+03  0.12500000000E+03 0.  0.
         25    1    1    2    0    0 -0.33891009579E+02 -0.93825055024E+02 -0.23248399047E+03  0.28217999097E+03  0.12500000000E+03 0.  0.
         25    1    1    2    0    0  0.70094019790E+02  0.13797869466E+03 -0.13422417234E+03  0.23998420830E+03  0.12500000000E+03 0.  0.
</event>
<event>
 5    0  0.5583350E-005  0.3143722E+03  0.7546771E-02  0.1078269E+00
         21   -1    0    0  502  501  0.00000000000E+00  0.00000000000E+00  0.45815725989E+02  0.45815725989E+02  0.00000000000E+00 0. -1.
         21   -1    0    0  501  502 -0.00000000000E+00 -0.00000000000E+00 -0.21571169538E+04  0.21571169538E+04  0.00000000000E+00 0. -1.
         25    1    1    2    0    0 -0.12833850941E+03  0.17628524154E+02 -0.28363212102E+03  0.33593707437E+03  0.12500000000E+03 0.  0.
         25    1    1    2    0    0  0.15698441147E+03  0.42788751908E+02 -0.67095048963E+03  0.70162279201E+03  0.12500000000E+03 0.  0.
         25    1    1    2    0    0 -0.28645902059E+02 -0.60417276062E+02 -0.11567186172E+04  0.11653728134E+04  0.12500000000E+03 0.  0.
</event>
<event>
 5    0  0.5583350E-005  0.4084506E+03  0.7546771E-02  0.1040892E+00
         21   -1    0    0  502  501  0.00000000000E+00  0.00000000000E+00  0.13470039665E+04  0.13470039665E+04  0.00000000000E+00 0. -1.
         21   -1    0    0  501  502 -0.00000000000E+00 -0.00000000000E+00 -0.12385406066E+03  0.12385406066E+03  0.00000000000E+00 0. -1.
         25    1    1    2    0    0 -0.17817312166E+03 -0.17769389126E+03  0.12600114618E+03  0.30793192286E+03  0.12500000000E+03 0.  0.
         25    1    1    2    0    0  0.61113989239E+02  0.80149331972E+01  0.31470832004E+03  0.34418815427E+03  0.12500000000E+03 0.  0.
         25    1    1    2    0    0  0.11705913242E+03  0.16967895807E+03  0.78244043964E+03  0.81873795006E+03  0.12500000000E+03 0.  0.
</event>
<event>
 5    0  0.5583350E-005  0.7700906E+03  0.7546771E-02  0.9604348E-01
         21   -1    0    0  502  501  0.00000000000E+00  0.00000000000E+00  0.12500406148E+04  0.12500406148E+04  0.00000000000E+00 0. -1.
         21   -1    0    0  501  502 -0.00000000000E+00 -0.00000000000E+00 -0.47441621265E+03  0.47441621265E+03  0.00000000000E+00 0. -1.
         25    1    1    2    0    0  0.28424787258E+03 -0.42768160023E+03  0.20510911042E+03  0.56692429073E+03  0.12500000000E+03 0.  0.
         25    1    1    2    0    0 -0.23494321735E+03  0.66842659160E+03  0.32944919727E+03  0.79129905681E+03  0.12500000000E+03 0.  0.
         25    1    1    2    0    0 -0.49304655231E+02 -0.24074499137E+03  0.24106609444E+03  0.36623347988E+03  0.12500000000E+03 0.  0.
</event>
<event>
 5    0  0.5583350E-005  0.5227356E+03  0.7546771E-02  0.1008009E+00
         21   -1    0    0  502  501  0.00000000000E+00  0.00000000000E+00  0.77420736909E+03  0.77420736909E+03  0.00000000000E+00 0. -1.
         21   -1    0    0  501  502 -0.00000000000E+00 -0.00000000000E+00 -0.35294484504E+03  0.35294484504E+03  0.00000000000E+00 0. -1.
         25    1    1    2    0    0  0.22122948334E+03 -0.15851296332E+03 -0.11101042443E+03  0.31940124949E+03  0.12500000000E+03 0.  0.
         25    1    1    2    0    0  0.13023800666E+03  0.14891046672E+03  0.19085814730E+03  0.30197367083E+03  0.12500000000E+03 0.  0.
         25    1    1    2    0    0 -0.35146749001E+03  0.96024966004E+01  0.34141480118E+03  0.50577729381E+03  0.12500000000E+03 0.  0.
</event>
<event>
 5    0  0.5583350E-005  0.2573356E+03  0.7546771E-02  0.1108755E+00
         21   -1    0    0  502  501  0.00000000000E+00  0.00000000000E+00  0.40981853839E+03  0.40981853839E+03  0.00000000000E+00 0.  1.
         21   -1    0    0  501  502 -0.00000000000E+00 -0.00000000000E+00 -0.16158762411E+03  0.16158762411E+03  0.00000000000E+00 0.  1.
         25    1    1    2    0    0 -0.12647054321E+03 -0.20189600040E+02  0.83192221922E+02  0.19735339885E+03  0.12500000000E+03 0.  0.
         25    1    1    2    0    0  0.82985361849E+02 -0.78103911850E+02  0.64946522964E+02  0.18119007195E+03  0.12500000000E+03 0.  0.
         25    1    1    2    0    0  0.43485181361E+02  0.98293511890E+02  0.10009216939E+03  0.19286269170E+03  0.12500000000E+03 0.  0.
</event>
<event>
 5    0  0.5583350E-005  0.2904434E+03  0.7546771E-02  0.1090118E+00
         21   -1    0    0  502  501  0.00000000000E+00  0.00000000000E+00  0.10311012409E+04  0.10311012409E+04  0.00000000000E+00 0. -1.
         21   -1    0    0  501  502 -0.00000000000E+00 -0.00000000000E+00 -0.81812873275E+02  0.81812873275E+02  0.00000000000E+00 0. -1.
         25    1    1    2    0    0  0.34417503567E+00 -0.42860068650E+01  0.55381183840E+02  0.13678656306E+03  0.12500000000E+03 0.  0.
         25    1    1    2    0    0 -0.86820683640E+02  0.76380317903E+02  0.20265672895E+03  0.26470083842E+03  0.12500000000E+03 0.  0.
         25    1    1    2    0    0  0.86476508605E+02 -0.72094311038E+02  0.69125045488E+03  0.71142671274E+03  0.12500000000E+03 0.  0.
</event>
<event>
 5    0  0.5583350E-005  0.2782699E+03  0.7546771E-02  0.1096638E+00
         21   -1    0    0  502  501  0.00000000000E+00  0.00000000000E+00  0.17701881577E+03  0.17701881577E+03  0.00000000000E+00 0.  1.
         21   -1    0    0  501  502 -0.00000000000E+00 -0.00000000000E+00 -0.43743441480E+03  0.43743441480E+03  0.00000000000E+00 0.  1.
         25    1    1    2    0    0  0.85591196048E+02  0.16215258477E+03 -0.64808035055E+02  0.23118043818E+03  0.12500000000E+03 0.  0.
         25    1    1    2    0    0 -0.78515451333E+02 -0.39961685925E+02 -0.71752401292E+02  0.16892311722E+03  0.12500000000E+03 0.  0.
         25    1    1    2    0    0 -0.70757447151E+01 -0.12219089885E+03 -0.12385516268E+03  0.21434967517E+03  0.12500000000E+03 0.  0.
</event>
<event>
 5    0  0.5583350E-005  0.4006035E+03  0.7546771E-02  0.1043571E+00
         21   -1    0    0  502  501  0.00000000000E+00  0.00000000000E+00  0.55336604720E+02  0.55336604720E+02  0.00000000000E+00 0. -1.
         21   -1    0    0  501  502 -0.00000000000E+00 -0.00000000000E+00 -0.29001264049E+04  0.29001264049E+04  0.00000000000E+00 0. -1.
         25    1    1    2    0    0  0.46737861062E+02  0.72921068130E+02 -0.22071010993E+03  0.26802959251E+03  0.12500000000E+03 0.  0.
         25    1    1    2    0    0  0.20900269270E+03  0.77912824742E+02 -0.10448068323E+04  0.10756388105E+04  0.12500000000E+03 0.  0.
         25    1    1    2    0    0 -0.25574055376E+03 -0.15083389287E+03 -0.15792728580E+04  0.16117946066E+04  0.12500000000E+03 0.  0.
</event>
<event>
 5    0  0.5583350E-005  0.3221462E+03  0.7546771E-02  0.1074666E+00
         21   -1    0    0  502  501  0.00000000000E+00  0.00000000000E+00  0.32643820111E+03  0.32643820111E+03  0.00000000000E+00 0.  1.
         21   -1    0    0  501  502 -0.00000000000E+00 -0.00000000000E+00 -0.31791058753E+03  0.31791058753E+03  0.00000000000E+00 0.  1.
         25    1    1    2    0    0 -0.14131990561E+03  0.64133312136E+02  0.45875615278E+02  0.20448464374E+03  0.12500000000E+03 0.  0.
         25    1    1    2    0    0  0.17725331064E+03 -0.58615214670E+02 -0.14797496798E+03  0.26902801094E+03  0.12500000000E+03 0.  0.
         25    1    1    2    0    0 -0.35933405029E+02 -0.55180974659E+01  0.11062696628E+03  0.17083613396E+03  0.12500000000E+03 0.  0.
</event>
<event>
 5    0  0.5583350E-005  0.2845826E+03  0.7546771E-02  0.1093212E+00
         21   -1    0    0  502  501  0.00000000000E+00  0.00000000000E+00  0.14841461926E+03  0.14841461926E+03  0.00000000000E+00 0.  1.
         21   -1    0    0  501  502 -0.00000000000E+00 -0.00000000000E+00 -0.54568245470E+03  0.54568245470E+03  0.00000000000E+00 0.  1.
         25    1    1    2    0    0 -0.18575988424E+03  0.23791145983E+02 -0.16766152791E+03  0.28072787742E+03  0.12500000000E+03 0.  0.
         25    1    1    2    0    0  0.22219644012E+02 -0.44248426131E+02 -0.66796522064E+02  0.15012798258E+03  0.12500000000E+03 0.  0.
         25    1    1    2    0    0  0.16354024022E+03  0.20457280148E+02 -0.16280978547E+03  0.26324121396E+03  0.12500000000E+03 0.  0.
</event>
<event>
 5    0  0.5583350E-005  0.2339996E+03  0.7546771E-02  0.1123856E+00
         21   -1    0    0  502  501  0.00000000000E+00  0.00000000000E+00  0.18438807624E+04  0.18438807624E+04  0.00000000000E+00 0. -1.
         21   -1    0    0  501  502 -0.00000000000E+00 -0.00000000000E+00 -0.29695950520E+02  0.29695950520E+02  0.00000000000E+00 0. -1.
         25    1    1    2    0    0 -0.47656821186E+02  0.66173161025E+02  0.63701410117E+03  0.65426449158E+03  0.12500000000E+03 0.  0.
         25    1    1    2    0    0 -0.61512862432E+02 -0.59609109533E+02  0.54181431012E+03  0.56260538998E+03  0.12500000000E+03 0.  0.
         25    1    1    2    0    0  0.10916968362E+03 -0.65640514921E+01  0.63535640061E+03  0.65670683139E+03  0.12500000000E+03 0.  0.
</event>
<event>
 5    0  0.5583350E-005  0.4318655E+03  0.7546771E-02  0.1033272E+00
         21   -1    0    0  502  501  0.00000000000E+00  0.00000000000E+00  0.30225321353E+03  0.30225321353E+03  0.00000000000E+00 0. -1.
         21   -1    0    0  501  502 -0.00000000000E+00 -0.00000000000E+00 -0.61705804411E+03  0.61705804411E+03  0.00000000000E+00 0. -1.
         25    1    1    2    0    0 -0.76362958079E+02 -0.52857221108E+02  0.49821440396E+02  0.16350034591E+03  0.12500000000E+03 0.  0.
         25    1    1    2    0    0 -0.73947383595E+02 -0.23970426923E+03 -0.51852005701E+02  0.28502628426E+03  0.12500000000E+03 0.  0.
         25    1    1    2    0    0  0.15031034167E+03  0.29256149034E+03 -0.31277426527E+03  0.47078462746E+03  0.12500000000E+03 0.  0.
</event>
<event>
 5    0  0.5583350E-005  0.2483724E+03  0.7546771E-02  0.1114338E+00
         21   -1    0    0  502  501  0.00000000000E+00  0.00000000000E+00  0.11408645745E+03  0.11408645745E+03  0.00000000000E+00 0. -1.
         21   -1    0    0  501  502 -0.00000000000E+00 -0.00000000000E+00 -0.54072005176E+03  0.54072005176E+03  0.00000000000E+00 0. -1.
         25    1    1    2    0    0  0.29406679689E+02  0.16523832724E+02  0.16909414226E+02  0.13057074001E+03  0.12500000000E+03 0.  0.
         25    1    1    2    0    0 -0.54781625906E+02  0.34716380003E+02 -0.24839302632E+03  0.28553519766E+03  0.12500000000E+03 0.  0.
         25    1    1    2    0    0  0.25374946217E+02 -0.51240212727E+02 -0.19514998222E+03  0.23870057155E+03  0.12500000000E+03 0.  0.
</event>
<event>
 5    0  0.5583350E-005  0.3192855E+03  0.7546771E-02  0.1075979E+00
         21   -1    0    0  502  501  0.00000000000E+00  0.00000000000E+00  0.11364588519E+04  0.11364588519E+04  0.00000000000E+00 0.  1.
         21   -1    0    0  501  502 -0.00000000000E+00 -0.00000000000E+00 -0.89702546594E+02  0.89702546594E+02  0.00000000000E+00 0.  1.
         25    1    1    2    0    0  0.86739529551E+02  0.11765106302E+03  0.27176978193E+03  0.33294043460E+03  0.12500000000E+03 0.  0.
         25    1    1    2    0    0 -0.30828943227E+02 -0.19106226757E+03  0.66246479413E+03  0.70138421517E+03  0.12500000000E+03 0.  0.
         25    1    1    2    0    0 -0.55910586323E+02  0.73411204542E+02  0.11252172927E+03  0.19183674876E+03  0.12500000000E+03 0.  0.
</event>
<event>
 5    0  0.5583350E-005  0.5700600E+03  0.7546771E-02  0.9969546E-01
         21   -1    0    0  502  501  0.00000000000E+00  0.00000000000E+00  0.13399825778E+03  0.13399825778E+03  0.00000000000E+00 0.  1.
         21   -1    0    0  501  502 -0.00000000000E+00 -0.00000000000E+00 -0.24251692621E+04  0.24251692621E+04  0.00000000000E+00 0.  1.
         25    1    1    2    0    0  0.46738103612E+02  0.37569836323E+03 -0.81162245893E+03  0.90426197880E+03  0.12500000000E+03 0.  0.
         25    1    1    2    0    0  0.22730012073E+03 -0.35064761871E+03 -0.94567788485E+03  0.10414176680E+04  0.12500000000E+03 0.  0.
         25    1    1    2    0    0 -0.27403822434E+03 -0.25050744520E+02 -0.53387066058E+03  0.61348787309E+03  0.12500000000E+03 0.  0.
</event>
<event>
 5    0  0.5583350E-005  0.3862949E+03  0.7546771E-02  0.1048631E+00
         21   -1    0    0  502  501  0.00000000000E+00  0.00000000000E+00  0.40051030409E+04  0.40051030409E+04  0.00000000000E+00 0.  1.
         21   -1    0    0  501  502 -0.00000000000E+00 -0.00000000000E+00 -0.37258408783E+02  0.37258408783E+02  0.00000000000E+00 0.  1.
         25    1    1    2    0    0  0.19342772883E+03  0.93194559178E+02  0.24673433060E+04  0.24798200543E+04  0.12500000000E+03 0.  0.
         25    1    1    2    0    0  0.20128781286E+02 -0.11457777272E+03  0.41047277305E+03  0.44457410097E+03  0.12500000000E+03 0.  0.
         25    1    1    2    0    0 -0.21355651012E+03  0.21383213541E+02  0.10900285531E+04  0.11179672945E+04  0.12500000000E+03 0.  0.
</event>
<event>
 5    0  0.5583350E-005  0.3033958E+03  0.7546771E-02  0.1083555E+00
         21   -1    0    0  502  501  0.00000000000E+00  0.00000000000E+00  0.23679611222E+03  0.23679611222E+03  0.00000000000E+00 0.  1.
         21   -1    0    0  501  502 -0.00000000000E+00 -0.00000000000E+00 -0.38872696352E+03  0.38872696352E+03  0.00000000000E+00 0.  1.
         25    1    1    2    0    0  0.72312059355E+02 -0.30274903183E+02 -0.14874123192E+03  0.20951028080E+03  0.12500000000E+03 0.  0.
         25    1    1    2    0    0  0.76802599604E+02  0.80415948437E+02  0.94975932191E+02  0.19238189043E+03  0.12500000000E+03 0.  0.
         25    1    1    2    0    0 -0.14911465896E+03 -0.50141045254E+02 -0.98165551572E+02  0.22363090451E+03  0.12500000000E+03 0.  0.
</event>
<event>
 5    0  0.5583350E-005  0.3352779E+03  0.7546771E-02  0.1068825E+00
         21   -1    0    0  502  501  0.00000000000E+00  0.00000000000E+00  0.24482571128E+03  0.24482571128E+03  0.00000000000E+00 0.  1.
         21   -1    0    0  501  502 -0.00000000000E+00 -0.00000000000E+00 -0.45914805895E+03  0.45914805895E+03  0.00000000000E+00 0.  1.
         25    1    1    2    0    0 -0.43761096104E+02  0.52983100868E+02  0.12807918707E+03  0.19170686130E+03  0.12500000000E+03 0.  0.
         25    1    1    2    0    0 -0.46851545479E+02 -0.65773419316E+02 -0.32364402056E+03  0.35621855938E+03  0.12500000000E+03 0.  0.
         25    1    1    2    0    0  0.90612641583E+02  0.12790318447E+02 -0.18757514182E+02  0.15604834956E+03  0.12500000000E+03 0.  0.
</event>
<event>
 5    0  0.5583350E-005  0.3587430E+03  0.7546771E-02  0.1059083E+00
         21   -1    0    0  502  501  0.00000000000E+00  0.00000000000E+00  0.32089364271E+03  0.32089364271E+03  0.00000000000E+00 0. -1.
         21   -1    0    0  501  502 -0.00000000000E+00 -0.00000000000E+00 -0.40105657566E+03  0.40105657566E+03  0.00000000000E+00 0. -1.
         25    1    1    2    0    0  0.37378594924E+02  0.40613483931E+02 -0.16901701116E+02  0.13768544562E+03  0.12500000000E+03 0.  0.
         25    1    1    2    0    0 -0.15166392518E+03  0.11898982019E+03  0.14523525770E+03  0.27180655546E+03  0.12500000000E+03 0.  0.
         25    1    1    2    0    0  0.11428533026E+03 -0.15960330413E+03 -0.20849648953E+03  0.31245821728E+03  0.12500000000E+03 0.  0.
</event>
<event>
 5    0  0.5583350E-005  0.5039703E+03  0.7546771E-02  0.1012748E+00
         21   -1    0    0  502  501  0.00000000000E+00  0.00000000000E+00  0.31030055373E+04  0.31030055373E+04  0.00000000000E+00 0. -1.
         21   -1    0    0  501  502 -0.00000000000E+00 -0.00000000000E+00 -0.81851628579E+02  0.81851628579E+02  0.00000000000E+00 0. -1.
         25    1    1    2    0    0 -0.16342054700E+03 -0.10886093161E+03  0.49636001944E+03  0.54822919159E+03  0.12500000000E+03 0.  0.
         25    1    1    2    0    0  0.23578212951E+03  0.21337889867E+01  0.28801706330E+03  0.39265327504E+03  0.12500000000E+03 0.  0.
         25    1    1    2    0    0 -0.72361582504E+02  0.10672714263E+03  0.22367768260E+04  0.22439746993E+04  0.12500000000E+03 0.  0.
</event>
<event>
 5    0  0.5583350E-005  0.2682919E+03  0.7546771E-02  0.1102261E+00
         21   -1    0    0  502  501  0.00000000000E+00  0.00000000000E+00  0.95586957833E+03  0.95586957833E+03  0.00000000000E+00 0.  1.
         21   -1    0    0  501  502 -0.00000000000E+00 -0.00000000000E+00 -0.75303736102E+02  0.75303736102E+02  0.00000000000E+00 0.  1.
         25    1    1    2    0    0  0.79315710153E+02 -0.15574219887E+03  0.26406462481E+03  0.34044344679E+03  0.12500000000E+03 0.  0.
         25    1    1    2    0    0 -0.34279437059E+02  0.49299846299E+02  0.32143154364E+03  0.35006969577E+03  0.12500000000E+03 0.  0.
         25    1    1    2    0    0 -0.45036273095E+02  0.10644235257E+03  0.29506967378E+03  0.34066017188E+03  0.12500000000E+03 0.  0.
</event>
<event>
 5    0  0.5583350E-005  0.3701487E+03  0.7546771E-02  0.1054636E+00
         21   -1    0    0  502  501  0.00000000000E+00  0.00000000000E+00  0.43218976317E+02  0.43218976317E+02  0.00000000000E+00 0.  1.
         21   -1    0    0  501  502 -0.00000000000E+00 -0.00000000000E+00 -0.31701363239E+04  0.31701363239E+04  0.00000000000E+00 0.  1.
         25    1    1    2    0    0  0.12677467307E+03 -0.11945392429E+03 -0.34474722785E+03  0.40597624176E+03  0.12500000000E+03 0.  0.
         25    1    1    2    0    0 -0.15432930323E+02  0.12430344079E+03 -0.19813030720E+04  0.19891898813E+04  0.12500000000E+03 0.  0.
         25    1    1    2    0    0 -0.11134174274E+03 -0.48495165071E+01 -0.80086704769E+03  0.81818917713E+03  0.12500000000E+03 0.  0.
</event>
<event>
 5    0  0.5583350E-005  0.4211430E+03  0.7546771E-02  0.1036695E+00
         21   -1    0    0  502  501  0.00000000000E+00  0.00000000000E+00  0.22248708753E+03  0.22248708753E+03  0.00000000000E+00 0.  1.
         21   -1    0    0  501  502 -0.00000000000E+00 -0.00000000000E+00 -0.79717632310E+03  0.79717632310E+03  0.00000000000E+00 0.  1.
         25    1    1    2    0    0 -0.13943933472E+03 -0.38202941851E+02 -0.13742309645E+03  0.23539944833E+03  0.12500000000E+03 0.  0.
         25    1    1    2    0    0  0.91844511172E+02 -0.18394114415E+03  0.37289372455E+02  0.24348563827E+03  0.12500000000E+03 0.  0.
         25    1    1    2    0    0  0.47594823553E+02  0.22214408600E+03 -0.47455551157E+03  0.54077832403E+03  0.12500000000E+03 0.  0.
</event>
<event>
 5    0  0.5583350E-005  0.2530471E+03  0.7546771E-02  0.1111394E+00
         21   -1    0    0  502  501  0.00000000000E+00  0.00000000000E+00  0.93205784728E+02  0.93205784728E+02  0.00000000000E+00 0.  1.
         21   -1    0    0  501  502 -0.00000000000E+00 -0.00000000000E+00 -0.68700475780E+03  0.68700475780E+03  0.00000000000E+00 0.  1.
         25    1    1    2    0    0 -0.18762873563E+02 -0.12248908804E+02 -0.28966377986E+03  0.31627865333E+03  0.12500000000E+03 0.  0.
         25    1    1    2    0    0  0.10826140896E+03  0.50178487481E+02 -0.82370606667E+02  0.19143753582E+03  0.12500000000E+03 0.  0.
         25    1    1    2    0    0 -0.89498535402E+02 -0.37929578677E+02 -0.22176458655E+03  0.27249435338E+03  0.12500000000E+03 0.  0.
</event>
<event>
 5    0  0.5695726E-005  0.3415751E+03  0.7546771E-02  0.1066127E+00
         21   -1    0    0  502  501  0.00000000000E+00  0.00000000000E+00  0.20094275124E+03  0.20094275124E+03  0.00000000000E+00 0.  1.
         21   -1    0    0  501  502 -0.00000000000E+00 -0.00000000000E+00 -0.58063086070E+03  0.58063086070E+03  0.00000000000E+00 0.  1.
         25    1    1    2    0    0  0.45287861734E+02  0.20145454126E+03 -0.30420855224E+03  0.38833331800E+03  0.12500000000E+03 0.  0.
         25    1    1    2    0    0  0.10814881584E+02 -0.11890341894E+03  0.60656946974E+02  0.18319183911E+03  0.12500000000E+03 0.  0.
         25    1    1    2    0    0 -0.56102743318E+02 -0.82551122319E+02 -0.13613650419E+03  0.21004845483E+03  0.12500000000E+03 0.  0.
</event>
<event>
 5    0  0.5583350E-005  0.2924183E+03  0.7546771E-02  0.1089093E+00
         21   -1    0    0  502  501  0.00000000000E+00  0.00000000000E+00  0.53618500516E+03  0.53618500516E+03  0.00000000000E+00 0. -1.
         21   -1    0    0  501  502 -0.00000000000E+00 -0.00000000000E+00 -0.15947563641E+03  0.15947563641E+03  0.00000000000E+00 0. -1.
         25    1    1    2    0    0  0.33634485362E+02 -0.11160736936E+03  0.19667146690E+03  0.26056122005E+03  0.12500000000E+03 0.  0.
         25    1    1    2    0    0  0.11657827022E+03  0.10251735580E+03  0.74214832709E+02  0.21268084709E+03  0.12500000000E+03 0.  0.
         25    1    1    2    0    0 -0.15021275558E+03  0.90900135634E+01  0.10582306915E+03  0.22241857443E+03  0.12500000000E+03 0.  0.
</event>
