<event>
 6    0  0.5563122E+002  0.1377558E+03  0.7546771E-02  0.1216381E+00
         21   -1    0    0  503  501  0.00000000000E+00  0.00000000000E+00  0.72663171809E+03  0.72663171809E+03  0.00000000000E+00 0.  1.
         21   -1    0    0  504  502 -0.00000000000E+00 -0.00000000000E+00 -0.12533042726E+03  0.12533042726E+03  0.00000000000E+00 0. -1.
         21    1    1    2  503  506  0.10950505841E+03 -0.36012787691E+02  0.34630013973E+03  0.36498228104E+03  0.00000000000E+00 0.  1.
         21    1    1    2  504  501  0.12931816407E+02  0.39312471052E+02 -0.44066954080E+02  0.60453276981E+02  0.00000000000E+00 0. -1.
         21    1    1    2  505  502  0.51083668174E+01  0.12107072134E+03  0.84941809014E+02  0.14798420826E+03  0.00000000000E+00 0. -1.
         21    1    1    2  506  505 -0.12754524163E+03 -0.12437040470E+03  0.21412629617E+03  0.27854237907E+03  0.00000000000E+00 0. -1.
<scales pt_clust_3="115.39652" pt_clust_4="41.38481" pt_clust_5="14000.00000" pt_clust_6="137.75577"></scales>
<clustering>
<clus scale="   41.385">  2  4  1 -1</clus>
<clus scale="  115.397">  1  3  2 -1</clus>
<clus scale="  137.756">  1  6  2 -1</clus>
<clus scale="  115.397">  1  3  2 -1</clus>
</clustering>
</event>
<event>
 6    0  0.5563122E+002  0.1132218E+03  0.7546771E-02  0.1254717E+00
         21   -1    0    0  505  501  0.00000000000E+00  0.00000000000E+00  0.97450933802E+03  0.97450933802E+03  0.00000000000E+00 0. -1.
         21   -1    0    0  504  502 -0.00000000000E+00 -0.00000000000E+00 -0.16516810760E+03  0.16516810760E+03  0.00000000000E+00 0. -1.
         21    1    1    2  503  501  0.35178511194E+02 -0.21478441150E+02  0.24471569842E+03  0.24816249543E+03  0.00000000000E+00 0. -1.
         21    1    1    2  504  506  0.17322642646E+02 -0.11023267116E+03 -0.12774369996E+03  0.16961653404E+03  0.00000000000E+00 0. -1.
         21    1    1    2  505  502 -0.43048882536E+02 -0.13236365768E+02  0.30278065752E+03  0.30611196356E+03  0.00000000000E+00 0. -1.
         21    1    1    2  506  503 -0.94522713044E+01  0.14494747808E+03  0.38958857444E+03  0.41578645260E+03  0.00000000000E+00 0. -1.
<scales pt_clust_3="41.21712" pt_clust_4="113.22183" pt_clust_5="36.00991" pt_clust_6="14000.00000"></scales>
<clustering>
<clus scale="   41.217">  1  3  2 -1</clus>
<clus scale="   36.010">  1  5  2 -1</clus>
<clus scale="  113.222">  2  4  1 -1</clus>
<clus scale="   41.217">  1  3  2 -1</clus>
</clustering>
</event>
<event>
 6    0  0.5563122E+002  0.8553196E+02  0.7546771E-02  0.1314047E+00
         21   -1    0    0  506  501  0.00000000000E+00  0.00000000000E+00  0.14403966402E+03  0.14403966402E+03  0.00000000000E+00 0. -1.
         21   -1    0    0  505  502 -0.00000000000E+00 -0.00000000000E+00 -0.95782157632E+03  0.95782157632E+03  0.00000000000E+00 0.  1.
         21    1    1    2  503  502  0.26851803789E+02 -0.64922063285E+02  0.21641051519E+02  0.73513459848E+02  0.00000000000E+00 0.  1.
         21    1    1    2  504  503  0.70727276310E+02 -0.19876519346E+02  0.37193461205E+02  0.82345474629E+02  0.00000000000E+00 0. -1.
         21    1    1    2  505  501 -0.35857080647E+02  0.78400070060E+02 -0.87936753876E+03  0.88358336870E+03  0.00000000000E+00 0.  1.
         21    1    1    2  506  504 -0.61721999451E+02  0.63985125711E+01  0.67511137391E+01  0.62418937159E+02  0.00000000000E+00 0.  1.
<scales pt_clust_3="14000.00000" pt_clust_4="40.48565" pt_clust_5="85.53196" pt_clust_6="62.05277"></scales>
<clustering>
<clus scale="   62.053">  1  6  2 -1</clus>
<clus scale="   40.486">  1  4  2 -1</clus>
<clus scale="   85.532">  2  5  1 -1</clus>
<clus scale="   62.053">  1  3  2 -1</clus>
</clustering>
</event>
<event>
 6    0  0.5563122E+002  0.2869883E+03  0.7546771E-02  0.1091932E+00
         21   -1    0    0  504  501  0.00000000000E+00  0.00000000000E+00  0.20964814378E+03  0.20964814378E+03  0.00000000000E+00 0. -1.
         21   -1    0    0  506  502 -0.00000000000E+00 -0.00000000000E+00 -0.56056047289E+03  0.56056047289E+03  0.00000000000E+00 0. -1.
         21    1    1    2  503  501  0.39740546193E+02  0.13460314411E+03 -0.10589387602E+03  0.17581476159E+03  0.00000000000E+00 0. -1.
         21    1    1    2  504  505  0.73674824205E+02 -0.22280689588E+03 -0.17373046750E+02  0.23531407805E+03  0.00000000000E+00 0. -1.
         21    1    1    2  505  502 -0.13592208083E+02 -0.79487364689E+02 -0.86321485351E+02  0.11812869295E+03  0.00000000000E+00 0. -1.
         21    1    1    2  506  503 -0.99823162315E+02  0.16769111646E+03 -0.14132392099E+03  0.24095108408E+03  0.00000000000E+00 0. -1.
<scales pt_clust_3="109.12427" pt_clust_4="254.51310" pt_clust_5="80.64111" pt_clust_6="109.12427"></scales>
<clustering>
<clus scale="   80.641">  2  5  1 -1</clus>
<clus scale="  109.124">  3  6 -1 -1</clus>
<clus scale="  254.513">  1  4  2 -1</clus>
<clus scale="  254.513">  1  3  2 -1</clus>
</clustering>
</event>
<event>
 6    0  0.5563122E+002  0.1042501E+03  0.7546771E-02  0.1271604E+00
         21   -1    0    0  504  501  0.00000000000E+00  0.00000000000E+00  0.15999248263E+03  0.15999248263E+03  0.00000000000E+00 0.  1.
         21   -1    0    0  506  502 -0.00000000000E+00 -0.00000000000E+00 -0.30295769393E+03  0.30295769393E+03  0.00000000000E+00 0.  1.
         21    1    1    2  503  502  0.85897076833E+02 -0.16371304449E+02  0.85057142143E+02  0.12198788812E+03  0.00000000000E+00 0.  1.
         21    1    1    2  504  503  0.26576874468E+02  0.40243144518E+02  0.27118218339E+02  0.55328461961E+02  0.00000000000E+00 0.  1.
         21    1    1    2  505  501 -0.73815321300E+02 -0.13014230764E+02 -0.21949669310E+03  0.23194152311E+03  0.00000000000E+00 0.  1.
         21    1    1    2  506  505 -0.38658630000E+02 -0.10857609304E+02 -0.35643878682E+02  0.53692303367E+02  0.00000000000E+00 0.  1.
<scales pt_clust_3="104.25007" pt_clust_4="46.59090" pt_clust_5="14000.00000" pt_clust_6="40.15442"></scales>
<clustering>
<clus scale="   40.154">  2  6  1 -1</clus>
<clus scale="   46.591">  1  4  2 -1</clus>
<clus scale="  104.250">  1  3  2 -1</clus>
<clus scale="   46.591">  1  3  2 -1</clus>
</clustering>
</event>
<event>
 6    0  0.5563122E+002  0.1622872E+03  0.7546771E-02  0.1186138E+00
         21   -1    0    0  506  501  0.00000000000E+00  0.00000000000E+00  0.12022252265E+04  0.12022252265E+04  0.00000000000E+00 0. -1.
         21   -1    0    0  504  502 -0.00000000000E+00 -0.00000000000E+00 -0.15387972008E+03  0.15387972008E+03  0.00000000000E+00 0.  1.
         21    1    1    2  503  505 -0.19172485314E+03 -0.61993480220E+02  0.42523321638E+02  0.20593650426E+03  0.00000000000E+00 0.  1.
         21    1    1    2  504  501  0.13103237546E+03  0.16589779013E+02  0.34056733621E+02  0.13639855311E+03  0.00000000000E+00 0.  1.
         21    1    1    2  505  502  0.10973480578E+02  0.37218471947E+02 -0.18546536259E+01  0.38846771682E+02  0.00000000000E+00 0. -1.
         21    1    1    2  506  503  0.49718997106E+02  0.81852292599E+01  0.97362010476E+03  0.97492311750E+03  0.00000000000E+00 0. -1.
<scales pt_clust_3="162.28723" pt_clust_4="14000.00000" pt_clust_5="38.80247" pt_clust_6="50.47088"></scales>
<clustering>
<clus scale="   38.802">  2  5  1 -1</clus>
<clus scale="   50.471">  1  6  2 -1</clus>
<clus scale="  162.287">  1  3  2 -1</clus>
<clus scale="   50.471">  1  3  2 -1</clus>
</clustering>
</event>
<event>
 6    0  0.5563122E+002  0.1094225E+03  0.7546771E-02  0.1261643E+00
         21   -1    0    0  506  501  0.00000000000E+00  0.00000000000E+00  0.38362310001E+02  0.38362310001E+02  0.00000000000E+00 0. -1.
         21   -1    0    0  503  502 -0.00000000000E+00 -0.00000000000E+00 -0.28666941876E+04  0.28666941876E+04  0.00000000000E+00 0.  1.
         21    1    1    2  503  504 -0.17118885569E+02 -0.27774202750E+02 -0.44349491958E+03  0.44469338456E+03  0.00000000000E+00 0.  1.
         21    1    1    2  504  505 -0.96448083283E+02  0.34710661055E+02 -0.22530019576E+04  0.22553325439E+04  0.00000000000E+00 0.  1.
         21    1    1    2  505  501  0.62884905957E+02  0.21053363797E+02 -0.60873260276E+01  0.66594377109E+02  0.00000000000E+00 0. -1.
         21    1    1    2  506  502  0.50682062895E+02 -0.27989822102E+02 -0.12574767441E+03  0.13843619201E+03  0.00000000000E+00 0.  1.
<scales pt_clust_3="32.62610" pt_clust_4="14000.00000" pt_clust_5="109.42245" pt_clust_6="57.83967"></scales>
<clustering>
<clus scale="   32.626">  2  3  1 -1</clus>
<clus scale="   57.840">  1  6  2 -1</clus>
<clus scale="  109.422">  1  5  2 -1</clus>
<clus scale="   57.840">  1  3  2 -1</clus>
</clustering>
</event>
<event>
 6    0  0.5563122E+002  0.1023399E+03  0.7546771E-02  0.1275451E+00
         21   -1    0    0  503  501  0.00000000000E+00  0.00000000000E+00  0.31475541651E+03  0.31475541651E+03  0.00000000000E+00 0. -1.
         21   -1    0    0  504  502 -0.00000000000E+00 -0.00000000000E+00 -0.30526256319E+03  0.30526256319E+03  0.00000000000E+00 0.  1.
         21    1    1    2  503  505 -0.88563641918E+01  0.13431586726E+03  0.11525975944E+03  0.17721173644E+03  0.00000000000E+00 0.  1.
         21    1    1    2  504  506 -0.20745098343E+02 -0.33465971835E+02  0.65992206187E+01  0.39923427820E+02  0.00000000000E+00 0. -1.
         21    1    1    2  505  502  0.29836565186E+02 -0.12519750875E+02 -0.24302405681E+03  0.24516862966E+03  0.00000000000E+00 0.  1.
         21    1    1    2  506  501 -0.23510265161E+00 -0.88330144547E+02  0.13065793006E+03  0.15771418578E+03  0.00000000000E+00 0. -1.
<scales pt_clust_3="14000.00000" pt_clust_4="38.97526" pt_clust_5="32.35684" pt_clust_6="102.33988"></scales>
<clustering>
<clus scale="   32.357">  2  5  1 -1</clus>
<clus scale="   38.975">  2  4  1 -1</clus>
<clus scale="  102.340">  1  6  2 -1</clus>
<clus scale="  102.340">  1  3  2 -1</clus>
</clustering>
</event>
<event>
 6    0  0.5563122E+002  0.1961212E+03  0.7546771E-02  0.1153053E+00
         21   -1    0    0  504  501  0.00000000000E+00  0.00000000000E+00  0.40200345531E+03  0.40200345531E+03  0.00000000000E+00 0.  1.
         21   -1    0    0  501  502 -0.00000000000E+00 -0.00000000000E+00 -0.14338669302E+03  0.14338669302E+03  0.00000000000E+00 0.  1.
         21    1    1    2  503  506  0.17895711346E+03  0.92898124885E+02  0.43565085941E+02  0.20628530432E+03  0.00000000000E+00 0.  1.
         21    1    1    2  504  505 -0.58641853470E+02 -0.54524498596E+02  0.66035365812E+02  0.10379044977E+03  0.00000000000E+00 0.  1.
         21    1    1    2  505  503 -0.88879457145E+02 -0.61952183431E+02  0.16115459182E+03  0.19418659428E+03  0.00000000000E+00 0.  1.
         21    1    1    2  506  502 -0.31435802849E+02  0.23578557142E+02 -0.12138281277E+02  0.41127799966E+02  0.00000000000E+00 0.  1.
<scales pt_clust_3="191.35784" pt_clust_4="36.93420" pt_clust_5="36.93420" pt_clust_6="39.29578"></scales>
<clustering>
<clus scale="   36.934">  4  5 -1 -1</clus>
<clus scale="   39.296">  2  6  1 -1</clus>
<clus scale="  191.358">  2  3  1 -1</clus>
<clus scale="  196.121">  1  3  2 -1</clus>
</clustering>
</event>
<event>
 6    0  0.5563122E+002  0.1131892E+03  0.7546771E-02  0.1254775E+00
         21   -1    0    0  504  501  0.00000000000E+00  0.00000000000E+00  0.20568795096E+03  0.20568795096E+03  0.00000000000E+00 0.  1.
         21   -1    0    0  506  502 -0.00000000000E+00 -0.00000000000E+00 -0.17072193783E+03  0.17072193783E+03  0.00000000000E+00 0.  1.
         21    1    1    2  503  502 -0.61466041439E+02 -0.74220205273E+02  0.76360605348E+02  0.12295387416E+03  0.00000000000E+00 0.  1.
         21    1    1    2  504  503 -0.38251031747E+01 -0.52331565732E+02  0.17844113873E+02  0.55422347353E+02  0.00000000000E+00 0. -1.
         21    1    1    2  505  501  0.42184289140E+01  0.53674660212E+02  0.34955540333E+02  0.64192321125E+02  0.00000000000E+00 0.  1.
         21    1    1    2  506  505  0.61072715699E+02  0.72877110793E+02 -0.94194246429E+02  0.13384134616E+03  0.00000000000E+00 0.  1.
<scales pt_clust_3="38.09473" pt_clust_4="38.09473" pt_clust_5="53.84017" pt_clust_6="100.73000"></scales>
<clustering>
<clus scale="   38.095">  3  4 -1 -1</clus>
<clus scale="   53.840">  1  5  2 -1</clus>
<clus scale="  100.730">  2  6  1 -1</clus>
<clus scale="   53.840">  1  3  2 -1</clus>
</clustering>
</event>
<event>
 6    0  0.5563122E+002  0.8068964E+02  0.7546771E-02  0.1327106E+00
         21   -1    0    0  504  501  0.00000000000E+00  0.00000000000E+00  0.14380337386E+03  0.14380337386E+03  0.00000000000E+00 0. -1.
         21   -1    0    0  503  502 -0.00000000000E+00 -0.00000000000E+00 -0.21140181615E+03  0.21140181615E+03  0.00000000000E+00 0. -1.
         21    1    1    2  503  506  0.36863887140E+02 -0.30342424002E+02 -0.29599464767E+02  0.56175948447E+02  0.00000000000E+00 0. -1.
         21    1    1    2  504  505  0.84244372131E+02  0.53130273721E+02 -0.79059297868E+01  0.99912181176E+02  0.00000000000E+00 0. -1.
         21    1    1    2  505  502 -0.76078979895E+02 -0.11078773540E+02 -0.93133255717E+02  0.12076652568E+03  0.00000000000E+00 0. -1.
         21    1    1    2  506  501 -0.45029279376E+02 -0.11709076180E+02  0.63040207986E+02  0.78350534708E+02  0.00000000000E+00 0. -1.
<scales pt_clust_3="43.32259" pt_clust_4="80.68964" pt_clust_5="14000.00000" pt_clust_6="46.52675"></scales>
<clustering>
<clus scale="   46.527">  1  6  2 -1</clus>
<clus scale="   43.323">  1  3  2 -1</clus>
<clus scale="   80.690">  1  4  2 -1</clus>
<clus scale="   46.527">  1  3  2 -1</clus>
</clustering>
</event>
<event>
 6    0  0.5563122E+002  0.1269058E+03  0.7546771E-02  0.1232121E+00
         21   -1    0    0  506  501  0.00000000000E+00  0.00000000000E+00  0.52762206384E+03  0.52762206384E+03  0.00000000000E+00 0.  1.
         21   -1    0    0  504  502 -0.00000000000E+00 -0.00000000000E+00 -0.61193026060E+03  0.61193026060E+03  0.00000000000E+00 0. -1.
         21    1    1    2  503  501 -0.50686622542E+02 -0.16057631939E+02  0.23026792376E+03  0.23632667637E+03  0.00000000000E+00 0.  1.
         21    1    1    2  504  505  0.11868744420E+03 -0.10310533879E+02 -0.58984250496E+03  0.60175343553E+03  0.00000000000E+00 0. -1.
         21    1    1    2  505  503 -0.76368534135E+02 -0.17354497668E+02  0.16939751718E+03  0.18662489229E+03  0.00000000000E+00 0.  1.
         21    1    1    2  506  502  0.83677124800E+01  0.43722663487E+02  0.10586886725E+03  0.11484732025E+03  0.00000000000E+00 0.  1.
<scales pt_clust_3="35.87952" pt_clust_4="119.20110" pt_clust_5="35.87952" pt_clust_6="44.51618"></scales>
<clustering>
<clus scale="   35.880">  3  5 -1 -1</clus>
<clus scale="   44.516">  1  6  2 -1</clus>
<clus scale="  119.201">  2  4  1 -1</clus>
<clus scale="   44.516">  1  3  2 -1</clus>
</clustering>
</event>
<event>
 6    0  0.5563122E+002  0.1032196E+03  0.7546771E-02  0.1273668E+00
         21   -1    0    0  506  501  0.00000000000E+00  0.00000000000E+00  0.49436594653E+02  0.49436594653E+02  0.00000000000E+00 0.  1.
         21   -1    0    0  505  502 -0.00000000000E+00 -0.00000000000E+00 -0.53278296012E+03  0.53278296012E+03  0.00000000000E+00 0.  1.
         21    1    1    2  503  501 -0.31684449554E+02 -0.27090405222E+02 -0.46297631760E+02  0.62299800202E+02  0.00000000000E+00 0.  1.
         21    1    1    2  504  502  0.65873297144E+02  0.62246805201E+01 -0.25514048494E+03  0.26358054742E+03  0.00000000000E+00 0.  1.
         21    1    1    2  505  503 -0.10503955964E+03  0.14061024152E+02 -0.13262490147E+03  0.16976567963E+03  0.00000000000E+00 0.  1.
         21    1    1    2  506  504  0.70850712046E+02  0.68047005495E+01 -0.49283347297E+02  0.86573527523E+02  0.00000000000E+00 0.  1.
<scales pt_clust_3="34.22547" pt_clust_4="66.16674" pt_clust_5="34.22547" pt_clust_6="87.61503"></scales>
<clustering>
<clus scale="   34.225">  3  5 -1 -1</clus>
<clus scale="   66.167">  2  4  1 -1</clus>
<clus scale="   87.615">  1  6  2 -1</clus>
<clus scale="   87.615">  1  3  2 -1</clus>
</clustering>
</event>
<event>
 6    0  0.5563122E+002  0.1516012E+03  0.7546771E-02  0.1198519E+00
         21   -1    0    0  502  501  0.00000000000E+00  0.00000000000E+00  0.16240316926E+04  0.16240316926E+04  0.00000000000E+00 0. -1.
         21   -1    0    0  504  502 -0.00000000000E+00 -0.00000000000E+00 -0.20267991124E+03  0.20267991124E+03  0.00000000000E+00 0.  1.
         21    1    1    2  503  501  0.30837681095E+02  0.20022128888E+02  0.13395008058E+04  0.13400053198E+04  0.00000000000E+00 0. -1.
         21    1    1    2  504  506  0.10997428076E+02  0.13723623276E+03 -0.14599437837E+03  0.20067158623E+03  0.00000000000E+00 0.  1.
         21    1    1    2  505  503 -0.20897347622E+02 -0.31921688148E+02  0.94134414629E+02  0.10157254220E+03  0.00000000000E+00 0.  1.
         21    1    1    2  506  505 -0.20937761550E+02 -0.12533667350E+03  0.13371093929E+03  0.18446215565E+03  0.00000000000E+00 0. -1.
<scales pt_clust_3="36.76749" pt_clust_4="139.86048" pt_clust_5="32.05372" pt_clust_6="32.05372"></scales>
<clustering>
<clus scale="   32.054">  5  6 -1 -1</clus>
<clus scale="   36.767">  1  3  2 -1</clus>
<clus scale="  139.860">  2  4  1 -1</clus>
<clus scale="   36.767">  1  3  2 -1</clus>
</clustering>
</event>
<event>
 6    0  0.5563122E+002  0.7371689E+02  0.7546771E-02  0.1347891E+00
         21   -1    0    0  505  501  0.00000000000E+00  0.00000000000E+00  0.64232668639E+03  0.64232668639E+03  0.00000000000E+00 0.  1.
         21   -1    0    0  504  502 -0.00000000000E+00 -0.00000000000E+00 -0.56374724583E+02  0.56374724583E+02  0.00000000000E+00 0.  1.
         21    1    1    2  503  506  0.66826289011E+02  0.38274840722E+02  0.13300933612E+03  0.15369515227E+03  0.00000000000E+00 0.  1.
         21    1    1    2  504  503 -0.51907839633E+02 -0.72673738136E+01 -0.70903882863E+01  0.52891512964E+02  0.00000000000E+00 0.  1.
         21    1    1    2  505  502 -0.64839940730E+02 -0.38581869232E+02  0.84829497078E+02  0.11352894839E+03  0.00000000000E+00 0.  1.
         21    1    1    2  506  501  0.49921491352E+02  0.75744023233E+01  0.37520351689E+03  0.37858579735E+03  0.00000000000E+00 0.  1.
<scales pt_clust_3="14000.00000" pt_clust_4="48.05807" pt_clust_5="73.71689" pt_clust_6="50.49284"></scales>
<clustering>
<clus scale="   50.493">  1  6  2 -1</clus>
<clus scale="   48.058">  2  4  1 -1</clus>
<clus scale="   73.717">  1  5  2 -1</clus>
<clus scale="   50.493">  1  3  2 -1</clus>
</clustering>
</event>
<event>
 6    0  0.5563122E+002  0.3647858E+03  0.7546771E-02  0.1056705E+00
         21   -1    0    0  505  501  0.00000000000E+00  0.00000000000E+00  0.39842093557E+03  0.39842093557E+03  0.00000000000E+00 0. -1.
         21   -1    0    0  503  502 -0.00000000000E+00 -0.00000000000E+00 -0.54538673578E+03  0.54538673578E+03  0.00000000000E+00 0. -1.
         21    1    1    2  503  506  0.24223331273E+03 -0.27552371172E+03 -0.17883580758E+03  0.40813299253E+03  0.00000000000E+00 0. -1.
         21    1    1    2  504  502 -0.50501689144E+02  0.32943491533E+01 -0.33899673095E+02  0.60913554967E+02  0.00000000000E+00 0. -1.
         21    1    1    2  505  504  0.61765141405E+02 -0.21039010216E+02  0.57593518124E+02  0.87032097375E+02  0.00000000000E+00 0.  1.
         21    1    1    2  506  501 -0.25349676500E+03  0.29326837279E+03  0.81761623350E+01  0.38772902647E+03  0.00000000000E+00 0. -1.
<scales pt_clust_3="14000.00000" pt_clust_4="50.60902" pt_clust_5="63.80686" pt_clust_6="364.78582"></scales>
<clustering>
<clus scale="   50.609">  2  4  1 -1</clus>
<clus scale="   63.807">  1  5  2 -1</clus>
<clus scale="  364.786">  1  6  2 -1</clus>
<clus scale="   63.807">  1  3  2 -1</clus>
</clustering>
</event>
<event>
 6    0  0.5563122E+002  0.1351262E+03  0.7546771E-02  0.1220042E+00
         21   -1    0    0  506  501  0.00000000000E+00  0.00000000000E+00  0.12005200904E+04  0.12005200904E+04  0.00000000000E+00 0. -1.
         21   -1    0    0  504  502 -0.00000000000E+00 -0.00000000000E+00 -0.75147930304E+02  0.75147930304E+02  0.00000000000E+00 0.  1.
         21    1    1    2  503  502 -0.13128060366E+03  0.17607227849E+02  0.32362767230E+01  0.13249560316E+03  0.00000000000E+00 0.  1.
         21    1    1    2  504  505  0.46358691112E+02  0.65010676450E+01  0.16373461087E+03  0.17029508190E+03  0.00000000000E+00 0. -1.
         21    1    1    2  505  501  0.46821090485E+02  0.57471959122E+02  0.34258263471E+03  0.35051120126E+03  0.00000000000E+00 0. -1.
         21    1    1    2  506  503  0.38100822061E+02 -0.81580254615E+02  0.61581863775E+03  0.62236613435E+03  0.00000000000E+00 0. -1.
<scales pt_clust_3="127.09079" pt_clust_4="36.47681" pt_clust_5="36.47681" pt_clust_6="90.03894"></scales>
<clustering>
<clus scale="   36.477">  4  5 -1 -1</clus>
<clus scale="   90.039">  1  6  2 -1</clus>
<clus scale="  127.091">  2  3  1 -1</clus>
<clus scale="   90.039">  1  3  2 -1</clus>
</clustering>
</event>
<event>
 6    0  0.5563122E+002  0.9232580E+02  0.7546771E-02  0.1297315E+00
         21   -1    0    0  506  501  0.00000000000E+00  0.00000000000E+00  0.58794486428E+03  0.58794486428E+03  0.00000000000E+00 0.  1.
         21   -1    0    0  505  502 -0.00000000000E+00 -0.00000000000E+00 -0.21066444037E+03  0.21066444037E+03  0.00000000000E+00 0.  1.
         21    1    1    2  503  501  0.31406903887E+02 -0.75261180969E+02  0.52470887991E+03  0.53100851935E+03  0.00000000000E+00 0.  1.
         21    1    1    2  504  502 -0.23949778989E+02  0.64931297770E+02 -0.10017822229E+03  0.12175935925E+03  0.00000000000E+00 0.  1.
         21    1    1    2  505  503 -0.25121363154E+02 -0.44618984653E+02  0.21966135404E+02  0.55717571580E+02  0.00000000000E+00 0.  1.
         21    1    1    2  506  504  0.17664238257E+02  0.54948867852E+02 -0.69216369107E+02  0.90123854466E+02  0.00000000000E+00 0. -1.
<scales pt_clust_3="82.06611" pt_clust_4="38.62876" pt_clust_5="51.20485" pt_clust_6="38.62876"></scales>
<clustering>
<clus scale="   38.629">  4  6 -1 -1</clus>
<clus scale="   51.205">  2  5  1 -1</clus>
<clus scale="   82.066">  1  3  2 -1</clus>
<clus scale="   82.066">  1  3  2 -1</clus>
</clustering>
</event>
<event>
 6    0  0.5563122E+002  0.1088297E+03  0.7546771E-02  0.1262753E+00
         21   -1    0    0  505  501  0.00000000000E+00  0.00000000000E+00  0.48971715004E+02  0.48971715004E+02  0.00000000000E+00 0. -1.
         21   -1    0    0  503  502 -0.00000000000E+00 -0.00000000000E+00 -0.66932497021E+03  0.66932497021E+03  0.00000000000E+00 0. -1.
         21    1    1    2  503  506  0.39429628630E+02  0.53235463343E+00 -0.17210817938E+03  0.17656784653E+03  0.00000000000E+00 0.  1.
         21    1    1    2  504  501  0.29362110959E+02  0.17346716790E+02  0.33526511878E+01  0.34267804326E+02  0.00000000000E+00 0. -1.
         21    1    1    2  505  502 -0.13625905749E+03  0.39864206897E+02 -0.29657311234E+03  0.32880282345E+03  0.00000000000E+00 0. -1.
         21    1    1    2  506  504  0.67467317902E+02 -0.57743278320E+02 -0.15502461467E+03  0.17865821092E+03  0.00000000000E+00 0. -1.
<scales pt_clust_3="41.63993" pt_clust_4="34.10340" pt_clust_5="108.82971" pt_clust_6="14000.00000"></scales>
<clustering>
<clus scale="   34.103">  1  4  2 -1</clus>
<clus scale="   41.640">  2  3  1 -1</clus>
<clus scale="  108.830">  2  5  1 -1</clus>
<clus scale="   34.103">  1  3  2 -1</clus>
</clustering>
</event>
<event>
 6    0  0.5563122E+002  0.1986598E+03  0.7546771E-02  0.1150875E+00
         21   -1    0    0  504  501  0.00000000000E+00  0.00000000000E+00  0.20690617422E+03  0.20690617422E+03  0.00000000000E+00 0.  1.
         21   -1    0    0  506  502 -0.00000000000E+00 -0.00000000000E+00 -0.83299858099E+03  0.83299858099E+03  0.00000000000E+00 0.  1.
         21    1    1    2  503  502  0.47823951855E+02  0.14287403783E+02 -0.47774861091E+02  0.69091950545E+02  0.00000000000E+00 0. -1.
         21    1    1    2  504  503  0.76120987609E+02  0.19014564440E+03  0.10984391738E+03  0.23241225661E+03  0.00000000000E+00 0.  1.
         21    1    1    2  505  501 -0.13306075467E+03 -0.10966892880E+03 -0.43475438041E+03  0.46770055555E+03  0.00000000000E+00 0.  1.
         21    1    1    2  506  505  0.91158152060E+01 -0.94764119380E+02 -0.25340708264E+03  0.27069999250E+03  0.00000000000E+00 0.  1.
<scales pt_clust_3="49.91253" pt_clust_4="14000.00000" pt_clust_5="198.65979" pt_clust_6="93.42026"></scales>
<clustering>
<clus scale="   49.913">  2  3  1 -1</clus>
<clus scale="   93.420">  2  6  1 -1</clus>
<clus scale="  198.660">  2  5  1 -1</clus>
<clus scale="  198.660">  1  3  2 -1</clus>
</clustering>
</event>
<event>
 6    0  0.5563122E+002  0.7920927E+02  0.7546771E-02  0.1331311E+00
         21   -1    0    0  503  501  0.00000000000E+00  0.00000000000E+00  0.10417409661E+04  0.10417409661E+04  0.00000000000E+00 0.  1.
         21   -1    0    0  504  502 -0.00000000000E+00 -0.00000000000E+00 -0.36560041944E+03  0.36560041944E+03  0.00000000000E+00 0. -1.
         21    1    1    2  503  506  0.44699543255E+02 -0.34731276018E+02  0.10131260251E+04  0.10147061907E+04  0.00000000000E+00 0.  1.
         21    1    1    2  504  501  0.27917947250E+02  0.87575783336E+02 -0.15913865662E+03  0.18377715210E+03  0.00000000000E+00 0. -1.
         21    1    1    2  505  502 -0.36144944045E+02  0.58862903470E+01 -0.37542762435E+02  0.52445823526E+02  0.00000000000E+00 0. -1.
         21    1    1    2  506  505 -0.36472546460E+02 -0.58730797665E+02 -0.14030405938E+03  0.15641221921E+03  0.00000000000E+00 0. -1.
<scales pt_clust_3="56.52741" pt_clust_4="79.20927" pt_clust_5="36.62111" pt_clust_6="14000.00000"></scales>
<clustering>
<clus scale="   36.621">  2  5  1 -1</clus>
<clus scale="   56.527">  1  3  2 -1</clus>
<clus scale="   79.209">  1  4  2 -1</clus>
<clus scale="   56.527">  1  3  2 -1</clus>
</clustering>
</event>
<event>
 6    0  0.5563122E+002  0.1271800E+03  0.7546771E-02  0.1231701E+00
         21   -1    0    0  503  501  0.00000000000E+00  0.00000000000E+00  0.16546966538E+04  0.16546966538E+04  0.00000000000E+00 0. -1.
         21   -1    0    0  505  502 -0.00000000000E+00 -0.00000000000E+00 -0.21380334457E+02  0.21380334457E+02  0.00000000000E+00 0. -1.
         21    1    1    2  503  502  0.63055352297E+01 -0.39579395561E+02  0.34792586804E+02  0.53073650940E+02  0.00000000000E+00 0. -1.
         21    1    1    2  504  501  0.11539258109E+03 -0.12386451817E+02  0.10728276947E+04  0.10790867132E+04  0.00000000000E+00 0. -1.
         21    1    1    2  505  506 -0.48335701197E+02 -0.22066337715E+01  0.17777695141E+03  0.18424400586E+03  0.00000000000E+00 0. -1.
         21    1    1    2  506  504 -0.73362415121E+02  0.54172481150E+02  0.34791908643E+03  0.35967261831E+03  0.00000000000E+00 0. -1.
<scales pt_clust_3="40.07853" pt_clust_4="119.14971" pt_clust_5="32.39628" pt_clust_6="32.39628"></scales>
<clustering>
<clus scale="   32.396">  5  6 -1 -1</clus>
<clus scale="   40.079">  2  3  1 -1</clus>
<clus scale="  119.150">  1  4  2 -1</clus>
<clus scale="  119.150">  1  3  2 -1</clus>
</clustering>
</event>
<event>
 6    0  0.5563122E+002  0.5848834E+02  0.7546771E-02  0.1404287E+00
         21   -1    0    0  505  501  0.00000000000E+00  0.00000000000E+00  0.18364735074E+03  0.18364735074E+03  0.00000000000E+00 0.  1.
         21   -1    0    0  506  502 -0.00000000000E+00 -0.00000000000E+00 -0.67473064328E+03  0.67473064328E+03  0.00000000000E+00 0.  1.
         21    1    1    2  503  502 -0.16722472710E+02  0.54818711091E+02 -0.48379021869E+03  0.48717318058E+03  0.00000000000E+00 0.  1.
         21    1    1    2  504  501 -0.46788032989E+02  0.35633069553E+02  0.14648421211E+03  0.15784948551E+03  0.00000000000E+00 0.  1.
         21    1    1    2  505  503  0.62870260877E+02 -0.59819115742E+01 -0.59463230341E+02  0.86742888650E+02  0.00000000000E+00 0.  1.
         21    1    1    2  506  504  0.64024482178E+00 -0.84469869070E+02 -0.94314055615E+02  0.12661243928E+03  0.00000000000E+00 0.  1.
<scales pt_clust_3="57.31258" pt_clust_4="14000.00000" pt_clust_5="58.48834" pt_clust_6="53.25933"></scales>
<clustering>
<clus scale="   57.313">  2  3  1 -1</clus>
<clus scale="   53.259">  2  6  1 -1</clus>
<clus scale="   58.488">  2  5  1 -1</clus>
<clus scale="   58.488">  1  3  2 -1</clus>
</clustering>
</event>
<event>
 6    0  0.5563122E+002  0.1013875E+03  0.7546771E-02  0.1277405E+00
         21   -1    0    0  503  501  0.00000000000E+00  0.00000000000E+00  0.35981824526E+03  0.35981824526E+03  0.00000000000E+00 0. -1.
         21   -1    0    0  506  502 -0.00000000000E+00 -0.00000000000E+00 -0.42362390623E+03  0.42362390623E+03  0.00000000000E+00 0.  1.
         21    1    1    2  503  505  0.74106883859E+02 -0.61415146687E+02  0.13140864201E+03  0.16288610031E+03  0.00000000000E+00 0. -1.
         21    1    1    2  504  501  0.44991017090E+02  0.97893146447E+02 -0.54389540940E+02  0.12068753831E+03  0.00000000000E+00 0. -1.
         21    1    1    2  505  502 -0.83951408498E+02 -0.47964245203E+02  0.16530975089E+03  0.19150906388E+03  0.00000000000E+00 0. -1.
         21    1    1    2  506  504 -0.35146492451E+02  0.11486245443E+02 -0.30613451295E+03  0.30835944899E+03  0.00000000000E+00 0.  1.
<scales pt_clust_3="91.61531" pt_clust_4="14000.00000" pt_clust_5="101.38753" pt_clust_6="36.97580"></scales>
<clustering>
<clus scale="   36.976">  2  6  1 -1</clus>
<clus scale="   91.615">  1  3  2 -1</clus>
<clus scale="  101.388">  1  5  2 -1</clus>
<clus scale="   91.615">  1  3  2 -1</clus>
</clustering>
</event>
<event>
 6    0  0.5563122E+002  0.1493529E+03  0.7546771E-02  0.1201270E+00
         21   -1    0    0  504  501  0.00000000000E+00  0.00000000000E+00  0.42701732053E+03  0.42701732053E+03  0.00000000000E+00 0.  1.
         21   -1    0    0  501  502 -0.00000000000E+00 -0.00000000000E+00 -0.14801590285E+03  0.14801590285E+03  0.00000000000E+00 0.  1.
         21    1    1    2  503  505 -0.49094413938E+02 -0.43130347328E+01  0.10727919216E+02  0.50437605011E+02  0.00000000000E+00 0.  1.
         21    1    1    2  504  503  0.99539083242E+02  0.13307677085E+03  0.32491244752E+03  0.36494596119E+03  0.00000000000E+00 0.  1.
         21    1    1    2  505  506 -0.39599771702E+02 -0.37949612306E+02 -0.61823693764E+01  0.55195440791E+02  0.00000000000E+00 0.  1.
         21    1    1    2  506  502 -0.10844897602E+02 -0.90814123815E+02 -0.50456579687E+02  0.10445421639E+03  0.00000000000E+00 0.  1.
<scales pt_clust_3="36.52724" pt_clust_4="144.29627" pt_clust_5="36.52724" pt_clust_6="91.45937"></scales>
<clustering>
<clus scale="   36.527">  3  5 -1 -1</clus>
<clus scale="   91.459">  2  6  1 -1</clus>
<clus scale="  144.296">  1  4  2 -1</clus>
<clus scale="  144.296">  1  3  2 -1</clus>
</clustering>
</event>
<event>
 6    0  0.5563122E+002  0.1263813E+03  0.7546771E-02  0.1232926E+00
         21   -1    0    0  503  501  0.00000000000E+00  0.00000000000E+00  0.15190997421E+04  0.15190997421E+04  0.00000000000E+00 0.  1.
         21   -1    0    0  504  502 -0.00000000000E+00 -0.00000000000E+00 -0.78135842920E+02  0.78135842920E+02  0.00000000000E+00 0.  1.
         21    1    1    2  503  506 -0.54352609194E+02  0.30983200750E+01  0.12154129580E+04  0.12166316058E+04  0.00000000000E+00 0.  1.
         21    1    1    2  504  505  0.31887926312E+02 -0.57702196400E+01  0.22387799695E+02  0.39387166113E+02  0.00000000000E+00 0.  1.
         21    1    1    2  505  501  0.60322917555E+01  0.12450277476E+03  0.17541111802E+03  0.21518919534E+03  0.00000000000E+00 0.  1.
         21    1    1    2  506  502  0.16432391126E+02 -0.12183087520E+03  0.27752023425E+02  0.12602761774E+03  0.00000000000E+00 0.  1.
<scales pt_clust_3="54.15941" pt_clust_4="32.40579" pt_clust_5="126.38126" pt_clust_6="14000.00000"></scales>
<clustering>
<clus scale="   32.406">  2  4  1 -1</clus>
<clus scale="   54.159">  1  3  2 -1</clus>
<clus scale="  126.381">  1  5  2 -1</clus>
<clus scale="   54.159">  1  3  2 -1</clus>
</clustering>
</event>
<event>
 6    0  0.5563122E+002  0.1408353E+03  0.7546771E-02  0.1212209E+00
         21   -1    0    0  506  501  0.00000000000E+00  0.00000000000E+00  0.27400454271E+03  0.27400454271E+03  0.00000000000E+00 0. -1.
         21   -1    0    0  505  502 -0.00000000000E+00 -0.00000000000E+00 -0.10179730783E+03  0.10179730783E+03  0.00000000000E+00 0. -1.
         21    1    1    2  503  501  0.10985074761E+03  0.72472281525E+02  0.95871863245E+02  0.16282147433E+03  0.00000000000E+00 0. -1.
         21    1    1    2  504  503 -0.83698478051E+02  0.10834263087E-01  0.91045408104E+01  0.84192208718E+02  0.00000000000E+00 0. -1.
         21    1    1    2  505  504 -0.49890274893E+02 -0.33996487786E+02  0.20490878922E+02  0.63754818090E+02  0.00000000000E+00 0. -1.
         21    1    1    2  506  502  0.23738005330E+02 -0.38486628001E+02  0.46739951901E+02  0.65033349411E+02  0.00000000000E+00 0. -1.
<scales pt_clust_3="133.50325" pt_clust_4="38.09033" pt_clust_5="38.09033" pt_clust_6="45.21851"></scales>
<clustering>
<clus scale="   38.090">  4  5 -1 -1</clus>
<clus scale="   45.219">  1  6  2 -1</clus>
<clus scale="  133.503">  1  3  2 -1</clus>
<clus scale="   45.219">  1  3  2 -1</clus>
</clustering>
</event>
<event>
 6    0  0.5563122E+002  0.7648143E+02  0.7546771E-02  0.1339344E+00
         21   -1    0    0  505  501  0.00000000000E+00  0.00000000000E+00  0.22880371744E+03  0.22880371744E+03  0.00000000000E+00 0. -1.
         21   -1    0    0  504  502 -0.00000000000E+00 -0.00000000000E+00 -0.21047183488E+03  0.21047183488E+03  0.00000000000E+00 0. -1.
         21    1    1    2  503  501  0.13951382569E+02 -0.31991123029E+02  0.76475601586E+02  0.84063016043E+02  0.00000000000E+00 0. -1.
         21    1    1    2  504  506  0.50016263746E+02  0.18977747723E+01 -0.88454829923E+02  0.10163407462E+03  0.00000000000E+00 0. -1.
         21    1    1    2  505  502 -0.11946975049E+03  0.31207076157E+02 -0.67787445263E+02  0.14086177842E+03  0.00000000000E+00 0. -1.
         21    1    1    2  506  503  0.55502104172E+02 -0.11137279005E+01  0.98098556162E+02  0.11271668323E+03  0.00000000000E+00 0. -1.
<scales pt_clust_3="34.90090" pt_clust_4="50.63747" pt_clust_5="14000.00000" pt_clust_6="76.48143"></scales>
<clustering>
<clus scale="   34.901">  1  3  2 -1</clus>
<clus scale="   50.637">  2  4  1 -1</clus>
<clus scale="   76.481">  1  6  2 -1</clus>
<clus scale="   34.901">  1  3  2 -1</clus>
</clustering>
</event>
<event>
 6    0  0.4278709E+003  0.6636067E+02  0.7546771E-02  0.1372925E+00
         21   -1    0    0  506  501  0.00000000000E+00  0.00000000000E+00  0.11767161909E+04  0.11767161909E+04  0.00000000000E+00 0.  1.
         21   -1    0    0  504  502 -0.00000000000E+00 -0.00000000000E+00 -0.98352058291E+03  0.98352058291E+03  0.00000000000E+00 0.  1.
         21    1    1    2  503  501 -0.63804299852E+02 -0.11305911913E+02  0.97390069343E+03  0.97605398057E+03  0.00000000000E+00 0.  1.
         21    1    1    2  504  503 -0.22931952708E+02 -0.43125410409E+02  0.65298313185E+02  0.81544743440E+02  0.00000000000E+00 0.  1.
         21    1    1    2  505  502 -0.18837284007E+02 -0.34733490564E+02 -0.93657808664E+03  0.93741120700E+03  0.00000000000E+00 0.  1.
         21    1    1    2  506  505  0.10557353657E+03  0.89164812886E+02  0.90574688048E+02  0.16522684284E+03  0.00000000000E+00 0.  1.
<scales pt_clust_3="66.36067" pt_clust_4="55.74192" pt_clust_5="39.51277" pt_clust_6="14000.00000"></scales>
<clustering>
<clus scale="   39.513">  2  5  1 -1</clus>
<clus scale="   55.742">  2  4  1 -1</clus>
<clus scale="   66.361">  1  3  2 -1</clus>
<clus scale="   66.361">  1  3  2 -1</clus>
</clustering>
</event>
<event>
 6    0  0.5563122E+002  0.1570867E+03  0.7546771E-02  0.1192026E+00
         21   -1    0    0  505  501  0.00000000000E+00  0.00000000000E+00  0.22742209967E+03  0.22742209967E+03  0.00000000000E+00 0. -1.
         21   -1    0    0  504  502 -0.00000000000E+00 -0.00000000000E+00 -0.26219977687E+03  0.26219977687E+03  0.00000000000E+00 0. -1.
         21    1    1    2  503  502 -0.11591925300E+03 -0.45883361791E+02  0.90582651499E+02  0.15410312410E+03  0.00000000000E+00 0. -1.
         21    1    1    2  504  506  0.28492951668E+02 -0.20779507575E+02 -0.60481950908E+02  0.70012160483E+02  0.00000000000E+00 0. -1.
         21    1    1    2  505  503 -0.30416706329E+02  0.12017481699E+03 -0.82566195311E+01  0.12423902136E+03  0.00000000000E+00 0. -1.
         21    1    1    2  506  501  0.11784300766E+03 -0.53511947623E+02 -0.56621758256E+02  0.14126757059E+03  0.00000000000E+00 0. -1.
<scales pt_clust_3="143.81869" pt_clust_4="32.98254" pt_clust_5="123.96436" pt_clust_6="32.98254"></scales>
<clustering>
<clus scale="   32.983">  4  6 -1 -1</clus>
<clus scale="  123.964">  1  5  2 -1</clus>
<clus scale="  143.819">  1  3  2 -1</clus>
<clus scale="  123.964">  1  3  2 -1</clus>
</clustering>
</event>
<event>
 6    0  0.5563122E+002  0.1227064E+03  0.7546771E-02  0.1238698E+00
         21   -1    0    0  506  501  0.00000000000E+00  0.00000000000E+00  0.83388288713E+02  0.83388288713E+02  0.00000000000E+00 0. -1.
         21   -1    0    0  503  502 -0.00000000000E+00 -0.00000000000E+00 -0.67535082415E+03  0.67535082415E+03  0.00000000000E+00 0. -1.
         21    1    1    2  503  504 -0.16404796739E+02  0.42493585837E+02 -0.30605174264E+03  0.30942283589E+03  0.00000000000E+00 0. -1.
         21    1    1    2  504  501  0.92636392819E+02 -0.78133897242E+02 -0.82150403697E+02  0.14640729490E+03  0.00000000000E+00 0. -1.
         21    1    1    2  505  502  0.63400819752E+02  0.32562211774E+02 -0.12137509618E+03  0.14075466441E+03  0.00000000000E+00 0. -1.
         21    1    1    2  506  505 -0.13963241583E+03  0.30780996310E+01 -0.82385292920E+02  0.16215431767E+03  0.00000000000E+00 0. -1.
<scales pt_clust_3="45.55022" pt_clust_4="14000.00000" pt_clust_5="74.75768" pt_clust_6="122.70642"></scales>
<clustering>
<clus scale="   45.550">  2  3  1 -1</clus>
<clus scale="   74.758">  2  5  1 -1</clus>
<clus scale="  122.706">  2  6  1 -1</clus>
<clus scale="  122.706">  1  3  2 -1</clus>
</clustering>
</event>
<event>
 6    0  0.5563122E+002  0.1018230E+03  0.7546771E-02  0.1276509E+00
         21   -1    0    0  506  501  0.00000000000E+00  0.00000000000E+00  0.35768112317E+03  0.35768112317E+03  0.00000000000E+00 0.  1.
         21   -1    0    0  503  502 -0.00000000000E+00 -0.00000000000E+00 -0.30350850886E+03  0.30350850886E+03  0.00000000000E+00 0. -1.
         21    1    1    2  503  504 -0.27582922088E+02 -0.10882229294E+03  0.33821762786E+02  0.11724768940E+03  0.00000000000E+00 0.  1.
         21    1    1    2  504  501 -0.92821919920E+01  0.73072904430E+02  0.48674290684E+02  0.88289269018E+02  0.00000000000E+00 0. -1.
         21    1    1    2  505  502 -0.72240254722E+01  0.10076886993E+03 -0.22349272218E+03  0.24526628093E+03  0.00000000000E+00 0. -1.
         21    1    1    2  506  505  0.44089139552E+02 -0.65019481425E+02  0.19516928303E+03  0.21038639269E+03  0.00000000000E+00 0. -1.
<scales pt_clust_3="14000.00000" pt_clust_4="73.66009" pt_clust_5="101.82298" pt_clust_6="40.02852"></scales>
<clustering>
<clus scale="   73.660">  1  4  2 -1</clus>
<clus scale="   40.029">  1  6  2 -1</clus>
<clus scale="  101.823">  2  5  1 -1</clus>
<clus scale="   73.660">  1  3  2 -1</clus>
</clustering>
</event>
<event>
 6    0  0.5563122E+002  0.8071987E+02  0.7546771E-02  0.1327021E+00
         21   -1    0    0  505  501  0.00000000000E+00  0.00000000000E+00  0.10094324843E+04  0.10094324843E+04  0.00000000000E+00 0.  1.
         21   -1    0    0  504  502 -0.00000000000E+00 -0.00000000000E+00 -0.44939798107E+03  0.44939798107E+03  0.00000000000E+00 0.  1.
         21    1    1    2  503  506  0.17607106004E+02  0.78342758484E+02 -0.27910519156E+02  0.85009382237E+02  0.00000000000E+00 0. -1.
         21    1    1    2  504  503  0.19937793727E+02  0.43042300881E+02 -0.52188912877E+02  0.70525441587E+02  0.00000000000E+00 0. -1.
         21    1    1    2  505  502 -0.23634569956E+02 -0.53501295428E+02 -0.32775321650E+03  0.33293115269E+03  0.00000000000E+00 0.  1.
         21    1    1    2  506  501 -0.13910329775E+02 -0.67883763937E+02  0.96788715174E+03  0.97036448883E+03  0.00000000000E+00 0.  1.
<scales pt_clust_3="31.04264" pt_clust_4="31.04264" pt_clust_5="58.48916" pt_clust_6="69.88910"></scales>
<clustering>
<clus scale="   31.043">  3  4 -1 -1</clus>
<clus scale="   58.489">  2  5  1 -1</clus>
<clus scale="   69.889">  1  6  2 -1</clus>
<clus scale="   69.889">  1  3  2 -1</clus>
</clustering>
</event>
<event>
 6    0  0.5563122E+002  0.1612648E+03  0.7546771E-02  0.1187276E+00
         21   -1    0    0  504  501  0.00000000000E+00  0.00000000000E+00  0.83152336030E+03  0.83152336030E+03  0.00000000000E+00 0.  1.
         21   -1    0    0  505  502 -0.00000000000E+00 -0.00000000000E+00 -0.98075416640E+02  0.98075416640E+02  0.00000000000E+00 0.  1.
         21    1    1    2  503  506 -0.76651604373E+02 -0.47501951426E+02  0.31250935961E+03  0.32525990175E+03  0.00000000000E+00 0.  1.
         21    1    1    2  504  502  0.13802213511E+03  0.44036794728E+02 -0.97429897818E+01  0.14520425242E+03  0.00000000000E+00 0.  1.
         21    1    1    2  505  503 -0.13410100405E+02  0.54947831977E+02  0.62512491244E+02  0.84302470862E+02  0.00000000000E+00 0.  1.
         21    1    1    2  506  501 -0.47960430335E+02 -0.51482675279E+02  0.36816908258E+03  0.37483215190E+03  0.00000000000E+00 0.  1.
<scales pt_clust_3="33.97770" pt_clust_4="156.61009" pt_clust_5="56.56054" pt_clust_6="33.97770"></scales>
<clustering>
<clus scale="   33.978">  3  6 -1 -1</clus>
<clus scale="   56.561">  2  5  1 -1</clus>
<clus scale="  156.610">  2  4  1 -1</clus>
<clus scale="  161.265">  1  3  2 -1</clus>
</clustering>
</event>
<event>
 6    0  0.5563122E+002  0.1937050E+03  0.7546771E-02  0.1155161E+00
         21   -1    0    0  505  501  0.00000000000E+00  0.00000000000E+00  0.50599437785E+03  0.50599437785E+03  0.00000000000E+00 0. -1.
         21   -1    0    0  504  502 -0.00000000000E+00 -0.00000000000E+00 -0.17460309302E+04  0.17460309302E+04  0.00000000000E+00 0. -1.
         21    1    1    2  503  506  0.10963262591E+03 -0.86764170948E+02 -0.13846150463E+03  0.19677124355E+03  0.00000000000E+00 0.  1.
         21    1    1    2  504  501 -0.20334430143E+03 -0.38743660562E+02  0.47148140956E+02  0.21230384677E+03  0.00000000000E+00 0. -1.
         21    1    1    2  505  503  0.12607162514E+03  0.15830365166E+03  0.31722462367E+03  0.37627857055E+03  0.00000000000E+00 0. -1.
         21    1    1    2  506  502 -0.32359949624E+02 -0.32795820145E+02 -0.14659478123E+04  0.14666716472E+04  0.00000000000E+00 0. -1.
<scales pt_clust_3="139.52774" pt_clust_4="14000.00000" pt_clust_5="193.70498" pt_clust_6="46.07312"></scales>
<clustering>
<clus scale="   46.073">  2  6  1 -1</clus>
<clus scale="  139.528">  2  3  1 -1</clus>
<clus scale="  193.705">  1  5  2 -1</clus>
<clus scale="  193.705">  1  3  2 -1</clus>
</clustering>
</event>
<event>
 6    0  0.5563122E+002  0.1194640E+03  0.7546771E-02  0.1243984E+00
         21   -1    0    0  506  501  0.00000000000E+00  0.00000000000E+00  0.42271337687E+02  0.42271337687E+02  0.00000000000E+00 0.  1.
         21   -1    0    0  504  502 -0.00000000000E+00 -0.00000000000E+00 -0.14758392866E+04  0.14758392866E+04  0.00000000000E+00 0.  1.
         21    1    1    2  503  502 -0.99019615016E+02  0.58773364096E+02 -0.10965354488E+04  0.11025648203E+04  0.00000000000E+00 0.  1.
         21    1    1    2  504  505  0.14907483675E+03 -0.55658735314E+02 -0.21556872855E+03  0.26793857225E+03  0.00000000000E+00 0.  1.
         21    1    1    2  505  501 -0.25512583235E+02 -0.29084375651E+02 -0.28616668248E+02  0.48121788329E+02  0.00000000000E+00 0.  1.
         21    1    1    2  506  503 -0.24542638499E+02  0.25969746869E+02 -0.92847103270E+02  0.99485443370E+02  0.00000000000E+00 0.  1.
<scales pt_clust_3="119.46402" pt_clust_4="14000.00000" pt_clust_5="38.88636" pt_clust_6="35.73190"></scales>
<clustering>
<clus scale="   35.732">  1  6  2 -1</clus>
<clus scale="   38.886">  1  5  2 -1</clus>
<clus scale="  119.464">  2  3  1 -1</clus>
<clus scale="   35.732">  1  3  2 -1</clus>
</clustering>
</event>
<event>
 6    0  0.5563122E+002  0.7160501E+02  0.7546771E-02  0.1354719E+00
         21   -1    0    0  506  501  0.00000000000E+00  0.00000000000E+00  0.13065691858E+03  0.13065691858E+03  0.00000000000E+00 0.  1.
         21   -1    0    0  504  502 -0.00000000000E+00 -0.00000000000E+00 -0.41078998332E+03  0.41078998332E+03  0.00000000000E+00 0. -1.
         21    1    1    2  503  502 -0.75126111920E+02  0.33919815884E+02 -0.69452155999E+02  0.10778723753E+03  0.00000000000E+00 0. -1.
         21    1    1    2  504  505  0.46232067196E+02  0.44475479598E+02 -0.29260064829E+03  0.29955068303E+03  0.00000000000E+00 0. -1.
         21    1    1    2  505  501 -0.73051705180E+01 -0.68176604320E+02  0.52990202698E+02  0.86656658572E+02  0.00000000000E+00 0.  1.
         21    1    1    2  506  503  0.36199215243E+02 -0.10218691162E+02  0.28929536859E+02  0.47452322768E+02  0.00000000000E+00 0.  1.
<scales pt_clust_3="14000.00000" pt_clust_4="64.87758" pt_clust_5="71.60501" pt_clust_6="37.61389"></scales>
<clustering>
<clus scale="   37.614">  1  6  2 -1</clus>
<clus scale="   64.878">  2  4  1 -1</clus>
<clus scale="   71.605">  1  5  2 -1</clus>
<clus scale="   37.614">  1  3  2 -1</clus>
</clustering>
</event>
<event>
 6    0  0.5563122E+002  0.6984374E+02  0.7546771E-02  0.1360625E+00
         21   -1    0    0  506  501  0.00000000000E+00  0.00000000000E+00  0.27873307893E+03  0.27873307893E+03  0.00000000000E+00 0.  1.
         21   -1    0    0  504  502 -0.00000000000E+00 -0.00000000000E+00 -0.85139232956E+02  0.85139232956E+02  0.00000000000E+00 0.  1.
         21    1    1    2  503  501 -0.19039803601E+02  0.70205679110E+02  0.14979225181E+03  0.16652047983E+03  0.00000000000E+00 0.  1.
         21    1    1    2  504  505  0.31865489863E+01  0.46670058167E+02  0.23898139948E+02  0.52529701282E+02  0.00000000000E+00 0.  1.
         21    1    1    2  505  503  0.39602509651E+02 -0.53180579054E+02  0.35306193457E+02  0.75120303884E+02  0.00000000000E+00 0.  1.
         21    1    1    2  506  502 -0.23749255036E+02 -0.63695158223E+02 -0.15402739241E+02  0.69701826891E+02  0.00000000000E+00 0.  1.
<scales pt_clust_3="69.84374" pt_clust_4="46.77872" pt_clust_5="14000.00000" pt_clust_6="41.80929"></scales>
<clustering>
<clus scale="   46.779">  2  4  1 -1</clus>
<clus scale="   41.809">  2  6  1 -1</clus>
<clus scale="   69.844">  1  3  2 -1</clus>
<clus scale="   69.844">  1  3  2 -1</clus>
</clustering>
</event>
<event>
 6    0  0.5563122E+002  0.1850232E+03  0.7546771E-02  0.1163028E+00
         21   -1    0    0  504  501  0.00000000000E+00  0.00000000000E+00  0.50907192939E+03  0.50907192939E+03  0.00000000000E+00 0. -1.
         21   -1    0    0  505  502 -0.00000000000E+00 -0.00000000000E+00 -0.42729500462E+03  0.42729500462E+03  0.00000000000E+00 0.  1.
         21    1    1    2  503  501 -0.10866154820E+03  0.21013200329E+02  0.33842820182E+03  0.35606535135E+03  0.00000000000E+00 0. -1.
         21    1    1    2  504  502  0.87159031115E+02 -0.25712554688E+02 -0.35980560455E+02  0.97736548456E+02  0.00000000000E+00 0.  1.
         21    1    1    2  505  506  0.89325442672E+02 -0.17768000767E+02 -0.33532393955E+03  0.34747212981E+03  0.00000000000E+00 0.  1.
         21    1    1    2  506  503 -0.67822925585E+02  0.22467355126E+02  0.11465322295E+03  0.13509290438E+03  0.00000000000E+00 0. -1.
<scales pt_clust_3="43.38975" pt_clust_4="90.87262" pt_clust_5="176.96686" pt_clust_6="43.38975"></scales>
<clustering>
<clus scale="   43.390">  3  6 -1 -1</clus>
<clus scale="   90.873">  2  4  1 -1</clus>
<clus scale="  176.967">  2  5  1 -1</clus>
<clus scale="  185.023">  1  3  2 -1</clus>
</clustering>
</event>
<event>
 6    0  0.5563122E+002  0.1343858E+03  0.7546771E-02  0.1221089E+00
         21   -1    0    0  504  501  0.00000000000E+00  0.00000000000E+00  0.22810886903E+03  0.22810886903E+03  0.00000000000E+00 0.  1.
         21   -1    0    0  506  502 -0.00000000000E+00 -0.00000000000E+00 -0.94550103979E+03  0.94550103979E+03  0.00000000000E+00 0. -1.
         21    1    1    2  503  501  0.42800549867E+02 -0.11063548048E+03  0.52551070118E+02  0.12974479404E+03  0.00000000000E+00 0.  1.
         21    1    1    2  504  502 -0.23768487539E+01 -0.34331346922E+02  0.12171430995E+03  0.12648582544E+03  0.00000000000E+00 0.  1.
         21    1    1    2  505  503 -0.25898368528E+02  0.96879593563E+02 -0.19839549764E+03  0.22229969551E+03  0.00000000000E+00 0.  1.
         21    1    1    2  506  505 -0.14525332585E+02  0.48087233841E+02 -0.69326205320E+03  0.69507959382E+03  0.00000000000E+00 0. -1.
<scales pt_clust_3="134.38577" pt_clust_4="34.41353" pt_clust_5="14000.00000" pt_clust_6="49.95210"></scales>
<clustering>
<clus scale="   34.414">  1  4  2 -1</clus>
<clus scale="   49.952">  2  6  1 -1</clus>
<clus scale="  134.386">  1  3  2 -1</clus>
<clus scale="   34.414">  1  3  2 -1</clus>
</clustering>
</event>
<event>
 6    0  0.5563122E+002  0.9693176E+02  0.7546771E-02  0.1286884E+00
         21   -1    0    0  506  501  0.00000000000E+00  0.00000000000E+00  0.52317516709E+03  0.52317516709E+03  0.00000000000E+00 0. -1.
         21   -1    0    0  503  502 -0.00000000000E+00 -0.00000000000E+00 -0.67441891582E+02  0.67441891582E+02  0.00000000000E+00 0. -1.
         21    1    1    2  503  504  0.19651218468E+02  0.64014639063E+02 -0.16311557520E+02  0.68921051286E+02  0.00000000000E+00 0. -1.
         21    1    1    2  504  501  0.20825951608E+02 -0.72611993735E+02  0.31556088953E+03  0.32447634258E+03  0.00000000000E+00 0. -1.
         21    1    1    2  505  502 -0.17894483015E+02  0.59036028441E+02  0.60148468899E+02  0.86158594971E+02  0.00000000000E+00 0. -1.
         21    1    1    2  506  505 -0.22582687060E+02 -0.50438673769E+02  0.96335474602E+02  0.11106106984E+03  0.00000000000E+00 0. -1.
<scales pt_clust_3="96.93176" pt_clust_4="14000.00000" pt_clust_5="54.77880" pt_clust_6="55.26335"></scales>
<clustering>
<clus scale="   55.263">  1  6  2 -1</clus>
<clus scale="   54.779">  2  5  1 -1</clus>
<clus scale="   96.932">  2  3  1 -1</clus>
<clus scale="   55.263">  1  3  2 -1</clus>
</clustering>
</event>
<event>
 6    0  0.5563122E+002  0.7194869E+02  0.7546771E-02  0.1353589E+00
         21   -1    0    0  503  501  0.00000000000E+00  0.00000000000E+00  0.80092103390E+03  0.80092103390E+03  0.00000000000E+00 0. -1.
         21   -1    0    0  504  502 -0.00000000000E+00 -0.00000000000E+00 -0.28582556600E+03  0.28582556600E+03  0.00000000000E+00 0.  1.
         21    1    1    2  503  505 -0.45579080911E+02 -0.27196371339E+02  0.72083843757E+02  0.89516343543E+02  0.00000000000E+00 0.  1.
         21    1    1    2  504  506 -0.38705695499E+02  0.55835878061E+02  0.24256032630E+03  0.25189539106E+03  0.00000000000E+00 0.  1.
         21    1    1    2  505  502  0.53730178208E+02  0.41011456605E+02 -0.26511534111E+03  0.27359644682E+03  0.00000000000E+00 0.  1.
         21    1    1    2  506  501  0.30554598201E+02 -0.69650963327E+02  0.46556663895E+03  0.47173841848E+03  0.00000000000E+00 0. -1.
<scales pt_clust_3="53.07632" pt_clust_4="71.94869" pt_clust_5="67.28292" pt_clust_6="14000.00000"></scales>
<clustering>
<clus scale="   53.076">  1  3  2 -1</clus>
<clus scale="   67.283">  2  5  1 -1</clus>
<clus scale="   71.949">  2  4  1 -1</clus>
<clus scale="   53.076">  1  3  2 -1</clus>
</clustering>
</event>
<event>
 6    0  0.5563122E+002  0.1037410E+03  0.7546771E-02  0.1272620E+00
         21   -1    0    0  504  501  0.00000000000E+00  0.00000000000E+00  0.65956682196E+03  0.65956682196E+03  0.00000000000E+00 0.  1.
         21   -1    0    0  505  502 -0.00000000000E+00 -0.00000000000E+00 -0.32537352385E+03  0.32537352385E+03  0.00000000000E+00 0. -1.
         21    1    1    2  503  501  0.60089172222E+02  0.33081818472E+02 -0.20469474806E+03  0.21588204005E+03  0.00000000000E+00 0. -1.
         21    1    1    2  504  506  0.25984577427E+02 -0.56947421022E+02  0.58435859947E+03  0.58770160779E+03  0.00000000000E+00 0.  1.
         21    1    1    2  505  503  0.40361000190E+02  0.25470674942E+02 -0.22812231742E+02  0.52897670415E+02  0.00000000000E+00 0. -1.
         21    1    1    2  506  502 -0.12643474984E+03 -0.16050723921E+01 -0.22658321555E+02  0.12845902755E+03  0.00000000000E+00 0.  1.
<scales pt_clust_3="14000.00000" pt_clust_4="62.55888" pt_clust_5="47.72594" pt_clust_6="103.74104"></scales>
<clustering>
<clus scale="   47.726">  2  5  1 -1</clus>
<clus scale="   62.559">  1  4  2 -1</clus>
<clus scale="  103.741">  1  6  2 -1</clus>
<clus scale="   62.559">  1  3  2 -1</clus>
</clustering>
</event>
<event>
 6    0  0.5563122E+002  0.1114217E+03  0.7546771E-02  0.1257960E+00
         21   -1    0    0  506  501  0.00000000000E+00  0.00000000000E+00  0.33324653602E+03  0.33324653602E+03  0.00000000000E+00 0. -1.
         21   -1    0    0  505  502 -0.00000000000E+00 -0.00000000000E+00 -0.32892291416E+03  0.32892291416E+03  0.00000000000E+00 0.  1.
         21    1    1    2  503  502  0.82578984719E+02 -0.16793922992E+02 -0.96996466093E+02  0.12848984007E+03  0.00000000000E+00 0.  1.
         21    1    1    2  504  501 -0.11105750212E+03  0.22598655462E+02 -0.14088256680E+03  0.18081030290E+03  0.00000000000E+00 0.  1.
         21    1    1    2  505  504 -0.53763694911E+02  0.32489920232E+02 -0.27309672621E+02  0.68497795774E+02  0.00000000000E+00 0.  1.
         21    1    1    2  506  503  0.82242212310E+02 -0.38294652702E+02  0.26951232738E+03  0.28437151144E+03  0.00000000000E+00 0. -1.
<scales pt_clust_3="84.26936" pt_clust_4="45.07212" pt_clust_5="45.07212" pt_clust_6="93.53966"></scales>
<clustering>
<clus scale="   45.072">  4  5 -1 -1</clus>
<clus scale="   84.269">  2  3  1 -1</clus>
<clus scale="   93.540">  1  6  2 -1</clus>
<clus scale="   93.540">  1  3  2 -1</clus>
</clustering>
</event>
<event>
 6    0  0.5563122E+002  0.8858456E+02  0.7546771E-02  0.1306316E+00
         21   -1    0    0  505  501  0.00000000000E+00  0.00000000000E+00  0.14222741206E+04  0.14222741206E+04  0.00000000000E+00 0. -1.
         21   -1    0    0  503  502 -0.00000000000E+00 -0.00000000000E+00 -0.61759049084E+02  0.61759049084E+02  0.00000000000E+00 0.  1.
         21    1    1    2  503  501 -0.86252282851E+01 -0.43371161265E+02  0.82187930863E+02  0.93329031775E+02  0.00000000000E+00 0. -1.
         21    1    1    2  504  506 -0.53449945581E+02  0.53919835504E+02  0.60854000272E+02  0.97300846309E+02  0.00000000000E+00 0. -1.
         21    1    1    2  505  504 -0.11406376846E+02  0.54775404395E+02  0.11900037326E+04  0.11913183176E+04  0.00000000000E+00 0. -1.
         21    1    1    2  506  502  0.73481550712E+02 -0.65324078634E+02  0.27469407790E+02  0.10208497396E+03  0.00000000000E+00 0.  1.
<scales pt_clust_3="44.22050" pt_clust_4="14000.00000" pt_clust_5="55.47467" pt_clust_6="88.58456"></scales>
<clustering>
<clus scale="   44.220">  2  3  1 -1</clus>
<clus scale="   55.475">  1  5  2 -1</clus>
<clus scale="   88.585">  2  6  1 -1</clus>
<clus scale="   55.475">  1  3  2 -1</clus>
</clustering>
</event>
<event>
 6    0  0.5563122E+002  0.1163783E+03  0.7546771E-02  0.1249194E+00
         21   -1    0    0  505  501  0.00000000000E+00  0.00000000000E+00  0.13365291085E+03  0.13365291085E+03  0.00000000000E+00 0.  1.
         21   -1    0    0  506  502 -0.00000000000E+00 -0.00000000000E+00 -0.48657326818E+03  0.48657326818E+03  0.00000000000E+00 0. -1.
         21    1    1    2  503  501 -0.14959791894E+02 -0.71185931623E+02  0.89699874595E+01  0.73291833853E+02  0.00000000000E+00 0.  1.
         21    1    1    2  504  502  0.70135060455E+02  0.34965485731E+02 -0.36824820398E+03  0.37649469004E+03  0.00000000000E+00 0. -1.
         21    1    1    2  505  504 -0.25842783220E+02  0.81010311666E+02 -0.45037955615E+02  0.96223372872E+02  0.00000000000E+00 0.  1.
         21    1    1    2  506  503 -0.29332485341E+02 -0.44789865774E+02  0.51395814804E+02  0.74216282255E+02  0.00000000000E+00 0.  1.
<scales pt_clust_3="44.59914" pt_clust_4="78.36780" pt_clust_5="104.12243" pt_clust_6="44.59914"></scales>
<clustering>
<clus scale="   44.599">  3  6 -1 -1</clus>
<clus scale="   78.368">  2  4  1 -1</clus>
<clus scale="  104.122">  2  5  1 -1</clus>
<clus scale="  116.378">  1  3  2 -1</clus>
</clustering>
</event>
<event>
 6    0  0.5563122E+002  0.8536947E+02  0.7546771E-02  0.1314469E+00
         21   -1    0    0  506  501  0.00000000000E+00  0.00000000000E+00  0.17633445077E+03  0.17633445077E+03  0.00000000000E+00 0.  1.
         21   -1    0    0  503  502 -0.00000000000E+00 -0.00000000000E+00 -0.25655420725E+03  0.25655420725E+03  0.00000000000E+00 0.  1.
         21    1    1    2  503  501  0.31924051043E+02 -0.12379980973E+03 -0.12532652741E+03  0.17903149555E+03  0.00000000000E+00 0.  1.
         21    1    1    2  504  502  0.42920542942E+01  0.44309480671E+02 -0.36552091497E+02  0.57600409723E+02  0.00000000000E+00 0.  1.
         21    1    1    2  505  504 -0.69039910471E+02  0.28607493816E+02 -0.20507324567E+02  0.77494827577E+02  0.00000000000E+00 0.  1.
         21    1    1    2  506  505  0.32823805134E+02  0.50882835246E+02  0.10216618700E+03  0.11876192518E+03  0.00000000000E+00 0.  1.
<scales pt_clust_3="85.36947" pt_clust_4="44.51687" pt_clust_5="14000.00000" pt_clust_6="62.12370"></scales>
<clustering>
<clus scale="   44.517">  2  4  1 -1</clus>
<clus scale="   62.124">  1  6  2 -1</clus>
<clus scale="   85.369">  2  3  1 -1</clus>
<clus scale="   62.124">  1  3  2 -1</clus>
</clustering>
</event>
<event>
 6    0  0.5563122E+002  0.7833348E+02  0.7546771E-02  0.1333848E+00
         21   -1    0    0  505  501  0.00000000000E+00  0.00000000000E+00  0.48000991526E+04  0.48000991526E+04  0.00000000000E+00 0.  1.
         21   -1    0    0  506  502 -0.00000000000E+00 -0.00000000000E+00 -0.68314485568E+01  0.68314485568E+01  0.00000000000E+00 0.  1.
         21    1    1    2  503  501  0.22642396847E+02  0.32053260498E+02  0.38900727729E+03  0.39098177889E+03  0.00000000000E+00 0.  1.
         21    1    1    2  504  502  0.21492404130E+02 -0.12255800642E+03  0.11219544196E+04  0.11288330736E+04  0.00000000000E+00 0.  1.
         21    1    1    2  505  504 -0.43082849075E+02  0.59979383008E+02  0.31661497038E+04  0.31670108313E+04  0.00000000000E+00 0.  1.
         21    1    1    2  506  503 -0.10519519024E+01  0.30525362914E+02  0.11615630331E+03  0.12010491739E+03  0.00000000000E+00 0.  1.
<scales pt_clust_3="44.34747" pt_clust_4="78.33348" pt_clust_5="14000.00000" pt_clust_6="30.54348"></scales>
<clustering>
<clus scale="   30.543">  2  6  1 -1</clus>
<clus scale="   44.347">  2  3  1 -1</clus>
<clus scale="   78.333">  2  4  1 -1</clus>
<clus scale="   78.333">  1  3  2 -1</clus>
</clustering>
</event>
<event>
 6    0  0.5563122E+002  0.1465719E+03  0.7546771E-02  0.1204750E+00
         21   -1    0    0  506  501  0.00000000000E+00  0.00000000000E+00  0.22637412831E+03  0.22637412831E+03  0.00000000000E+00 0. -1.
         21   -1    0    0  503  502 -0.00000000000E+00 -0.00000000000E+00 -0.49592495976E+03  0.49592495976E+03  0.00000000000E+00 0. -1.
         21    1    1    2  503  505  0.18892014352E+02 -0.43347239932E+02 -0.36474257667E+03  0.36779483228E+03  0.00000000000E+00 0. -1.
         21    1    1    2  504  502 -0.30052934583E+02  0.59818345235E+02  0.35963001830E+02  0.75991781163E+02  0.00000000000E+00 0. -1.
         21    1    1    2  505  501  0.54089941107E+02 -0.82120274447E+02 -0.74573980625E+02  0.12341288341E+03  0.00000000000E+00 0. -1.
         21    1    1    2  506  504 -0.42929020875E+02  0.65649169145E+02  0.13380272402E+03  0.15509959122E+03  0.00000000000E+00 0. -1.
<scales pt_clust_3="47.28521" pt_clust_4="53.00820" pt_clust_5="134.04833" pt_clust_6="53.00820"></scales>
<clustering>
<clus scale="   47.285">  2  3  1 -1</clus>
<clus scale="   53.008">  4  6 -1 -1</clus>
<clus scale="  134.048">  2  5  1 -1</clus>
<clus scale="  146.572">  1  3  2 -1</clus>
</clustering>
</event>
<event>
 6    0  0.5563122E+002  0.1480508E+03  0.7546771E-02  0.1202889E+00
         21   -1    0    0  504  501  0.00000000000E+00  0.00000000000E+00  0.10105942392E+03  0.10105942392E+03  0.00000000000E+00 0. -1.
         21   -1    0    0  505  502 -0.00000000000E+00 -0.00000000000E+00 -0.17695377463E+04  0.17695377463E+04  0.00000000000E+00 0. -1.
         21    1    1    2  503  502 -0.96315318888E+02 -0.18598734624E+02 -0.67425137039E+02  0.11903235983E+03  0.00000000000E+00 0. -1.
         21    1    1    2  504  503 -0.41140630311E+02 -0.50624744048E+02 -0.76643177614E+02  0.10064587844E+03  0.00000000000E+00 0. -1.
         21    1    1    2  505  506  0.31349391764E+02 -0.22736074217E+01 -0.15226352356E+04  0.15229596233E+04  0.00000000000E+00 0. -1.
         21    1    1    2  506  501  0.10610655744E+03  0.71497086094E+02 -0.17747721648E+01  0.12795930864E+03  0.00000000000E+00 0. -1.
<scales pt_clust_3="51.18039" pt_clust_4="51.18039" pt_clust_5="31.43173" pt_clust_6="134.54452"></scales>
<clustering>
<clus scale="   31.432">  2  5  1 -1</clus>
<clus scale="   51.180">  3  4 -1 -1</clus>
<clus scale="  134.545">  1  6  2 -1</clus>
<clus scale="  134.545">  1  3  2 -1</clus>
</clustering>
</event>
<event>
 6    0  0.5563122E+002  0.7573624E+02  0.7546771E-02  0.1341606E+00
         21   -1    0    0  506  501  0.00000000000E+00  0.00000000000E+00  0.13854547529E+04  0.13854547529E+04  0.00000000000E+00 0. -1.
         21   -1    0    0  504  502 -0.00000000000E+00 -0.00000000000E+00 -0.53463053317E+02  0.53463053317E+02  0.00000000000E+00 0. -1.
         21    1    1    2  503  502  0.46397725359E+02 -0.43495310926E+02  0.14962097896E+02  0.65333416905E+02  0.00000000000E+00 0. -1.
         21    1    1    2  504  501 -0.59679845457E+02 -0.39376720358E+02  0.82896360063E+02  0.10947153316E+03  0.00000000000E+00 0.  1.
         21    1    1    2  505  503  0.44924383811E+02  0.71524679396E+02  0.10626254713E+03  0.13574133102E+03  0.00000000000E+00 0. -1.
         21    1    1    2  506  505 -0.31642263713E+02  0.11347351889E+02  0.11278706945E+04  0.11283715252E+04  0.00000000000E+00 0. -1.
<scales pt_clust_3="58.82171" pt_clust_4="75.73624" pt_clust_5="14000.00000" pt_clust_6="33.61540"></scales>
<clustering>
<clus scale="   33.615">  1  6  2 -1</clus>
<clus scale="   58.822">  2  3  1 -1</clus>
<clus scale="   75.736">  2  4  1 -1</clus>
<clus scale="   33.615">  1  3  2 -1</clus>
</clustering>
</event>
<event>
 6    0  0.5563122E+002  0.1149267E+03  0.7546771E-02  0.1251709E+00
         21   -1    0    0  503  501  0.00000000000E+00  0.00000000000E+00  0.10404347797E+03  0.10404347797E+03  0.00000000000E+00 0. -1.
         21   -1    0    0  504  502 -0.00000000000E+00 -0.00000000000E+00 -0.14320323995E+04  0.14320323995E+04  0.00000000000E+00 0.  1.
         21    1    1    2  503  506  0.93412045628E+02 -0.46344437798E+02  0.64383441186E+02  0.12255139608E+03  0.00000000000E+00 0. -1.
         21    1    1    2  504  501 -0.30286227598E+02 -0.40329563267E+02 -0.10522640405E+04  0.10534720406E+04  0.00000000000E+00 0.  1.
         21    1    1    2  505  502 -0.35950445676E+02  0.11276302381E+02 -0.96258913903E+02  0.10337005391E+03  0.00000000000E+00 0.  1.
         21    1    1    2  506  505 -0.27175372354E+02  0.75397698684E+02 -0.24384940822E+03  0.25668238685E+03  0.00000000000E+00 0.  1.
<scales pt_clust_3="103.64025" pt_clust_4="50.43540" pt_clust_5="34.05424" pt_clust_6="34.05424"></scales>
<clustering>
<clus scale="   34.054">  5  6 -1 -1</clus>
<clus scale="   50.435">  2  4  1 -1</clus>
<clus scale="  103.640">  1  3  2 -1</clus>
<clus scale="  103.640">  1  3  2 -1</clus>
</clustering>
</event>
<event>
 6    0  0.5563122E+002  0.1503556E+03  0.7546771E-02  0.1200037E+00
         21   -1    0    0  506  501  0.00000000000E+00  0.00000000000E+00  0.21959768991E+04  0.21959768991E+04  0.00000000000E+00 0. -1.
         21   -1    0    0  503  502 -0.00000000000E+00 -0.00000000000E+00 -0.48660979335E+03  0.48660979335E+03  0.00000000000E+00 0. -1.
         21    1    1    2  503  504 -0.12907541944E+03 -0.70132020157E+02 -0.46463232635E+03  0.48730089559E+03  0.00000000000E+00 0. -1.
         21    1    1    2  504  505  0.56755279888E+02  0.20763203821E+02  0.12536776167E+03  0.13917380535E+03  0.00000000000E+00 0.  1.
         21    1    1    2  505  501  0.53764357103E+02  0.19493487028E+02  0.22542612664E+03  0.23256728210E+03  0.00000000000E+00 0. -1.
         21    1    1    2  506  502  0.18555782446E+02  0.29875329308E+02  0.18232055438E+04  0.18235447094E+04  0.00000000000E+00 0. -1.
<scales pt_clust_3="145.96892" pt_clust_4="35.07276" pt_clust_5="35.07276" pt_clust_6="35.16891"></scales>
<clustering>
<clus scale="   35.073">  4  5 -1 -1</clus>
<clus scale="   35.169">  1  6  2 -1</clus>
<clus scale="  145.969">  2  3  1 -1</clus>
<clus scale="   35.169">  1  3  2 -1</clus>
</clustering>
</event>
<event>
 6    0  0.5563122E+002  0.1280706E+03  0.7546771E-02  0.1230347E+00
         21   -1    0    0  503  501  0.00000000000E+00  0.00000000000E+00  0.52764492101E+02  0.52764492101E+02  0.00000000000E+00 0. -1.
         21   -1    0    0  506  502 -0.00000000000E+00 -0.00000000000E+00 -0.15122553483E+04  0.15122553483E+04  0.00000000000E+00 0. -1.
         21    1    1    2  503  504  0.30613730425E+02 -0.16050752344E+02  0.22141619388E+02  0.41049707069E+02  0.00000000000E+00 0. -1.
         21    1    1    2  504  505 -0.58195644427E+02  0.57523728209E+02 -0.16661936749E+03  0.18562792344E+03  0.00000000000E+00 0. -1.
         21    1    1    2  505  502 -0.57188889746E+01  0.67273515344E+02 -0.11809250050E+03  0.13603040187E+03  0.00000000000E+00 0.  1.
         21    1    1    2  506  501  0.33300802977E+02 -0.10874649121E+03 -0.11969206075E+04  0.12023118080E+04  0.00000000000E+00 0. -1.
<scales pt_clust_3="34.56627" pt_clust_4="49.89064" pt_clust_5="49.89064" pt_clust_6="116.86864"></scales>
<clustering>
<clus scale="   34.566">  1  3  2 -1</clus>
<clus scale="   49.891">  4  5 -1 -1</clus>
<clus scale="  116.869">  2  6  1 -1</clus>
<clus scale="   34.566">  1  3  2 -1</clus>
</clustering>
</event>
<event>
 6    0  0.5563122E+002  0.1046000E+03  0.7546771E-02  0.1270910E+00
         21   -1    0    0  503  501  0.00000000000E+00  0.00000000000E+00  0.22478334601E+03  0.22478334601E+03  0.00000000000E+00 0. -1.
         21   -1    0    0  505  502 -0.00000000000E+00 -0.00000000000E+00 -0.78889187547E+03  0.78889187547E+03  0.00000000000E+00 0. -1.
         21    1    1    2  503  506  0.42746120181E+02  0.53332337889E+02  0.21226620382E+02  0.71569116720E+02  0.00000000000E+00 0. -1.
         21    1    1    2  504  502  0.13777221226E+03  0.19575622744E+02 -0.67475586560E+03  0.68895563401E+03  0.00000000000E+00 0. -1.
         21    1    1    2  505  501 -0.40032255709E+02 -0.26585436221E+02 -0.35328643454E+02  0.59644613877E+02  0.00000000000E+00 0. -1.
         21    1    1    2  506  504 -0.14048607673E+03 -0.46322524412E+02  0.12474935920E+03  0.19350585687E+03  0.00000000000E+00 0. -1.
<scales pt_clust_3="66.79642" pt_clust_4="14000.00000" pt_clust_5="48.05587" pt_clust_6="104.59997"></scales>
<clustering>
<clus scale="   48.056">  2  5  1 -1</clus>
<clus scale="   66.796">  1  3  2 -1</clus>
<clus scale="  104.600">  1  6  2 -1</clus>
<clus scale="   66.796">  1  3  2 -1</clus>
</clustering>
</event>
<event>
 6    0  0.5563122E+002  0.1042053E+03  0.7546771E-02  0.1271693E+00
         21   -1    0    0  505  501  0.00000000000E+00  0.00000000000E+00  0.35065338098E+03  0.35065338098E+03  0.00000000000E+00 0. -1.
         21   -1    0    0  504  502 -0.00000000000E+00 -0.00000000000E+00 -0.17576218075E+03  0.17576218075E+03  0.00000000000E+00 0.  1.
         21    1    1    2  503  506  0.13532167776E+03  0.62745170804E+02  0.11641424369E+03  0.18921202146E+03  0.00000000000E+00 0. -1.
         21    1    1    2  504  503 -0.76619919801E+02 -0.61961808020E+02 -0.94592486443E+02  0.13659288508E+03  0.00000000000E+00 0.  1.
         21    1    1    2  505  502 -0.72320218308E+01 -0.51607154518E+02  0.92921451263E+02  0.10653636300E+03  0.00000000000E+00 0. -1.
         21    1    1    2  506  501 -0.51469736124E+02  0.50823791735E+02  0.60147991716E+02  0.94074292186E+02  0.00000000000E+00 0. -1.
<scales pt_clust_3="14000.00000" pt_clust_4="104.20533" pt_clust_5="52.11142" pt_clust_6="64.07314"></scales>
<clustering>
<clus scale="   52.111">  1  5  2 -1</clus>
<clus scale="   64.073">  1  6  2 -1</clus>
<clus scale="  104.205">  2  4  1 -1</clus>
<clus scale="   52.111">  1  3  2 -1</clus>
</clustering>
</event>
<event>
 6    0  0.5563122E+002  0.1475330E+03  0.7546771E-02  0.1203538E+00
         21   -1    0    0  503  501  0.00000000000E+00  0.00000000000E+00  0.27772917677E+03  0.27772917677E+03  0.00000000000E+00 0.  1.
         21   -1    0    0  506  502 -0.00000000000E+00 -0.00000000000E+00 -0.51427133515E+03  0.51427133515E+03  0.00000000000E+00 0.  1.
         21    1    1    2  503  504 -0.55748706423E+02  0.53647114223E+00 -0.15495645341E+03  0.16468062583E+03  0.00000000000E+00 0.  1.
         21    1    1    2  504  502 -0.11466312531E+03  0.65031298689E+02 -0.21757706380E+03  0.25439434115E+03  0.00000000000E+00 0.  1.
         21    1    1    2  505  501  0.80922687708E+02 -0.36285188955E+02  0.22593152949E+03  0.24271413708E+03  0.00000000000E+00 0.  1.
         21    1    1    2  506  505  0.89489144027E+02 -0.29282580876E+02 -0.89940170656E+02  0.13021140787E+03  0.00000000000E+00 0.  1.
<scales pt_clust_3="38.49224" pt_clust_4="38.49224" pt_clust_5="88.68538" pt_clust_6="135.13959"></scales>
<clustering>
<clus scale="   38.492">  3  4 -1 -1</clus>
<clus scale="   88.685">  1  5  2 -1</clus>
<clus scale="  135.140">  2  6  1 -1</clus>
<clus scale="   88.685">  1  3  2 -1</clus>
</clustering>
</event>
<event>
 6    0  0.5563122E+002  0.6902814E+02  0.7546771E-02  0.1363429E+00
         21   -1    0    0  504  501  0.00000000000E+00  0.00000000000E+00  0.14069651731E+03  0.14069651731E+03  0.00000000000E+00 0.  1.
         21   -1    0    0  506  502 -0.00000000000E+00 -0.00000000000E+00 -0.54661755609E+03  0.54661755609E+03  0.00000000000E+00 0.  1.
         21    1    1    2  503  501  0.69127868108E+02  0.63158633230E+01  0.10314179418E+03  0.12432530710E+03  0.00000000000E+00 0.  1.
         21    1    1    2  504  505 -0.28206328520E+02 -0.60685731962E+02 -0.93414010935E+02  0.11491097629E+03  0.00000000000E+00 0.  1.
         21    1    1    2  505  502 -0.25969223219E+02 -0.23232289320E+02 -0.32884971540E+03  0.33069060334E+03  0.00000000000E+00 0.  1.
         21    1    1    2  506  503 -0.14952316369E+02  0.77602157959E+02 -0.86799106626E+02  0.11738718668E+03  0.00000000000E+00 0.  1.
<scales pt_clust_3="68.05692" pt_clust_4="69.02814" pt_clust_5="34.84451" pt_clust_6="14000.00000"></scales>
<clustering>
<clus scale="   34.845">  2  5  1 -1</clus>
<clus scale="   68.057">  1  3  2 -1</clus>
<clus scale="   69.028">  1  4  2 -1</clus>
<clus scale="   68.057">  1  3  2 -1</clus>
</clustering>
</event>
<event>
 6    0  0.5563122E+002  0.5792545E+02  0.7546771E-02  0.1406750E+00
         21   -1    0    0  506  501  0.00000000000E+00  0.00000000000E+00  0.82747168584E+02  0.82747168584E+02  0.00000000000E+00 0. -1.
         21   -1    0    0  504  502 -0.00000000000E+00 -0.00000000000E+00 -0.64403637193E+03  0.64403637193E+03  0.00000000000E+00 0. -1.
         21    1    1    2  503  502  0.57578868835E+02  0.12631332962E+02 -0.37458560094E+03  0.37919552890E+03  0.00000000000E+00 0. -1.
         21    1    1    2  504  505 -0.58937241088E+02  0.33727788671E+02 -0.15459476819E+03  0.16885113108E+03  0.00000000000E+00 0. -1.
         21    1    1    2  505  501 -0.50705008757E+02 -0.69301918152E+02  0.33250595286E+02  0.92083417940E+02  0.00000000000E+00 0. -1.
         21    1    1    2  506  503  0.52063381010E+02  0.22942796519E+02 -0.65359429514E+02  0.86653462601E+02  0.00000000000E+00 0. -1.
<scales pt_clust_3="14000.00000" pt_clust_4="57.92545" pt_clust_5="49.66114" pt_clust_6="56.89435"></scales>
<clustering>
<clus scale="   56.894">  1  6  2 -1</clus>
<clus scale="   49.661">  1  5  2 -1</clus>
<clus scale="   57.925">  1  4  2 -1</clus>
<clus scale="   56.894">  1  3  2 -1</clus>
</clustering>
</event>
<event>
 6    0  0.5563122E+002  0.7288442E+02  0.7546771E-02  0.1350550E+00
         21   -1    0    0  506  501  0.00000000000E+00  0.00000000000E+00  0.45680834968E+03  0.45680834968E+03  0.00000000000E+00 0.  1.
         21   -1    0    0  503  502 -0.00000000000E+00 -0.00000000000E+00 -0.15970722415E+03  0.15970722415E+03  0.00000000000E+00 0.  1.
         21    1    1    2  503  501 -0.14936921212E+02 -0.59637709428E+02  0.28043308500E+03  0.28709316112E+03  0.00000000000E+00 0.  1.
         21    1    1    2  504  505  0.17128774963E+02  0.10664752353E+03  0.91408704019E+02  0.14150137942E+03  0.00000000000E+00 0.  1.
         21    1    1    2  505  502 -0.37677247581E+02 -0.44164849478E+02 -0.11823350866E+03  0.13171663329E+03  0.00000000000E+00 0.  1.
         21    1    1    2  506  504  0.35485393830E+02 -0.28449646282E+01  0.43492845172E+02  0.56204400007E+02  0.00000000000E+00 0.  1.
<scales pt_clust_3="14000.00000" pt_clust_4="72.88442" pt_clust_5="57.70895" pt_clust_6="35.59926"></scales>
<clustering>
<clus scale="   35.599">  1  6  2 -1</clus>
<clus scale="   57.709">  2  5  1 -1</clus>
<clus scale="   72.884">  2  4  1 -1</clus>
<clus scale="   35.599">  1  3  2 -1</clus>
</clustering>
</event>
<event>
 6    0  0.5563122E+002  0.1020793E+03  0.7546771E-02  0.1275983E+00
         21   -1    0    0  505  501  0.00000000000E+00  0.00000000000E+00  0.20920510474E+04  0.20920510474E+04  0.00000000000E+00 0.  1.
         21   -1    0    0  506  502 -0.00000000000E+00 -0.00000000000E+00 -0.67696968760E+02  0.67696968760E+02  0.00000000000E+00 0. -1.
         21    1    1    2  503  504 -0.61978177632E+02  0.57291719233E+02  0.14844105114E+03  0.17075825386E+03  0.00000000000E+00 0. -1.
         21    1    1    2  504  502  0.12135723760E+03  0.17541438968E+02  0.45647871132E+02  0.13083963214E+03  0.00000000000E+00 0. -1.
         21    1    1    2  505  503 -0.26180394897E+02  0.20103607517E+02  0.16605118722E+04  0.16608399218E+04  0.00000000000E+00 0.  1.
         21    1    1    2  506  501 -0.33198665069E+02 -0.94936765719E+02  0.16975328424E+03  0.19731020845E+03  0.00000000000E+00 0. -1.
<scales pt_clust_3="96.56970" pt_clust_4="102.07932" pt_clust_5="33.00861" pt_clust_6="14000.00000"></scales>
<clustering>
<clus scale="   33.009">  1  5  2 -1</clus>
<clus scale="   96.570">  1  3  2 -1</clus>
<clus scale="  102.079">  2  4  1 -1</clus>
<clus scale="   33.009">  1  3  2 -1</clus>
</clustering>
</event>
<event>
 6    0  0.5563122E+002  0.2690769E+03  0.7546771E-02  0.1101809E+00
         21   -1    0    0  506  501  0.00000000000E+00  0.00000000000E+00  0.55695842029E+03  0.55695842029E+03  0.00000000000E+00 0. -1.
         21   -1    0    0  504  502 -0.00000000000E+00 -0.00000000000E+00 -0.61641141613E+03  0.61641141613E+03  0.00000000000E+00 0.  1.
         21    1    1    2  503  502 -0.24147577070E+03 -0.11820031723E+03 -0.47726281536E+03  0.54777884019E+03  0.00000000000E+00 0.  1.
         21    1    1    2  504  505  0.11530890909E+03  0.40597780179E+02  0.46757359131E+02  0.13088382216E+03  0.00000000000E+00 0. -1.
         21    1    1    2  505  501  0.13726236012E+03  0.22817040949E+02  0.21600125036E+02  0.14081242227E+03  0.00000000000E+00 0. -1.
         21    1    1    2  506  503 -0.11095498509E+02  0.54785496099E+02  0.34945233536E+03  0.35389475181E+03  0.00000000000E+00 0. -1.
<scales pt_clust_3="266.58951" pt_clust_4="34.21402" pt_clust_5="34.21402" pt_clust_6="55.89777"></scales>
<clustering>
<clus scale="   34.214">  4  5 -1 -1</clus>
<clus scale="   55.898">  1  6  2 -1</clus>
<clus scale="  266.590">  2  3  1 -1</clus>
<clus scale="   55.898">  1  3  2 -1</clus>
</clustering>
</event>
<event>
 6    0  0.5563122E+002  0.1165377E+03  0.7546771E-02  0.1248921E+00
         21   -1    0    0  506  501  0.00000000000E+00  0.00000000000E+00  0.11761846625E+03  0.11761846625E+03  0.00000000000E+00 0. -1.
         21   -1    0    0  503  502 -0.00000000000E+00 -0.00000000000E+00 -0.83290266172E+03  0.83290266172E+03  0.00000000000E+00 0.  1.
         21    1    1    2  503  505 -0.57241469295E+02 -0.34473149084E+02 -0.12382871140E+03  0.14070726201E+03  0.00000000000E+00 0. -1.
         21    1    1    2  504  502  0.10034725675E+03  0.66752909882E+02 -0.50364922954E+03  0.51786877617E+03  0.00000000000E+00 0.  1.
         21    1    1    2  505  501 -0.95169761112E+02 -0.27937575817E+02  0.72812875288E+02  0.12304270145E+03  0.00000000000E+00 0. -1.
         21    1    1    2  506  504  0.52063973660E+02 -0.43421849811E+01 -0.16061912981E+03  0.16890238834E+03  0.00000000000E+00 0.  1.
<scales pt_clust_3="66.82053" pt_clust_4="37.69519" pt_clust_5="101.50432" pt_clust_6="37.69519"></scales>
<clustering>
<clus scale="   37.695">  4  6 -1 -1</clus>
<clus scale="   66.821">  2  3  1 -1</clus>
<clus scale="  101.504">  1  5  2 -1</clus>
<clus scale="  101.504">  1  3  2 -1</clus>
</clustering>
</event>
<event>
 6    0  0.5563122E+002  0.1828938E+03  0.7546771E-02  0.1165031E+00
         21   -1    0    0  505  501  0.00000000000E+00  0.00000000000E+00  0.13717799892E+03  0.13717799892E+03  0.00000000000E+00 0. -1.
         21   -1    0    0  503  502 -0.00000000000E+00 -0.00000000000E+00 -0.51463897577E+03  0.51463897577E+03  0.00000000000E+00 0. -1.
         21    1    1    2  503  504  0.72715202997E+02  0.50035327626E+02 -0.19092109439E+03  0.21033758352E+03  0.00000000000E+00 0. -1.
         21    1    1    2  504  506  0.47716438817E+02  0.77410905498E+02 -0.15409286093E+03  0.17892433209E+03  0.00000000000E+00 0. -1.
         21    1    1    2  505  502 -0.89177832765E+02 -0.17519244833E+03  0.65281958585E+00  0.19658460260E+03  0.00000000000E+00 0. -1.
         21    1    1    2  506  501 -0.31253809049E+02  0.47746215200E+02 -0.33099841111E+02  0.65970456476E+02  0.00000000000E+00 0.  1.
<scales pt_clust_3="41.14250" pt_clust_4="41.14250" pt_clust_5="178.06254" pt_clust_6="57.06577"></scales>
<clustering>
<clus scale="   41.142">  3  4 -1 -1</clus>
<clus scale="   57.066">  1  6  2 -1</clus>
<clus scale="  178.063">  1  5  2 -1</clus>
<clus scale="   57.066">  1  3  2 -1</clus>
</clustering>
</event>
<event>
 6    0  0.5563122E+002  0.1184652E+03  0.7546771E-02  0.1245651E+00
         21   -1    0    0  506  501  0.00000000000E+00  0.00000000000E+00  0.69792404260E+03  0.69792404260E+03  0.00000000000E+00 0. -1.
         21   -1    0    0  503  502 -0.00000000000E+00 -0.00000000000E+00 -0.27255136443E+03  0.27255136443E+03  0.00000000000E+00 0.  1.
         21    1    1    2  503  505  0.17354830774E+02  0.27569086366E+02  0.10482098415E+02  0.34221616873E+02  0.00000000000E+00 0.  1.
         21    1    1    2  504  502  0.18122985224E+02 -0.37726316256E+02 -0.14046151796E+03  0.14656450989E+03  0.00000000000E+00 0.  1.
         21    1    1    2  505  501 -0.10205164536E+03 -0.62423670545E+02  0.64530746951E+03  0.65630250889E+03  0.00000000000E+00 0. -1.
         21    1    1    2  506  504  0.66573829365E+02  0.72580900435E+02 -0.89955371801E+02  0.13338677138E+03  0.00000000000E+00 0.  1.
<scales pt_clust_3="32.57675" pt_clust_4="35.69985" pt_clust_5="118.46518" pt_clust_6="14000.00000"></scales>
<clustering>
<clus scale="   32.577">  2  3  1 -1</clus>
<clus scale="   35.700">  2  4  1 -1</clus>
<clus scale="  118.465">  1  5  2 -1</clus>
<clus scale="  118.465">  1  3  2 -1</clus>
</clustering>
</event>
<event>
 6    0  0.5563122E+002  0.7951191E+02  0.7546771E-02  0.1330442E+00
         21   -1    0    0  504  501  0.00000000000E+00  0.00000000000E+00  0.17236391818E+03  0.17236391818E+03  0.00000000000E+00 0. -1.
         21   -1    0    0  506  502 -0.00000000000E+00 -0.00000000000E+00 -0.10735750936E+04  0.10735750936E+04  0.00000000000E+00 0.  1.
         21    1    1    2  503  502 -0.10740188845E+02  0.38070549598E+02 -0.29225063449E+03  0.29491549936E+03  0.00000000000E+00 0.  1.
         21    1    1    2  504  503 -0.59188339320E+02  0.17330460355E+02 -0.19263710082E+03  0.20226877411E+03  0.00000000000E+00 0.  1.
         21    1    1    2  505  501 -0.31370505495E+02 -0.51860752166E+02  0.15608558606E+03  0.16744060560E+03  0.00000000000E+00 0. -1.
         21    1    1    2  506  505  0.10129903366E+03 -0.35402577868E+01 -0.57240902620E+03  0.58131413274E+03  0.00000000000E+00 0.  1.
<scales pt_clust_3="39.55652" pt_clust_4="14000.00000" pt_clust_5="60.41433" pt_clust_6="79.51191"></scales>
<clustering>
<clus scale="   39.557">  2  3  1 -1</clus>
<clus scale="   60.414">  1  5  2 -1</clus>
<clus scale="   79.512">  2  6  1 -1</clus>
<clus scale="   60.414">  1  3  2 -1</clus>
</clustering>
</event>
<event>
 6    0  0.5563122E+002  0.1604552E+03  0.7546771E-02  0.1188184E+00
         21   -1    0    0  505  501  0.00000000000E+00  0.00000000000E+00  0.54337641363E+02  0.54337641363E+02  0.00000000000E+00 0.  1.
         21   -1    0    0  506  502 -0.00000000000E+00 -0.00000000000E+00 -0.49080213579E+03  0.49080213579E+03  0.00000000000E+00 0.  1.
         21    1    1    2  503  501 -0.84990666897E+02 -0.29458284204E+01 -0.39904714439E+02  0.93938690639E+02  0.00000000000E+00 0.  1.
         21    1    1    2  504  502  0.94154549145E+02  0.22915617899E+02 -0.22785364864E+03  0.24760349324E+03  0.00000000000E+00 0.  1.
         21    1    1    2  505  504  0.50654762190E+02 -0.25117604275E+01 -0.62837374594E+02  0.80751158003E+02  0.00000000000E+00 0.  1.
         21    1    1    2  506  503 -0.59818644438E+02 -0.17458029051E+02 -0.10586875675E+03  0.12284643526E+03  0.00000000000E+00 0.  1.
<scales pt_clust_3="56.52131" pt_clust_4="152.69416" pt_clust_5="31.77789" pt_clust_6="56.52131"></scales>
<clustering>
<clus scale="   31.778">  4  5 -1 -1</clus>
<clus scale="   56.521">  3  6 -1 -1</clus>
<clus scale="  152.694">  2  4  1 -1</clus>
<clus scale="  160.455">  1  3  2 -1</clus>
</clustering>
</event>
<event>
 6    0  0.5563122E+002  0.1761266E+03  0.7546771E-02  0.1171605E+00
         21   -1    0    0  506  501  0.00000000000E+00  0.00000000000E+00  0.80685033102E+03  0.80685033102E+03  0.00000000000E+00 0. -1.
         21   -1    0    0  503  502 -0.00000000000E+00 -0.00000000000E+00 -0.14883547702E+04  0.14883547702E+04  0.00000000000E+00 0.  1.
         21    1    1    2  503  505 -0.17159165464E+03 -0.37222420535E+02 -0.12229135561E+04  0.12354540745E+04  0.00000000000E+00 0.  1.
         21    1    1    2  504  502  0.86281100308E+01  0.37912042017E+02 -0.91838187900E+02  0.99729734630E+02  0.00000000000E+00 0.  1.
         21    1    1    2  505  501  0.17831068485E+03  0.29182520465E+02 -0.11294111988E+03  0.21307748917E+03  0.00000000000E+00 0. -1.
         21    1    1    2  506  504 -0.15347140239E+02 -0.29872141947E+02  0.74618842469E+03  0.74694380292E+03  0.00000000000E+00 0. -1.
<scales pt_clust_3="14000.00000" pt_clust_4="36.75612" pt_clust_5="176.12661" pt_clust_6="33.58392"></scales>
<clustering>
<clus scale="   33.584">  1  6  2 -1</clus>
<clus scale="   36.756">  1  4  2 -1</clus>
<clus scale="  176.127">  1  5  2 -1</clus>
<clus scale="   33.584">  1  3  2 -1</clus>
</clustering>
</event>
<event>
 6    0  0.5563122E+002  0.7861837E+02  0.7546771E-02  0.1333019E+00
         21   -1    0    0  504  501  0.00000000000E+00  0.00000000000E+00  0.27449855737E+03  0.27449855737E+03  0.00000000000E+00 0.  1.
         21   -1    0    0  503  502 -0.00000000000E+00 -0.00000000000E+00 -0.80643207529E+02  0.80643207529E+02  0.00000000000E+00 0.  1.
         21    1    1    2  503  501 -0.90605640936E+02 -0.39062680473E+02  0.14926145794E+03  0.17892528609E+03  0.00000000000E+00 0.  1.
         21    1    1    2  504  505  0.26415843162E+02  0.60492797248E+02  0.42006725488E+02  0.78241550822E+02  0.00000000000E+00 0.  1.
         21    1    1    2  505  506  0.42092232163E+02 -0.42333919459E+02  0.19957763506E+02  0.62946239518E+02  0.00000000000E+00 0.  1.
         21    1    1    2  506  502  0.22097565610E+02  0.20903802684E+02 -0.17370597095E+02  0.35028688471E+02  0.00000000000E+00 0.  1.
<scales pt_clust_3="78.61837" pt_clust_4="14000.00000" pt_clust_5="61.18678" pt_clust_6="30.41827"></scales>
<clustering>
<clus scale="   30.418">  2  6  1 -1</clus>
<clus scale="   61.187">  2  5  1 -1</clus>
<clus scale="   78.618">  1  3  2 -1</clus>
<clus scale="   78.618">  1  3  2 -1</clus>
</clustering>
</event>
<event>
 6    0  0.5563122E+002  0.3030459E+03  0.7546771E-02  0.1083728E+00
         21   -1    0    0  506  501  0.00000000000E+00  0.00000000000E+00  0.12414945064E+03  0.12414945064E+03  0.00000000000E+00 0. -1.
         21   -1    0    0  503  502 -0.00000000000E+00 -0.00000000000E+00 -0.84569626360E+03  0.84569626360E+03  0.00000000000E+00 0. -1.
         21    1    1    2  503  505 -0.12618585521E+03 -0.81311000374E+02 -0.19754038461E+03  0.24810592977E+03  0.00000000000E+00 0. -1.
         21    1    1    2  504  501  0.23784188256E+03  0.19236097258E+03 -0.29543854505E+03  0.42527101803E+03  0.00000000000E+00 0. -1.
         21    1    1    2  505  504 -0.12371151054E+03 -0.79730724568E+02 -0.14585975355E+03  0.20721147166E+03  0.00000000000E+00 0. -1.
         21    1    1    2  506  502  0.12055483177E+02 -0.31319247638E+02 -0.82708129746E+02  0.89257294790E+02  0.00000000000E+00 0. -1.
<scales pt_clust_3="31.42376" pt_clust_4="301.37964" pt_clust_5="31.42376" pt_clust_6="33.55935"></scales>
<clustering>
<clus scale="   31.424">  3  5 -1 -1</clus>
<clus scale="   33.559">  2  6  1 -1</clus>
<clus scale="  301.380">  1  4  2 -1</clus>
<clus scale="  301.380">  1  3  2 -1</clus>
</clustering>
</event>
<event>
 6    0  0.5563122E+002  0.1170859E+03  0.7546771E-02  0.1247983E+00
         21   -1    0    0  504  501  0.00000000000E+00  0.00000000000E+00  0.42610372693E+03  0.42610372693E+03  0.00000000000E+00 0.  1.
         21   -1    0    0  505  502 -0.00000000000E+00 -0.00000000000E+00 -0.11132502172E+03  0.11132502172E+03  0.00000000000E+00 0.  1.
         21    1    1    2  503  502  0.77941081900E+02  0.20712351938E+01  0.59276392432E+02  0.97942804548E+02  0.00000000000E+00 0.  1.
         21    1    1    2  504  503  0.50905442163E+02 -0.23607571834E+02  0.19938513315E+03  0.20713066603E+03  0.00000000000E+00 0.  1.
         21    1    1    2  505  506 -0.15026145837E+03 -0.35622245073E+01 -0.17853419677E+02  0.15136029832E+03  0.00000000000E+00 0.  1.
         21    1    1    2  506  501  0.21414934305E+02  0.25098561148E+02  0.73970599299E+02  0.80994979744E+02  0.00000000000E+00 0.  1.
<scales pt_clust_3="14000.00000" pt_clust_4="64.02317" pt_clust_5="117.08595" pt_clust_6="32.99299"></scales>
<clustering>
<clus scale="   32.993">  1  6  2 -1</clus>
<clus scale="   64.023">  1  4  2 -1</clus>
<clus scale="  117.086">  2  5  1 -1</clus>
<clus scale="   32.993">  1  3  2 -1</clus>
</clustering>
</event>
<event>
 6    0  0.5563122E+002  0.8517240E+02  0.7546771E-02  0.1314982E+00
         21   -1    0    0  506  501  0.00000000000E+00  0.00000000000E+00  0.45276201476E+03  0.45276201476E+03  0.00000000000E+00 0. -1.
         21   -1    0    0  503  502 -0.00000000000E+00 -0.00000000000E+00 -0.55104995757E+03  0.55104995757E+03  0.00000000000E+00 0.  1.
         21    1    1    2  503  505  0.29521002867E+02  0.66138296984E+01 -0.41020809921E+03  0.41132215721E+03  0.00000000000E+00 0.  1.
         21    1    1    2  504  502 -0.63573068609E+02  0.51620478861E+01 -0.38204458445E+02  0.74348923569E+02  0.00000000000E+00 0. -1.
         21    1    1    2  505  501 -0.38423031817E+02 -0.58690895479E+02 -0.64093798968E+02  0.95020869562E+02  0.00000000000E+00 0. -1.
         21    1    1    2  506  504  0.72475097559E+02  0.46915017895E+02  0.41421841381E+03  0.42312002199E+03  0.00000000000E+00 0. -1.
<scales pt_clust_3="30.25281" pt_clust_4="52.31744" pt_clust_5="14000.00000" pt_clust_6="85.17240"></scales>
<clustering>
<clus scale="   30.253">  2  3  1 -1</clus>
<clus scale="   52.317">  2  4  1 -1</clus>
<clus scale="   85.172">  1  6  2 -1</clus>
<clus scale="   85.172">  1  3  2 -1</clus>
</clustering>
</event>
<event>
 6    0  0.5563122E+002  0.1029538E+03  0.7546771E-02  0.1274204E+00
         21   -1    0    0  506  501  0.00000000000E+00  0.00000000000E+00  0.46074824724E+03  0.46074824724E+03  0.00000000000E+00 0.  1.
         21   -1    0    0  503  502 -0.00000000000E+00 -0.00000000000E+00 -0.29988869368E+03  0.29988869368E+03  0.00000000000E+00 0. -1.
         21    1    1    2  503  505  0.89346343402E+02  0.46846349073E+02 -0.20105869266E+03  0.22494876615E+03  0.00000000000E+00 0. -1.
         21    1    1    2  504  502 -0.14236597056E+02  0.81574037764E+02  0.18913029753E+02  0.84939431523E+02  0.00000000000E+00 0. -1.
         21    1    1    2  505  501 -0.54404346842E+02 -0.15366141241E+03  0.72710271990E+02  0.17848934498E+03  0.00000000000E+00 0.  1.
         21    1    1    2  506  504 -0.20705399504E+02  0.25241025574E+02  0.27029494447E+03  0.27225939827E+03  0.00000000000E+00 0.  1.
<scales pt_clust_3="14000.00000" pt_clust_4="90.70396" pt_clust_5="102.95379" pt_clust_6="32.64694"></scales>
<clustering>
<clus scale="   32.647">  1  6  2 -1</clus>
<clus scale="   90.704">  1  4  2 -1</clus>
<clus scale="  102.954">  1  5  2 -1</clus>
<clus scale="   32.647">  1  3  2 -1</clus>
</clustering>
</event>
<event>
 6    0  0.5563122E+002  0.9668456E+02  0.7546771E-02  0.1287426E+00
         21   -1    0    0  504  501  0.00000000000E+00  0.00000000000E+00  0.71584326750E+03  0.71584326750E+03  0.00000000000E+00 0.  1.
         21   -1    0    0  506  502 -0.00000000000E+00 -0.00000000000E+00 -0.23637794113E+03  0.23637794113E+03  0.00000000000E+00 0. -1.
         21    1    1    2  503  501  0.82704662535E+02  0.53633460475E+02  0.67511255424E+03  0.68227089209E+03  0.00000000000E+00 0.  1.
         21    1    1    2  504  505 -0.58782298895E+02 -0.17877051904E+02 -0.57951963108E+02  0.84459325573E+02  0.00000000000E+00 0. -1.
         21    1    1    2  505  502 -0.25696010388E+02 -0.75660041216E+02 -0.11345257761E+03  0.13876676170E+03  0.00000000000E+00 0. -1.
         21    1    1    2  506  503  0.17736467479E+01  0.39903632645E+02 -0.24242687152E+02  0.46724229276E+02  0.00000000000E+00 0. -1.
<scales pt_clust_3="14000.00000" pt_clust_4="96.68456" pt_clust_5="56.26516" pt_clust_6="39.94303"></scales>
<clustering>
<clus scale="   39.943">  2  6  1 -1</clus>
<clus scale="   56.265">  2  5  1 -1</clus>
<clus scale="   96.685">  2  4  1 -1</clus>
<clus scale="   96.685">  1  3  2 -1</clus>
</clustering>
</event>
<event>
 6    0  0.5563122E+002  0.8345519E+02  0.7546771E-02  0.1319523E+00
         21   -1    0    0  503  501  0.00000000000E+00  0.00000000000E+00  0.14688916136E+04  0.14688916136E+04  0.00000000000E+00 0.  1.
         21   -1    0    0  505  502 -0.00000000000E+00 -0.00000000000E+00 -0.37780940977E+02  0.37780940977E+02  0.00000000000E+00 0. -1.
         21    1    1    2  503  506 -0.43714578454E+01 -0.90006342029E+02  0.51909143205E+03  0.52685497633E+03  0.00000000000E+00 0.  1.
         21    1    1    2  504  501 -0.10779535102E+02  0.79467930938E+02  0.72640692973E+03  0.73082034590E+03  0.00000000000E+00 0.  1.
         21    1    1    2  505  504 -0.65943171267E+01 -0.47277904708E+02 -0.55926864428E+01  0.48062078956E+02  0.00000000000E+00 0. -1.
         21    1    1    2  506  502  0.21745310074E+02  0.57816315798E+02  0.19120499725E+03  0.20093515336E+03  0.00000000000E+00 0.  1.
<scales pt_clust_3="83.45519" pt_clust_4="14000.00000" pt_clust_5="47.73558" pt_clust_6="41.34722"></scales>
<clustering>
<clus scale="   47.736">  2  5  1 -1</clus>
<clus scale="   41.347">  2  6  1 -1</clus>
<clus scale="   83.455">  2  3  1 -1</clus>
<clus scale="   83.455">  1  3  2 -1</clus>
</clustering>
</event>
<event>
 6    0  0.5563122E+002  0.1172364E+03  0.7546771E-02  0.1247727E+00
         21   -1    0    0  506  501  0.00000000000E+00  0.00000000000E+00  0.16180532388E+03  0.16180532388E+03  0.00000000000E+00 0.  1.
         21   -1    0    0  505  502 -0.00000000000E+00 -0.00000000000E+00 -0.16726029494E+03  0.16726029494E+03  0.00000000000E+00 0.  1.
         21    1    1    2  503  504  0.37031379059E+02 -0.54675510981E+02 -0.48521151482E+02  0.81945327367E+02  0.00000000000E+00 0.  1.
         21    1    1    2  504  502  0.62193198253E+02 -0.16822034321E+02 -0.49807063078E+02  0.81435362590E+02  0.00000000000E+00 0.  1.
         21    1    1    2  505  501 -0.49326126370E+02  0.43715393460E+02  0.85716596291E+02  0.10812694968E+03  0.00000000000E+00 0. -1.
         21    1    1    2  506  503 -0.49898450942E+02  0.27782151843E+02  0.71566472123E+01  0.57557979175E+02  0.00000000000E+00 0.  1.
<scales pt_clust_3="44.91170" pt_clust_4="44.91170" pt_clust_5="108.06012" pt_clust_6="57.11132"></scales>
<clustering>
<clus scale="   44.912">  3  4 -1 -1</clus>
<clus scale="   57.111">  1  6  2 -1</clus>
<clus scale="  108.060">  1  5  2 -1</clus>
<clus scale="   57.111">  1  3  2 -1</clus>
</clustering>
</event>
<event>
 6    0  0.5563122E+002  0.6653073E+02  0.7546771E-02  0.1372304E+00
         21   -1    0    0  506  501  0.00000000000E+00  0.00000000000E+00  0.95819612827E+02  0.95819612827E+02  0.00000000000E+00 0. -1.
         21   -1    0    0  503  502 -0.00000000000E+00 -0.00000000000E+00 -0.29044392610E+03  0.29044392610E+03  0.00000000000E+00 0. -1.
         21    1    1    2  503  504 -0.31442888458E+01  0.39148289961E+02 -0.43586793077E+02  0.58670978260E+02  0.00000000000E+00 0. -1.
         21    1    1    2  504  501  0.54796778775E+02  0.20409354738E+02 -0.50458157327E+02  0.77235059175E+02  0.00000000000E+00 0. -1.
         21    1    1    2  505  502 -0.87900026842E+02 -0.14053672564E+01 -0.14437440330E+03  0.16903360052E+03  0.00000000000E+00 0. -1.
         21    1    1    2  506  505  0.36247536912E+02 -0.58152277443E+02  0.43795040427E+02  0.81323900977E+02  0.00000000000E+00 0. -1.
<scales pt_clust_3="39.27436" pt_clust_4="62.15631" pt_clust_5="66.53073" pt_clust_6="14000.00000"></scales>
<clustering>
<clus scale="   39.274">  2  3  1 -1</clus>
<clus scale="   62.156">  2  4  1 -1</clus>
<clus scale="   66.531">  2  5  1 -1</clus>
<clus scale="   66.531">  1  3  2 -1</clus>
</clustering>
</event>
<event>
 6    0  0.5563122E+002  0.1521952E+03  0.7546771E-02  0.1197801E+00
         21   -1    0    0  503  501  0.00000000000E+00  0.00000000000E+00  0.12673145084E+04  0.12673145084E+04  0.00000000000E+00 0.  1.
         21   -1    0    0  506  502 -0.00000000000E+00 -0.00000000000E+00 -0.39951036399E+03  0.39951036399E+03  0.00000000000E+00 0. -1.
         21    1    1    2  503  505 -0.26543731249E+02 -0.39243237681E+02  0.32180977455E+02  0.57273175940E+02  0.00000000000E+00 0. -1.
         21    1    1    2  504  501  0.10919158276E+03  0.62064211832E+02  0.10275314436E+04  0.10351790356E+04  0.00000000000E+00 0.  1.
         21    1    1    2  505  502 -0.17108985973E+03  0.97473880120E+02  0.11857530908E+03  0.22985430457E+03  0.00000000000E+00 0. -1.
         21    1    1    2  506  504  0.88442008217E+02 -0.12029485427E+03 -0.31048358575E+03  0.34451835626E+03  0.00000000000E+00 0. -1.
<scales pt_clust_3="47.37722" pt_clust_4="91.50316" pt_clust_5="14000.00000" pt_clust_6="152.19524"></scales>
<clustering>
<clus scale="   47.377">  1  3  2 -1</clus>
<clus scale="   91.503">  1  4  2 -1</clus>
<clus scale="  152.195">  2  6  1 -1</clus>
<clus scale="   47.377">  1  3  2 -1</clus>
</clustering>
</event>
<event>
 6    0  0.5563122E+002  0.6722743E+02  0.7546771E-02  0.1369783E+00
         21   -1    0    0  506  501  0.00000000000E+00  0.00000000000E+00  0.91092410003E+03  0.91092410003E+03  0.00000000000E+00 0.  1.
         21   -1    0    0  503  502 -0.00000000000E+00 -0.00000000000E+00 -0.25632148859E+03  0.25632148859E+03  0.00000000000E+00 0.  1.
         21    1    1    2  503  505  0.49524759245E+02  0.71221473314E+02  0.34296165979E+03  0.35376249113E+03  0.00000000000E+00 0.  1.
         21    1    1    2  504  502 -0.39072746777E+01 -0.67020963556E+02 -0.23817357822E+03  0.24745450029E+03  0.00000000000E+00 0.  1.
         21    1    1    2  505  501 -0.84043831407E+02 -0.88260845660E+01  0.46740632301E+03  0.47498414306E+03  0.00000000000E+00 0.  1.
         21    1    1    2  506  504  0.38426346840E+02  0.46255748079E+01  0.82408206855E+02  0.91044454146E+02  0.00000000000E+00 0.  1.
<scales pt_clust_3="67.22743" pt_clust_4="14000.00000" pt_clust_5="62.38246" pt_clust_6="38.70375"></scales>
<clustering>
<clus scale="   38.704">  1  6  2 -1</clus>
<clus scale="   62.382">  1  5  2 -1</clus>
<clus scale="   67.227">  1  3  2 -1</clus>
<clus scale="   38.704">  1  3  2 -1</clus>
</clustering>
</event>
<event>
 6    0  0.5563122E+002  0.1230143E+03  0.7546771E-02  0.1238206E+00
         21   -1    0    0  505  501  0.00000000000E+00  0.00000000000E+00  0.10673351382E+03  0.10673351382E+03  0.00000000000E+00 0.  1.
         21   -1    0    0  506  502 -0.00000000000E+00 -0.00000000000E+00 -0.18056525574E+03  0.18056525574E+03  0.00000000000E+00 0.  1.
         21    1    1    2  503  501  0.57495869799E+02 -0.50440168559E+02  0.10113622417E+00  0.76485265749E+02  0.00000000000E+00 0.  1.
         21    1    1    2  504  502 -0.31183839371E+02 -0.26408797318E+01 -0.37753864371E+02  0.49038355994E+02  0.00000000000E+00 0.  1.
         21    1    1    2  505  504 -0.27674249681E+02  0.10323331477E+03 -0.17836338819E+02  0.10835643200E+03  0.00000000000E+00 0.  1.
         21    1    1    2  506  503  0.13622192535E+01 -0.50152266482E+02 -0.18342674951E+02  0.53418715811E+02  0.00000000000E+00 0.  1.
<scales pt_clust_3="46.32812" pt_clust_4="31.29546" pt_clust_5="110.33284" pt_clust_6="46.32812"></scales>
<clustering>
<clus scale="   31.295">  2  4  1 -1</clus>
<clus scale="   46.328">  3  6 -1 -1</clus>
<clus scale="  110.333">  1  5  2 -1</clus>
<clus scale="  110.333">  1  3  2 -1</clus>
</clustering>
</event>
<event>
 6    0  0.5563122E+002  0.2417368E+03  0.7546771E-02  0.1118641E+00
         21   -1    0    0  503  501  0.00000000000E+00  0.00000000000E+00  0.46468144150E+02  0.46468144150E+02  0.00000000000E+00 0. -1.
         21   -1    0    0  504  502 -0.00000000000E+00 -0.00000000000E+00 -0.17558876589E+04  0.17558876589E+04  0.00000000000E+00 0.  1.
         21    1    1    2  503  505  0.52867424011E+02 -0.22066383479E+02 -0.10611759804E+03  0.12059367486E+03  0.00000000000E+00 0. -1.
         21    1    1    2  504  501 -0.22150782479E+03  0.94424350455E+02 -0.44978184729E+03  0.51018171719E+03  0.00000000000E+00 0.  1.
         21    1    1    2  505  506  0.14417712407E+03 -0.32529200716E+02 -0.68668546278E+03  0.70241164341E+03  0.00000000000E+00 0. -1.
         21    1    1    2  506  502  0.24463276710E+02 -0.39828766261E+02 -0.46683460661E+03  0.46916876757E+03  0.00000000000E+00 0. -1.
<scales pt_clust_3="50.50150" pt_clust_4="226.81015" pt_clust_5="50.50150" pt_clust_6="46.74166"></scales>
<clustering>
<clus scale="   46.742">  2  6  1 -1</clus>
<clus scale="   50.502">  3  5 -1 -1</clus>
<clus scale="  226.810">  1  4  2 -1</clus>
<clus scale="  226.810">  1  3  2 -1</clus>
</clustering>
</event>
<event>
 6    0  0.5563122E+002  0.1365144E+03  0.7546771E-02  0.1218098E+00
         21   -1    0    0  504  501  0.00000000000E+00  0.00000000000E+00  0.22757676581E+04  0.22757676581E+04  0.00000000000E+00 0.  1.
         21   -1    0    0  503  502 -0.00000000000E+00 -0.00000000000E+00 -0.56844625933E+02  0.56844625933E+02  0.00000000000E+00 0. -1.
         21    1    1    2  503  506  0.10113012857E+03 -0.14024905087E+03  0.29708385938E+03  0.34373815424E+03  0.00000000000E+00 0. -1.
         21    1    1    2  504  505 -0.36732978553E+02  0.80927278753E+01  0.12831857095E+03  0.13371783579E+03  0.00000000000E+00 0. -1.
         21    1    1    2  505  502 -0.10717948403E+03  0.64808033226E+02  0.10138611922E+03  0.16114176410E+03  0.00000000000E+00 0. -1.
         21    1    1    2  506  501  0.42782334011E+02  0.67348289774E+02  0.16921344826E+04  0.16940145299E+04  0.00000000000E+00 0.  1.
<scales pt_clust_3="136.51443" pt_clust_4="37.61388" pt_clust_5="14000.00000" pt_clust_6="75.01423"></scales>
<clustering>
<clus scale="   37.614">  1  4  2 -1</clus>
<clus scale="   75.014">  1  6  2 -1</clus>
<clus scale="  136.514">  1  3  2 -1</clus>
<clus scale="   37.614">  1  3  2 -1</clus>
</clustering>
</event>
<event>
 6    0  0.5563122E+002  0.1564681E+03  0.7546771E-02  0.1192743E+00
         21   -1    0    0  504  501  0.00000000000E+00  0.00000000000E+00  0.33203831421E+03  0.33203831421E+03  0.00000000000E+00 0. -1.
         21   -1    0    0  506  502 -0.00000000000E+00 -0.00000000000E+00 -0.13941693260E+04  0.13941693260E+04  0.00000000000E+00 0.  1.
         21    1    1    2  503  505 -0.55699700051E+02  0.47419304257E+02  0.50358451792E+02  0.88808899716E+02  0.00000000000E+00 0.  1.
         21    1    1    2  504  502  0.97312930928E+02 -0.73500395018E+02  0.47738018839E+02  0.13096195263E+03  0.00000000000E+00 0. -1.
         21    1    1    2  505  501 -0.58276469301E+02  0.67317813870E+02  0.16125625195E+03  0.18420481462E+03  0.00000000000E+00 0. -1.
         21    1    1    2  506  503  0.16663238423E+02 -0.41236723109E+02 -0.13214837344E+04  0.13222319732E+04  0.00000000000E+00 0.  1.
<scales pt_clust_3="52.43215" pt_clust_4="144.50513" pt_clust_5="52.43215" pt_clust_6="44.47618"></scales>
<clustering>
<clus scale="   44.476">  2  6  1 -1</clus>
<clus scale="   52.432">  3  5 -1 -1</clus>
<clus scale="  144.505">  2  4  1 -1</clus>
<clus scale="  156.468">  1  3  2 -1</clus>
</clustering>
</event>
<event>
 6    0  0.5563122E+002  0.1095804E+03  0.7546771E-02  0.1261349E+00
         21   -1    0    0  504  501  0.00000000000E+00  0.00000000000E+00  0.23467925092E+03  0.23467925092E+03  0.00000000000E+00 0.  1.
         21   -1    0    0  505  502 -0.00000000000E+00 -0.00000000000E+00 -0.14900233841E+03  0.14900233841E+03  0.00000000000E+00 0.  1.
         21    1    1    2  503  502 -0.79723637253E+01 -0.72849128939E+02 -0.34034064090E+01  0.73363051639E+02  0.00000000000E+00 0.  1.
         21    1    1    2  504  503  0.10085192608E+03  0.32771433079E+02  0.15146907265E+03  0.18489985882E+03  0.00000000000E+00 0.  1.
         21    1    1    2  505  506 -0.60183391008E+02  0.18251751772E+02 -0.58539766293E+02  0.85918980636E+02  0.00000000000E+00 0.  1.
         21    1    1    2  506  501 -0.32696171350E+02  0.21825944088E+02 -0.38489874436E+01  0.39499698235E+02  0.00000000000E+00 0.  1.
<scales pt_clust_3="73.28406" pt_clust_4="101.99616" pt_clust_5="31.67091" pt_clust_6="31.67091"></scales>
<clustering>
<clus scale="   31.671">  5  6 -1 -1</clus>
<clus scale="   73.284">  2  3  1 -1</clus>
<clus scale="  101.996">  1  4  2 -1</clus>
<clus scale="  101.996">  1  3  2 -1</clus>
</clustering>
</event>
<event>
 6    0  0.5563122E+002  0.1858930E+03  0.7546771E-02  0.1162219E+00
         21   -1    0    0  504  501  0.00000000000E+00  0.00000000000E+00  0.18813611517E+03  0.18813611517E+03  0.00000000000E+00 0.  1.
         21   -1    0    0  505  502 -0.00000000000E+00 -0.00000000000E+00 -0.78239457607E+03  0.78239457607E+03  0.00000000000E+00 0.  1.
         21    1    1    2  503  506 -0.48302306868E+02 -0.15499680349E+02 -0.10158587006E+03  0.11354753161E+03  0.00000000000E+00 0. -1.
         21    1    1    2  504  503  0.50840821856E+02  0.39225945641E+02 -0.47039812812E+02  0.79600301305E+02  0.00000000000E+00 0. -1.
         21    1    1    2  505  501  0.77404788353E+02  0.76590351468E+02  0.14028499371E+03  0.17758790121E+03  0.00000000000E+00 0.  1.
         21    1    1    2  506  502 -0.79943303341E+02 -0.10031661676E+03 -0.58591777173E+03  0.59979495711E+03  0.00000000000E+00 0.  1.
<scales pt_clust_3="50.05629" pt_clust_4="64.21420" pt_clust_5="167.98897" pt_clust_6="50.05629"></scales>
<clustering>
<clus scale="   50.056">  3  6 -1 -1</clus>
<clus scale="   64.214">  1  4  2 -1</clus>
<clus scale="  167.989">  1  5  2 -1</clus>
<clus scale="   64.214">  1  3  2 -1</clus>
</clustering>
</event>
<event>
 6    0  0.5563122E+002  0.8758047E+02  0.7546771E-02  0.1308819E+00
         21   -1    0    0  506  501  0.00000000000E+00  0.00000000000E+00  0.14440558475E+03  0.14440558475E+03  0.00000000000E+00 0.  1.
         21   -1    0    0  503  502 -0.00000000000E+00 -0.00000000000E+00 -0.35898804312E+03  0.35898804312E+03  0.00000000000E+00 0. -1.
         21    1    1    2  503  501  0.13003408022E+02  0.29473290543E+02 -0.90381587309E+01  0.33458209588E+02  0.00000000000E+00 0.  1.
         21    1    1    2  504  502  0.32961304376E+02 -0.36929500860E+02 -0.12656204357E+03  0.13589770599E+03  0.00000000000E+00 0. -1.
         21    1    1    2  505  504 -0.11757893452E+03  0.24392793340E+02 -0.17550974406E+03  0.21265813991E+03  0.00000000000E+00 0. -1.
         21    1    1    2  506  505  0.71614222127E+02 -0.16936583023E+02  0.96527487984E+02  0.12137957238E+03  0.00000000000E+00 0.  1.
<scales pt_clust_3="32.21434" pt_clust_4="49.04011" pt_clust_5="87.58047" pt_clust_6="14000.00000"></scales>
<clustering>
<clus scale="   32.214">  1  3  2 -1</clus>
<clus scale="   49.040">  2  4  1 -1</clus>
<clus scale="   87.580">  2  5  1 -1</clus>
<clus scale="   32.214">  1  3  2 -1</clus>
</clustering>
</event>
<event>
 6    0  0.5563122E+002  0.1448350E+03  0.7546771E-02  0.1206967E+00
         21   -1    0    0  506  501  0.00000000000E+00  0.00000000000E+00  0.17600434246E+03  0.17600434246E+03  0.00000000000E+00 0.  1.
         21   -1    0    0  505  502 -0.00000000000E+00 -0.00000000000E+00 -0.16901969738E+03  0.16901969738E+03  0.00000000000E+00 0.  1.
         21    1    1    2  503  504 -0.71840774034E+01 -0.84287220708E+02  0.15609717367E+02  0.86020984760E+02  0.00000000000E+00 0.  1.
         21    1    1    2  504  501 -0.36748105607E+02 -0.36056199480E+02 -0.19667838669E+02  0.55111674485E+02  0.00000000000E+00 0.  1.
         21    1    1    2  505  503  0.51423035096E+02 -0.19465948360E+02 -0.23322078739E+02  0.59725798787E+02  0.00000000000E+00 0.  1.
         21    1    1    2  506  502 -0.74908520855E+01  0.13980936855E+03  0.34364845123E+02  0.14416558181E+03  0.00000000000E+00 0.  1.
<scales pt_clust_3="46.08275" pt_clust_4="46.08275" pt_clust_5="54.98410" pt_clust_6="132.24145"></scales>
<clustering>
<clus scale="   46.083">  3  4 -1 -1</clus>
<clus scale="   54.984">  2  5  1 -1</clus>
<clus scale="  132.241">  1  6  2 -1</clus>
<clus scale="  132.241">  1  3  2 -1</clus>
</clustering>
</event>
<event>
 6    0  0.5563122E+002  0.6912732E+02  0.7546771E-02  0.1363086E+00
         21   -1    0    0  503  501  0.00000000000E+00  0.00000000000E+00  0.17825872602E+02  0.17825872602E+02  0.00000000000E+00 0. -1.
         21   -1    0    0  505  502 -0.00000000000E+00 -0.00000000000E+00 -0.22805392589E+04  0.22805392589E+04  0.00000000000E+00 0. -1.
         21    1    1    2  503  506  0.26241635890E+02  0.31332268196E+02 -0.26072428961E+02  0.48477892244E+02  0.00000000000E+00 0. -1.
         21    1    1    2  504  502 -0.81864812221E+02 -0.36971100025E+02 -0.93498219775E+03  0.93928718709E+03  0.00000000000E+00 0. -1.
         21    1    1    2  505  501  0.56596659564E+02 -0.54659486193E+02 -0.99252950029E+03  0.99564333486E+03  0.00000000000E+00 0. -1.
         21    1    1    2  506  504 -0.97348323274E+00  0.60298318021E+02 -0.30912925932E+03  0.31495671733E+03  0.00000000000E+00 0. -1.
<scales pt_clust_3="40.86973" pt_clust_4="14000.00000" pt_clust_5="69.12732" pt_clust_6="74.83278"></scales>
<clustering>
<clus scale="   40.870">  1  3  2 -1</clus>
<clus scale="   74.833">  1  6  2 -1</clus>
<clus scale="   69.127">  2  5  1 -1</clus>
<clus scale="   40.870">  1  3  2 -1</clus>
</clustering>
</event>
<event>
 6    0  0.5563122E+002  0.9784336E+02  0.7546771E-02  0.1284898E+00
         21   -1    0    0  506  501  0.00000000000E+00  0.00000000000E+00  0.37308258192E+02  0.37308258192E+02  0.00000000000E+00 0.  1.
         21   -1    0    0  504  502 -0.00000000000E+00 -0.00000000000E+00 -0.79786206161E+03  0.79786206161E+03  0.00000000000E+00 0.  1.
         21    1    1    2  503  501 -0.10001401777E+03  0.20327202232E+02 -0.17879045423E+03  0.20586895207E+03  0.00000000000E+00 0.  1.
         21    1    1    2  504  503 -0.29700604523E+02  0.96999493426E+01 -0.18109195887E+03  0.18376755017E+03  0.00000000000E+00 0.  1.
         21    1    1    2  505  502  0.76295729630E+02 -0.82727510911E+02 -0.29658349840E+03  0.31721704075E+03  0.00000000000E+00 0.  1.
         21    1    1    2  506  505  0.53418892667E+02  0.52700359337E+02 -0.10408789191E+03  0.12831677681E+03  0.00000000000E+00 0.  1.
<scales pt_clust_3="97.84336" pt_clust_4="31.24444" pt_clust_5="14000.00000" pt_clust_6="72.52320"></scales>
<clustering>
<clus scale="   31.244">  2  4  1 -1</clus>
<clus scale="   72.523">  1  6  2 -1</clus>
<clus scale="   97.843">  1  3  2 -1</clus>
<clus scale="   72.523">  1  3  2 -1</clus>
</clustering>
</event>
<event>
 6    0  0.5563122E+002  0.1091757E+03  0.7546771E-02  0.1262104E+00
         21   -1    0    0  502  501  0.00000000000E+00  0.00000000000E+00  0.24381748707E+03  0.24381748707E+03  0.00000000000E+00 0. -1.
         21   -1    0    0  506  502 -0.00000000000E+00 -0.00000000000E+00 -0.27241229858E+03  0.27241229858E+03  0.00000000000E+00 0. -1.
         21    1    1    2  503  501 -0.45678896746E+02  0.14159726537E+02  0.85515415317E+02  0.97979312716E+02  0.00000000000E+00 0.  1.
         21    1    1    2  504  505  0.44564537125E+02  0.32573541529E+02  0.48935063949E+02  0.73767703371E+02  0.00000000000E+00 0.  1.
         21    1    1    2  505  503  0.85103693880E+02  0.71088707599E+01  0.57138016167E+02  0.10275177686E+03  0.00000000000E+00 0. -1.
         21    1    1    2  506  504 -0.83989334259E+02 -0.53842138826E+02 -0.22018330694E+03  0.24173099272E+03  0.00000000000E+00 0. -1.
<scales pt_clust_3="47.82321" pt_clust_4="31.33510" pt_clust_5="31.33510" pt_clust_6="101.98165"></scales>
<clustering>
<clus scale="   31.335">  4  5 -1 -1</clus>
<clus scale="   47.823">  1  3  2 -1</clus>
<clus scale="  101.982">  2  6  1 -1</clus>
<clus scale="   47.823">  1  3  2 -1</clus>
</clustering>
</event>
<event>
 6    0  0.5563122E+002  0.9622790E+02  0.7546771E-02  0.1288434E+00
         21   -1    0    0  506  501  0.00000000000E+00  0.00000000000E+00  0.10960162706E+03  0.10960162706E+03  0.00000000000E+00 0.  1.
         21   -1    0    0  505  502 -0.00000000000E+00 -0.00000000000E+00 -0.16868677720E+04  0.16868677720E+04  0.00000000000E+00 0. -1.
         21    1    1    2  503  501  0.35452921140E+02 -0.12007714376E+01 -0.52847657205E+01  0.35864748962E+02  0.00000000000E+00 0.  1.
         21    1    1    2  504  503  0.29871046280E+02  0.65689570357E+02 -0.31004961145E+02  0.78541114552E+02  0.00000000000E+00 0.  1.
         21    1    1    2  505  504 -0.17163032622E+02  0.49195882656E+02 -0.15567260305E+04  0.15575977461E+04  0.00000000000E+00 0. -1.
         21    1    1    2  506  502 -0.48160934798E+02 -0.11368468158E+03  0.15749612392E+02  0.12446578950E+03  0.00000000000E+00 0.  1.
<scales pt_clust_3="35.47325" pt_clust_4="14000.00000" pt_clust_5="52.04480" pt_clust_6="96.22790"></scales>
<clustering>
<clus scale="   35.473">  1  3  2 -1</clus>
<clus scale="   52.045">  2  5  1 -1</clus>
<clus scale="   96.228">  1  6  2 -1</clus>
<clus scale="   35.473">  1  3  2 -1</clus>
</clustering>
</event>
<event>
 6    0  0.5563122E+002  0.1181242E+03  0.7546771E-02  0.1246224E+00
         21   -1    0    0  504  501  0.00000000000E+00  0.00000000000E+00  0.19026185696E+03  0.19026185696E+03  0.00000000000E+00 0.  1.
         21   -1    0    0  503  502 -0.00000000000E+00 -0.00000000000E+00 -0.12065994361E+03  0.12065994361E+03  0.00000000000E+00 0.  1.
         21    1    1    2  503  506 -0.29646110980E+02  0.14060205557E+02 -0.33179113007E+02  0.46662991936E+02  0.00000000000E+00 0.  1.
         21    1    1    2  504  505  0.62405987882E+02 -0.49101931253E+02  0.24354318774E+02  0.83058050900E+02  0.00000000000E+00 0. -1.
         21    1    1    2  505  502  0.58741890224E+02  0.37611902520E+01  0.36762285835E+01  0.58976867294E+02  0.00000000000E+00 0.  1.
         21    1    1    2  506  501 -0.91501767127E+02  0.31280535444E+02  0.74750478994E+02  0.12222389044E+03  0.00000000000E+00 0.  1.
<scales pt_clust_3="32.81130" pt_clust_4="43.95194" pt_clust_5="43.95194" pt_clust_6="106.29071"></scales>
<clustering>
<clus scale="   32.811">  2  3  1 -1</clus>
<clus scale="   43.952">  4  5 -1 -1</clus>
<clus scale="  106.291">  1  6  2 -1</clus>
<clus scale="  106.291">  1  3  2 -1</clus>
</clustering>
</event>
<event>
 6    0  0.5563122E+002  0.9962619E+02  0.7546771E-02  0.1281084E+00
         21   -1    0    0  506  501  0.00000000000E+00  0.00000000000E+00  0.13493804660E+04  0.13493804660E+04  0.00000000000E+00 0. -1.
         21   -1    0    0  504  502 -0.00000000000E+00 -0.00000000000E+00 -0.58014900258E+02  0.58014900258E+02  0.00000000000E+00 0. -1.
         21    1    1    2  503  501 -0.78885572238E+02 -0.28710896601E+02  0.60137788807E+03  0.60720887127E+03  0.00000000000E+00 0. -1.
         21    1    1    2  504  505  0.10429068573E+03 -0.75298269201E+01  0.77542801971E+01  0.10484929320E+03  0.00000000000E+00 0. -1.
         21    1    1    2  505  503 -0.72525356335E+02  0.24264664035E+02  0.28288947220E+03  0.29304462922E+03  0.00000000000E+00 0. -1.
         21    1    1    2  506  502  0.47120242841E+02  0.11976059486E+02  0.39934392523E+03  0.40229257252E+03  0.00000000000E+00 0. -1.
<scales pt_clust_3="53.22041" pt_clust_4="14000.00000" pt_clust_5="99.62619" pt_clust_6="48.61834"></scales>
<clustering>
<clus scale="   48.618">  1  6  2 -1</clus>
<clus scale="   53.220">  1  3  2 -1</clus>
<clus scale="   99.626">  1  5  2 -1</clus>
<clus scale="   48.618">  1  3  2 -1</clus>
</clustering>
</event>
<event>
 6    0  0.5563122E+002  0.1198798E+03  0.7546771E-02  0.1243295E+00
         21   -1    0    0  505  501  0.00000000000E+00  0.00000000000E+00  0.28778528707E+03  0.28778528707E+03  0.00000000000E+00 0.  1.
         21   -1    0    0  506  502 -0.00000000000E+00 -0.00000000000E+00 -0.63704933289E+03  0.63704933289E+03  0.00000000000E+00 0.  1.
         21    1    1    2  503  501  0.17652395658E+02 -0.56381044305E+02  0.33463426454E+02  0.67898675535E+02  0.00000000000E+00 0.  1.
         21    1    1    2  504  502 -0.28710129405E+02  0.15109177251E+02 -0.32973899421E+03  0.33133119846E+03  0.00000000000E+00 0.  1.
         21    1    1    2  505  504  0.77607405815E+02 -0.25166846735E+02  0.22118542154E+03  0.23575256163E+03  0.00000000000E+00 0.  1.
         21    1    1    2  506  503 -0.66549672068E+02  0.66438713788E+02 -0.27417389960E+03  0.28985218434E+03  0.00000000000E+00 0.  1.
<scales pt_clust_3="57.80234" pt_clust_4="32.44316" pt_clust_5="14000.00000" pt_clust_6="119.87980"></scales>
<clustering>
<clus scale="   32.443">  2  4  1 -1</clus>
<clus scale="   57.802">  1  3  2 -1</clus>
<clus scale="  119.880">  2  6  1 -1</clus>
<clus scale="   57.802">  1  3  2 -1</clus>
</clustering>
</event>
<event>
 6    0  0.5563122E+002  0.1272869E+03  0.7546771E-02  0.1231538E+00
         21   -1    0    0  504  501  0.00000000000E+00  0.00000000000E+00  0.16507820696E+03  0.16507820696E+03  0.00000000000E+00 0.  1.
         21   -1    0    0  503  502 -0.00000000000E+00 -0.00000000000E+00 -0.67347532783E+03  0.67347532783E+03  0.00000000000E+00 0.  1.
         21    1    1    2  503  501  0.25215910282E+02 -0.22264259430E+02 -0.47311249062E+02  0.58050785241E+02  0.00000000000E+00 0.  1.
         21    1    1    2  504  505  0.19200864120E+01  0.50652883528E+02  0.12511461229E+03  0.13499284259E+03  0.00000000000E+00 0.  1.
         21    1    1    2  505  506 -0.13409854417E+03 -0.55494782452E+02 -0.22425897593E+03  0.26712202963E+03  0.00000000000E+00 0.  1.
         21    1    1    2  506  502  0.10696254748E+03  0.27106158353E+02 -0.36194150817E+03  0.37838787734E+03  0.00000000000E+00 0.  1.
<scales pt_clust_3="33.63836" pt_clust_4="50.52028" pt_clust_5="127.28687" pt_clust_6="14000.00000"></scales>
<clustering>
<clus scale="   33.638">  2  3  1 -1</clus>
<clus scale="   50.520">  1  4  2 -1</clus>
<clus scale="  127.287">  1  5  2 -1</clus>
<clus scale="   50.520">  1  3  2 -1</clus>
</clustering>
</event>
<event>
 6    0  0.5563122E+002  0.1088489E+03  0.7546771E-02  0.1262717E+00
         21   -1    0    0  503  501  0.00000000000E+00  0.00000000000E+00  0.71619667158E+03  0.71619667158E+03  0.00000000000E+00 0. -1.
         21   -1    0    0  506  502 -0.00000000000E+00 -0.00000000000E+00 -0.11637634989E+03  0.11637634989E+03  0.00000000000E+00 0. -1.
         21    1    1    2  503  505  0.34238958196E+02  0.10204690758E+03  0.61707280580E+03  0.62639023401E+03  0.00000000000E+00 0. -1.
         21    1    1    2  504  501 -0.41055686733E+02 -0.12158718797E+03 -0.19996993038E+02  0.12988030421E+03  0.00000000000E+00 0. -1.
         21    1    1    2  505  502 -0.30630774424E+02  0.12925681138E+02  0.14825882660E+02  0.36402257778E+02  0.00000000000E+00 0. -1.
         21    1    1    2  506  504  0.37447502960E+02  0.66145992531E+01 -0.12081373728E+02  0.39900225468E+02  0.00000000000E+00 0. -1.
<scales pt_clust_3="14000.00000" pt_clust_4="108.84889" pt_clust_5="33.24632" pt_clust_6="31.47118"></scales>
<clustering>
<clus scale="   33.246">  2  5  1 -1</clus>
<clus scale="   31.471">  2  6  1 -1</clus>
<clus scale="  108.849">  2  4  1 -1</clus>
<clus scale="  108.849">  1  3  2 -1</clus>
</clustering>
</event>
<event>
 6    0  0.5563122E+002  0.1309166E+03  0.7546771E-02  0.1226102E+00
         21   -1    0    0  503  501  0.00000000000E+00  0.00000000000E+00  0.98162737055E+03  0.98162737055E+03  0.00000000000E+00 0. -1.
         21   -1    0    0  506  502 -0.00000000000E+00 -0.00000000000E+00 -0.46705178592E+03  0.46705178592E+03  0.00000000000E+00 0.  1.
         21    1    1    2  503  505 -0.42085074070E+02  0.61600061180E+02  0.55026868124E+03  0.55530292863E+03  0.00000000000E+00 0. -1.
         21    1    1    2  504  501  0.67975906601E+02 -0.96362584978E+02  0.87648046564E+02  0.14693077189E+03  0.00000000000E+00 0.  1.
         21    1    1    2  505  502 -0.56261096324E+02  0.10020377839E+03  0.29778219969E+03  0.31918700884E+03  0.00000000000E+00 0. -1.
         21    1    1    2  506  504  0.30370263793E+02 -0.65441254590E+02 -0.42112334285E+03  0.42725844710E+03  0.00000000000E+00 0.  1.
<scales pt_clust_3="70.42772" pt_clust_4="14000.00000" pt_clust_5="130.91661" pt_clust_6="72.14507"></scales>
<clustering>
<clus scale="   72.145">  2  6  1 -1</clus>
<clus scale="   70.428">  1  3  2 -1</clus>
<clus scale="  130.917">  2  5  1 -1</clus>
<clus scale="   70.428">  1  3  2 -1</clus>
</clustering>
</event>
<event>
 6    0  0.5563122E+002  0.8638157E+02  0.7546771E-02  0.1311859E+00
         21   -1    0    0  506  501  0.00000000000E+00  0.00000000000E+00  0.32697173783E+02  0.32697173783E+02  0.00000000000E+00 0. -1.
         21   -1    0    0  503  502 -0.00000000000E+00 -0.00000000000E+00 -0.23673209669E+04  0.23673209669E+04  0.00000000000E+00 0. -1.
         21    1    1    2  503  505 -0.75269377320E+01  0.29342696847E+02 -0.48899964643E+03  0.48993703968E+03  0.00000000000E+00 0. -1.
         21    1    1    2  504  502  0.22036618441E+02 -0.10621074535E+03 -0.93802016227E+03  0.94427123211E+03  0.00000000000E+00 0. -1.
         21    1    1    2  505  501  0.65710108657E+02  0.42510632972E+02 -0.29901886823E+02  0.83780040170E+02  0.00000000000E+00 0. -1.
         21    1    1    2  506  504 -0.80219789366E+02  0.34357415526E+02 -0.87770209760E+03  0.88202982871E+03  0.00000000000E+00 0. -1.
<scales pt_clust_3="30.29272" pt_clust_4="86.38157" pt_clust_5="78.55816" pt_clust_6="14000.00000"></scales>
<clustering>
<clus scale="   30.293">  2  3  1 -1</clus>
<clus scale="   78.558">  1  5  2 -1</clus>
<clus scale="   86.382">  2  4  1 -1</clus>
<clus scale="   78.558">  1  3  2 -1</clus>
</clustering>
</event>
<event>
 6    0  0.5563122E+002  0.7244619E+02  0.7546771E-02  0.1351967E+00
         21   -1    0    0  505  501  0.00000000000E+00  0.00000000000E+00  0.85161538789E+03  0.85161538789E+03  0.00000000000E+00 0. -1.
         21   -1    0    0  506  502 -0.00000000000E+00 -0.00000000000E+00 -0.33781930650E+02  0.33781930650E+02  0.00000000000E+00 0. -1.
         21    1    1    2  503  501 -0.41426465932E+02  0.73558796045E+01  0.27959753951E+03  0.28274554841E+03  0.00000000000E+00 0. -1.
         21    1    1    2  504  502 -0.94584553288E+01 -0.64992895879E+02  0.43890906929E+02  0.78993357968E+02  0.00000000000E+00 0. -1.
         21    1    1    2  505  504  0.82290203780E+02  0.91277121343E+02  0.30563009931E+03  0.32941303575E+03  0.00000000000E+00 0. -1.
         21    1    1    2  506  503 -0.31405282520E+02 -0.33640105068E+02  0.18871491149E+03  0.19424537641E+03  0.00000000000E+00 0. -1.
<scales pt_clust_3="42.07447" pt_clust_4="72.44619" pt_clust_5="14000.00000" pt_clust_6="54.99729"></scales>
<clustering>
<clus scale="   42.074">  1  3  2 -1</clus>
<clus scale="   54.997">  1  6  2 -1</clus>
<clus scale="   72.446">  2  4  1 -1</clus>
<clus scale="   42.074">  1  3  2 -1</clus>
</clustering>
</event>
<event>
 6    0  0.5563122E+002  0.1271011E+03  0.7546771E-02  0.1231822E+00
         21   -1    0    0  506  501  0.00000000000E+00  0.00000000000E+00  0.18142415612E+03  0.18142415612E+03  0.00000000000E+00 0.  1.
         21   -1    0    0  505  502 -0.00000000000E+00 -0.00000000000E+00 -0.14954103394E+04  0.14954103394E+04  0.00000000000E+00 0. -1.
         21    1    1    2  503  501  0.72889305211E+02 -0.10129372612E+03 -0.74508905219E+02  0.14534389125E+03  0.00000000000E+00 0. -1.
         21    1    1    2  504  502 -0.40315041273E+02  0.13252490841E+03 -0.12980173327E+01  0.13852739350E+03  0.00000000000E+00 0.  1.
         21    1    1    2  505  503  0.29406763398E+02  0.21010390250E+02 -0.12940236993E+04  0.12945283035E+04  0.00000000000E+00 0. -1.
         21    1    1    2  506  504 -0.61981027336E+02 -0.52241572536E+02  0.55844438566E+02  0.98434907271E+02  0.00000000000E+00 0.  1.
<scales pt_clust_3="127.10114" pt_clust_4="14000.00000" pt_clust_5="36.14131" pt_clust_6="77.24700"></scales>
<clustering>
<clus scale="   36.141">  2  5  1 -1</clus>
<clus scale="   77.247">  1  6  2 -1</clus>
<clus scale="  127.101">  2  3  1 -1</clus>
<clus scale="   77.247">  1  3  2 -1</clus>
</clustering>
</event>
<event>
 6    0  0.5563122E+002  0.1369504E+03  0.7546771E-02  0.1217492E+00
         21   -1    0    0  503  501  0.00000000000E+00  0.00000000000E+00  0.82149423468E+02  0.82149423468E+02  0.00000000000E+00 0.  1.
         21   -1    0    0  506  502 -0.00000000000E+00 -0.00000000000E+00 -0.31383625188E+04  0.31383625188E+04  0.00000000000E+00 0. -1.
         21    1    1    2  503  504 -0.11391183532E+03 -0.64956218750E+02  0.23304466565E+02  0.13318526473E+03  0.00000000000E+00 0.  1.
         21    1    1    2  504  502 -0.22029341995E+02  0.71686612444E+02 -0.85845369569E+03  0.86172327922E+03  0.00000000000E+00 0. -1.
         21    1    1    2  505  501  0.63383579731E+02 -0.23002350652E+02 -0.11272597353E+04  0.11292745889E+04  0.00000000000E+00 0. -1.
         21    1    1    2  506  505  0.72557597580E+02  0.16271956958E+02 -0.10938041310E+04  0.10963288095E+04  0.00000000000E+00 0. -1.
<scales pt_clust_3="130.74759" pt_clust_4="74.99508" pt_clust_5="38.80342" pt_clust_6="38.80342"></scales>
<clustering>
<clus scale="   38.803">  5  6 -1 -1</clus>
<clus scale="   74.995">  2  4  1 -1</clus>
<clus scale="  130.748">  1  3  2 -1</clus>
<clus scale="  130.748">  1  3  2 -1</clus>
</clustering>
</event>
<event>
 6    0  0.5563122E+002  0.1148937E+03  0.7546771E-02  0.1251767E+00
         21   -1    0    0  503  501  0.00000000000E+00  0.00000000000E+00  0.53939465707E+02  0.53939465707E+02  0.00000000000E+00 0. -1.
         21   -1    0    0  504  502 -0.00000000000E+00 -0.00000000000E+00 -0.11760738934E+04  0.11760738934E+04  0.00000000000E+00 0. -1.
         21    1    1    2  503  505  0.11018511677E+03  0.41786870308E+02 -0.31343472490E+02  0.12193980382E+03  0.00000000000E+00 0. -1.
         21    1    1    2  504  506 -0.32385203284E+02 -0.18363592995E+02 -0.97330132903E+02  0.10420737839E+03  0.00000000000E+00 0. -1.
         21    1    1    2  505  502  0.22358081294E+02 -0.35227723289E+02 -0.36299594743E+03  0.36538600703E+03  0.00000000000E+00 0.  1.
         21    1    1    2  506  501 -0.10015799478E+03  0.11804445977E+02 -0.63046487488E+03  0.63848016987E+03  0.00000000000E+00 0. -1.
<scales pt_clust_3="114.89371" pt_clust_4="37.22933" pt_clust_5="42.98367" pt_clust_6="14000.00000"></scales>
<clustering>
<clus scale="   37.229">  2  4  1 -1</clus>
<clus scale="   42.984">  2  5  1 -1</clus>
<clus scale="  114.894">  1  3  2 -1</clus>
<clus scale="  114.894">  1  3  2 -1</clus>
</clustering>
</event>
<event>
 6    0  0.5563122E+002  0.9689281E+02  0.7546771E-02  0.1286969E+00
         21   -1    0    0  504  501  0.00000000000E+00  0.00000000000E+00  0.12457752749E+03  0.12457752749E+03  0.00000000000E+00 0. -1.
         21   -1    0    0  505  502 -0.00000000000E+00 -0.00000000000E+00 -0.21114685532E+03  0.21114685532E+03  0.00000000000E+00 0. -1.
         21    1    1    2  503  506  0.92161307143E+02  0.87002448702E+02  0.11900291579E+02  0.12729787726E+03  0.00000000000E+00 0. -1.
         21    1    1    2  504  502 -0.17753903670E+02 -0.58627768963E+02 -0.75062079060E+02  0.96885149026E+02  0.00000000000E+00 0. -1.
         21    1    1    2  505  503 -0.23804476494E+02  0.25607024064E+02 -0.97938820015E+01  0.36308303558E+02  0.00000000000E+00 0. -1.
         21    1    1    2  506  501 -0.50602926979E+02 -0.53981703803E+02 -0.13613658351E+02  0.75233052962E+02  0.00000000000E+00 0. -1.
<scales pt_clust_3="14000.00000" pt_clust_4="54.97032" pt_clust_5="34.96245" pt_clust_6="96.89281"></scales>
<clustering>
<clus scale="   34.962">  2  5  1 -1</clus>
<clus scale="   54.970">  2  4  1 -1</clus>
<clus scale="   96.893">  1  6  2 -1</clus>
<clus scale="   96.893">  1  3  2 -1</clus>
</clustering>
</event>
<event>
 6    0  0.5563122E+002  0.8573390E+02  0.7546771E-02  0.1313524E+00
         21   -1    0    0  503  501  0.00000000000E+00  0.00000000000E+00  0.97910886618E+02  0.97910886618E+02  0.00000000000E+00 0.  1.
         21   -1    0    0  505  502 -0.00000000000E+00 -0.00000000000E+00 -0.10772995717E+04  0.10772995717E+04  0.00000000000E+00 0.  1.
         21    1    1    2  503  502  0.69819900814E+02  0.32197457743E+02 -0.33747449318E+02  0.83966571743E+02  0.00000000000E+00 0.  1.
         21    1    1    2  504  506 -0.44862650745E+02  0.50910983728E+02 -0.18353330847E+03  0.19567590811E+03  0.00000000000E+00 0.  1.
         21    1    1    2  505  504 -0.53211295031E+02 -0.69208446486E+02 -0.82268068765E+03  0.82729968259E+03  0.00000000000E+00 0.  1.
         21    1    1    2  506  501  0.28254044962E+02 -0.13899994985E+02  0.60572760384E+02  0.68268295847E+02  0.00000000000E+00 0.  1.
<scales pt_clust_3="14000.00000" pt_clust_4="62.61803" pt_clust_5="85.73390" pt_clust_6="31.48811"></scales>
<clustering>
<clus scale="   31.488">  1  6  2 -1</clus>
<clus scale="   62.618">  1  4  2 -1</clus>
<clus scale="   85.734">  2  5  1 -1</clus>
<clus scale="   31.488">  1  3  2 -1</clus>
</clustering>
</event>
<event>
 6    0  0.5563122E+002  0.6548810E+02  0.7546771E-02  0.1376145E+00
         21   -1    0    0  503  501  0.00000000000E+00  0.00000000000E+00  0.13129741267E+04  0.13129741267E+04  0.00000000000E+00 0.  1.
         21   -1    0    0  505  502 -0.00000000000E+00 -0.00000000000E+00 -0.25210091970E+02  0.25210091970E+02  0.00000000000E+00 0. -1.
         21    1    1    2  503  506  0.33019906477E+02  0.25651905960E+02  0.23949590956E+03  0.24311854145E+03  0.00000000000E+00 0.  1.
         21    1    1    2  504  501 -0.68695966000E+02  0.30525567930E+02  0.74631999888E+03  0.75009631833E+03  0.00000000000E+00 0.  1.
         21    1    1    2  505  504 -0.44032992954E+02 -0.59111183568E+02  0.21351005881E+03  0.22587514627E+03  0.00000000000E+00 0. -1.
         21    1    1    2  506  502  0.79709052476E+02  0.29337096787E+01  0.88438067501E+02  0.11909421263E+03  0.00000000000E+00 0. -1.
<scales pt_clust_3="41.81309" pt_clust_4="65.21124" pt_clust_5="65.48810" pt_clust_6="14000.00000"></scales>
<clustering>
<clus scale="   41.813">  1  3  2 -1</clus>
<clus scale="   65.488">  2  5  1 -1</clus>
<clus scale="   65.211">  1  4  2 -1</clus>
<clus scale="   41.813">  1  3  2 -1</clus>
</clustering>
</event>
<event>
 6    0  0.5563122E+002  0.1660529E+03  0.7546771E-02  0.1182028E+00
         21   -1    0    0  505  501  0.00000000000E+00  0.00000000000E+00  0.10233775682E+04  0.10233775682E+04  0.00000000000E+00 0. -1.
         21   -1    0    0  506  502 -0.00000000000E+00 -0.00000000000E+00 -0.65903771811E+02  0.65903771811E+02  0.00000000000E+00 0. -1.
         21    1    1    2  503  504  0.93667537453E+02  0.12242638353E+02  0.32948658613E+03  0.34276070400E+03  0.00000000000E+00 0. -1.
         21    1    1    2  504  501  0.69053126745E+02  0.20383160273E+02  0.48565596544E+03  0.49096387270E+03  0.00000000000E+00 0. -1.
         21    1    1    2  505  502 -0.11254309480E+03  0.15675556585E+02  0.20850279192E+02  0.11552664370E+03  0.00000000000E+00 0. -1.
         21    1    1    2  506  503 -0.50177569394E+02 -0.48301355211E+02  0.12148096559E+03  0.14003011956E+03  0.00000000000E+00 0.  1.
<scales pt_clust_3="48.58335" pt_clust_4="48.58335" pt_clust_5="156.45042" pt_clust_6="69.64775"></scales>
<clustering>
<clus scale="   48.583">  3  4 -1 -1</clus>
<clus scale="   69.648">  2  6  1 -1</clus>
<clus scale="  156.450">  2  5  1 -1</clus>
<clus scale="  166.053">  1  3  2 -1</clus>
</clustering>
</event>
<event>
 6    0  0.5563122E+002  0.1067694E+03  0.7546771E-02  0.1266672E+00
         21   -1    0    0  505  501  0.00000000000E+00  0.00000000000E+00  0.10756722219E+04  0.10756722219E+04  0.00000000000E+00 0.  1.
         21   -1    0    0  506  502 -0.00000000000E+00 -0.00000000000E+00 -0.11938773707E+03  0.11938773707E+03  0.00000000000E+00 0. -1.
         21    1    1    2  503  504  0.53410488764E+02 -0.17493893236E+02  0.18014384547E+02  0.59018934768E+02  0.00000000000E+00 0. -1.
         21    1    1    2  504  502 -0.36773302128E+02  0.32384083207E+01 -0.16548011690E+02  0.40454909823E+02  0.00000000000E+00 0.  1.
         21    1    1    2  505  503  0.87019973232E+02  0.41894129207E+02 -0.32922596803E+02  0.10203671488E+03  0.00000000000E+00 0. -1.
         21    1    1    2  506  501 -0.10365715987E+03 -0.27638644291E+02  0.98774070874E+03  0.99354939945E+03  0.00000000000E+00 0.  1.
<scales pt_clust_3="48.12882" pt_clust_4="36.91562" pt_clust_5="14000.00000" pt_clust_6="106.76942"></scales>
<clustering>
<clus scale="   36.916">  2  4  1 -1</clus>
<clus scale="   48.129">  2  3  1 -1</clus>
<clus scale="  106.769">  1  6  2 -1</clus>
<clus scale="  106.769">  1  3  2 -1</clus>
</clustering>
</event>
<event>
 6    0  0.5563122E+002  0.2289764E+03  0.7546771E-02  0.1127362E+00
         21   -1    0    0  506  501  0.00000000000E+00  0.00000000000E+00  0.50650098790E+03  0.50650098790E+03  0.00000000000E+00 0.  1.
         21   -1    0    0  505  502 -0.00000000000E+00 -0.00000000000E+00 -0.17453669781E+03  0.17453669781E+03  0.00000000000E+00 0.  1.
         21    1    1    2  503  504 -0.38888744286E+02 -0.86536031451E+02  0.10398373971E+03  0.14076021205E+03  0.00000000000E+00 0.  1.
         21    1    1    2  504  501 -0.39022385221E+02 -0.11572189950E+03  0.21693742773E+03  0.24895009967E+03  0.00000000000E+00 0.  1.
         21    1    1    2  505  503  0.81586422714E+02  0.23782408858E+03  0.25585486124E+02  0.25272763715E+03  0.00000000000E+00 0.  1.
         21    1    1    2  506  502 -0.36752932063E+01 -0.35566157634E+02 -0.14542363475E+02  0.38599736844E+02  0.00000000000E+00 0.  1.
<scales pt_clust_3="38.72671" pt_clust_4="38.72671" pt_clust_5="224.77742" pt_clust_6="35.75555"></scales>
<clustering>
<clus scale="   35.756">  2  6  1 -1</clus>
<clus scale="   38.727">  3  4 -1 -1</clus>
<clus scale="  224.777">  2  5  1 -1</clus>
<clus scale="  228.976">  1  3  2 -1</clus>
</clustering>
</event>
<event>
 6    0  0.5563122E+002  0.6815980E+02  0.7546771E-02  0.1366465E+00
         21   -1    0    0  506  501  0.00000000000E+00  0.00000000000E+00  0.31559701667E+02  0.31559701667E+02  0.00000000000E+00 0. -1.
         21   -1    0    0  504  502 -0.00000000000E+00 -0.00000000000E+00 -0.13242196993E+04  0.13242196993E+04  0.00000000000E+00 0. -1.
         21    1    1    2  503  502  0.19404020966E+02  0.49042179642E+02 -0.73254736939E+03  0.73444353072E+03  0.00000000000E+00 0. -1.
         21    1    1    2  504  501 -0.55258045288E+02 -0.10374647270E+03 -0.49039952546E+03  0.50429007202E+03  0.00000000000E+00 0. -1.
         21    1    1    2  505  503  0.39696710998E+01  0.51543133076E+02 -0.67371326344E+02  0.84919658909E+02  0.00000000000E+00 0. -1.
         21    1    1    2  506  505  0.31884353222E+02  0.31611599805E+01 -0.23417764749E+01  0.32126139355E+02  0.00000000000E+00 0. -1.
<scales pt_clust_3="53.60032" pt_clust_4="14000.00000" pt_clust_5="68.15980" pt_clust_6="32.04068"></scales>
<clustering>
<clus scale="   32.041">  1  6  2 -1</clus>
<clus scale="   53.600">  2  3  1 -1</clus>
<clus scale="   68.160">  1  5  2 -1</clus>
<clus scale="   32.041">  1  3  2 -1</clus>
</clustering>
</event>
<event>
 6    0  0.5563122E+002  0.1947727E+03  0.7546771E-02  0.1154226E+00
         21   -1    0    0  503  501  0.00000000000E+00  0.00000000000E+00  0.10467198145E+03  0.10467198145E+03  0.00000000000E+00 0. -1.
         21   -1    0    0  501  502 -0.00000000000E+00 -0.00000000000E+00 -0.35657952435E+03  0.35657952435E+03  0.00000000000E+00 0.  1.
         21    1    1    2  503  506 -0.81173332590E+02  0.11697771272E+03 -0.90938884375E+02  0.16894607391E+03  0.00000000000E+00 0. -1.
         21    1    1    2  504  502  0.11222287032E+02 -0.10787425481E+03 -0.89389398180E+02  0.14054628804E+03  0.00000000000E+00 0.  1.
         21    1    1    2  505  504  0.70744322119E+02 -0.49452551783E+02 -0.70401118647E+02  0.11138505958E+03  0.00000000000E+00 0.  1.
         21    1    1    2  506  505 -0.79327656122E+00  0.40349093870E+02 -0.11781416988E+01  0.40374084283E+02  0.00000000000E+00 0.  1.
<scales pt_clust_3="187.96112" pt_clust_4="71.73626" pt_clust_5="71.73626" pt_clust_6="33.07309"></scales>
<clustering>
<clus scale="   33.073">  3  6 -1 -1</clus>
<clus scale="   71.736">  4  5 -1 -1</clus>
<clus scale="  187.961">  1  3  2 -1</clus>
<clus scale="  187.961">  1  3  2 -1</clus>
</clustering>
</event>
<event>
 6    0  0.5563122E+002  0.8356597E+02  0.7546771E-02  0.1319226E+00
         21   -1    0    0  505  501  0.00000000000E+00  0.00000000000E+00  0.11975502250E+03  0.11975502250E+03  0.00000000000E+00 0. -1.
         21   -1    0    0  504  502 -0.00000000000E+00 -0.00000000000E+00 -0.41354949859E+03  0.41354949859E+03  0.00000000000E+00 0. -1.
         21    1    1    2  503  502 -0.10392377619E+02  0.47147715769E+02 -0.23630816512E+03  0.24118967125E+03  0.00000000000E+00 0. -1.
         21    1    1    2  504  506  0.39946017901E+02 -0.27272504999E+02 -0.51605118817E+02  0.70728793028E+02  0.00000000000E+00 0. -1.
         21    1    1    2  505  503 -0.64816454933E+02 -0.89417243708E+02 -0.60749474614E+02  0.12604409930E+03  0.00000000000E+00 0. -1.
         21    1    1    2  506  501  0.35262814651E+02  0.69542032938E+02  0.54868282459E+02  0.95341957512E+02  0.00000000000E+00 0. -1.
<scales pt_clust_3="48.27948" pt_clust_4="37.87433" pt_clust_5="83.56597" pt_clust_6="14000.00000"></scales>
<clustering>
<clus scale="   48.279">  2  3  1 -1</clus>
<clus scale="   37.874">  2  4  1 -1</clus>
<clus scale="   83.566">  2  5  1 -1</clus>
<clus scale="   83.566">  1  3  2 -1</clus>
</clustering>
</event>
<event>
 6    0  0.5563122E+002  0.1195485E+03  0.7546771E-02  0.1243844E+00
         21   -1    0    0  504  501  0.00000000000E+00  0.00000000000E+00  0.21729284237E+03  0.21729284237E+03  0.00000000000E+00 0.  1.
         21   -1    0    0  505  502 -0.00000000000E+00 -0.00000000000E+00 -0.14188577957E+03  0.14188577957E+03  0.00000000000E+00 0.  1.
         21    1    1    2  503  502 -0.96448858806E+02  0.28865833161E+02 -0.50946836148E+02  0.11283261409E+03  0.00000000000E+00 0.  1.
         21    1    1    2  504  503 -0.23215122328E+02  0.36575739088E+02  0.85179549477E+02  0.95562975276E+02  0.00000000000E+00 0.  1.
         21    1    1    2  505  506  0.68615273420E+02 -0.57849901360E+02  0.95499326727E+01  0.90254462759E+02  0.00000000000E+00 0. -1.
         21    1    1    2  506  501  0.51048707714E+02 -0.75916708900E+01  0.31624416792E+02  0.60528569813E+02  0.00000000000E+00 0.  1.
<scales pt_clust_3="108.87473" pt_clust_4="43.32120" pt_clust_5="37.44413" pt_clust_6="37.44413"></scales>
<clustering>
<clus scale="   37.444">  5  6 -1 -1</clus>
<clus scale="   43.321">  1  4  2 -1</clus>
<clus scale="  108.875">  2  3  1 -1</clus>
<clus scale="   43.321">  1  3  2 -1</clus>
</clustering>
</event>
<event>
 6    0  0.5563122E+002  0.9523029E+02  0.7546771E-02  0.1290658E+00
         21   -1    0    0  503  501  0.00000000000E+00  0.00000000000E+00  0.12417973772E+03  0.12417973772E+03  0.00000000000E+00 0.  1.
         21   -1    0    0  505  502 -0.00000000000E+00 -0.00000000000E+00 -0.45005585827E+03  0.45005585827E+03  0.00000000000E+00 0.  1.
         21    1    1    2  503  506  0.48146082665E+02 -0.91889560071E+02  0.60666913447E+02  0.12017575010E+03  0.00000000000E+00 0.  1.
         21    1    1    2  504  501 -0.95467938782E+02  0.17710437494E+02 -0.74063928119E+02  0.12211982796E+03  0.00000000000E+00 0.  1.
         21    1    1    2  505  504  0.16796960555E+02  0.26183513593E+02 -0.28074867922E+02  0.41903609353E+02  0.00000000000E+00 0.  1.
         21    1    1    2  506  502  0.30524895562E+02  0.47995608983E+02 -0.28440423796E+03  0.29003640857E+03  0.00000000000E+00 0.  1.
<scales pt_clust_3="95.23029" pt_clust_4="14000.00000" pt_clust_5="31.10811" pt_clust_6="78.40637"></scales>
<clustering>
<clus scale="   31.108">  2  5  1 -1</clus>
<clus scale="   78.406">  2  6  1 -1</clus>
<clus scale="   95.230">  1  3  2 -1</clus>
<clus scale="   95.230">  1  3  2 -1</clus>
</clustering>
</event>
<event>
 6    0  0.5563122E+002  0.1834320E+03  0.7546771E-02  0.1164522E+00
         21   -1    0    0  503  501  0.00000000000E+00  0.00000000000E+00  0.65883637808E+03  0.65883637808E+03  0.00000000000E+00 0. -1.
         21   -1    0    0  506  502 -0.00000000000E+00 -0.00000000000E+00 -0.77895790106E+02  0.77895790106E+02  0.00000000000E+00 0. -1.
         21    1    1    2  503  505 -0.36665822043E+02 -0.12678020045E+03  0.18713587730E+03  0.22899222324E+03  0.00000000000E+00 0. -1.
         21    1    1    2  504  502 -0.28888530017E+01  0.38640845071E+02 -0.18926500622E+01  0.38794877287E+02  0.00000000000E+00 0. -1.
         21    1    1    2  505  504 -0.13445359631E+02 -0.69094004943E+02  0.52733247280E+02  0.87952001588E+02  0.00000000000E+00 0.  1.
         21    1    1    2  506  501  0.53000034675E+02  0.15723336032E+03  0.34296411345E+03  0.38099306607E+03  0.00000000000E+00 0. -1.
<scales pt_clust_3="32.97430" pt_clust_4="38.74868" pt_clust_5="32.97430" pt_clust_6="177.78831"></scales>
<clustering>
<clus scale="   32.974">  3  5 -1 -1</clus>
<clus scale="   38.749">  2  4  1 -1</clus>
<clus scale="  177.788">  1  6  2 -1</clus>
<clus scale="  177.788">  1  3  2 -1</clus>
</clustering>
</event>
<event>
 6    0  0.5563122E+002  0.1590574E+03  0.7546771E-02  0.1189765E+00
         21   -1    0    0  506  501  0.00000000000E+00  0.00000000000E+00  0.21464676868E+03  0.21464676868E+03  0.00000000000E+00 0.  1.
         21   -1    0    0  504  502 -0.00000000000E+00 -0.00000000000E+00 -0.39343859506E+03  0.39343859506E+03  0.00000000000E+00 0.  1.
         21    1    1    2  503  502  0.11964539034E+03 -0.69869351635E+02 -0.30385722036E+03  0.33395502106E+03  0.00000000000E+00 0.  1.
         21    1    1    2  504  505  0.30878748622E+02 -0.85972863364E+01 -0.10421252160E+02  0.33704791135E+02  0.00000000000E+00 0.  1.
         21    1    1    2  505  501 -0.12902416088E+03  0.32724134526E+02  0.13541471503E+03  0.18988219537E+03  0.00000000000E+00 0.  1.
         21    1    1    2  506  503 -0.21499978083E+02  0.45742503445E+02  0.71931108030E-01  0.50543356171E+02  0.00000000000E+00 0.  1.
<scales pt_clust_3="14000.00000" pt_clust_4="32.05324" pt_clust_5="159.05742" pt_clust_6="49.14975"></scales>
<clustering>
<clus scale="   32.053">  2  4  1 -1</clus>
<clus scale="   49.150">  1  6  2 -1</clus>
<clus scale="  159.057">  1  5  2 -1</clus>
<clus scale="   49.150">  1  3  2 -1</clus>
</clustering>
</event>
<event>
 6    0  0.5563122E+002  0.7819073E+02  0.7546771E-02  0.1334266E+00
         21   -1    0    0  503  501  0.00000000000E+00  0.00000000000E+00  0.51358385906E+02  0.51358385906E+02  0.00000000000E+00 0.  1.
         21   -1    0    0  506  502 -0.00000000000E+00 -0.00000000000E+00 -0.41646879220E+03  0.41646879220E+03  0.00000000000E+00 0.  1.
         21    1    1    2  503  505 -0.61229137872E+02 -0.82524007301E+02 -0.10013586802E+03  0.14347965420E+03  0.00000000000E+00 0.  1.
         21    1    1    2  504  501  0.68292813888E+02  0.18702659664E+02 -0.54813708233E+02  0.89544628636E+02  0.00000000000E+00 0.  1.
         21    1    1    2  505  502 -0.39363932736E+02  0.56399849131E+02 -0.11456227462E+03  0.13362251663E+03  0.00000000000E+00 0.  1.
         21    1    1    2  506  504  0.32300256720E+02  0.74214985049E+01 -0.95598555416E+02  0.10118037864E+03  0.00000000000E+00 0.  1.
<scales pt_clust_3="78.19073" pt_clust_4="14000.00000" pt_clust_5="65.05504" pt_clust_6="33.14190"></scales>
<clustering>
<clus scale="   33.142">  2  6  1 -1</clus>
<clus scale="   65.055">  2  5  1 -1</clus>
<clus scale="   78.191">  2  3  1 -1</clus>
<clus scale="   78.191">  1  3  2 -1</clus>
</clustering>
</event>
<event>
 6    0  0.5563122E+002  0.1178539E+03  0.7546771E-02  0.1246680E+00
         21   -1    0    0  503  501  0.00000000000E+00  0.00000000000E+00  0.49185662594E+03  0.49185662594E+03  0.00000000000E+00 0.  1.
         21   -1    0    0  506  502 -0.00000000000E+00 -0.00000000000E+00 -0.93516440682E+03  0.93516440682E+03  0.00000000000E+00 0.  1.
         21    1    1    2  503  505 -0.23664588595E+02  0.69147654291E+02  0.47321314281E+03  0.47882365165E+03  0.00000000000E+00 0.  1.
         21    1    1    2  504  501  0.34862443566E+02 -0.28986575112E+02 -0.35404071252E+03  0.35693197900E+03  0.00000000000E+00 0.  1.
         21    1    1    2  505  502 -0.91090941738E+02 -0.30181091177E+02 -0.23082801515E+03  0.24998006022E+03  0.00000000000E+00 0.  1.
         21    1    1    2  506  504  0.79893086767E+02 -0.99799880020E+01 -0.33165219602E+03  0.34128534190E+03  0.00000000000E+00 0.  1.
<scales pt_clust_3="73.08496" pt_clust_4="38.59653" pt_clust_5="106.03822" pt_clust_6="38.59653"></scales>
<clustering>
<clus scale="   38.597">  4  6 -1 -1</clus>
<clus scale="   73.085">  1  3  2 -1</clus>
<clus scale="  106.038">  1  5  2 -1</clus>
<clus scale="   73.085">  1  3  2 -1</clus>
</clustering>
</event>
<event>
 6    0  0.5563122E+002  0.9250658E+02  0.7546771E-02  0.1296893E+00
         21   -1    0    0  503  501  0.00000000000E+00  0.00000000000E+00  0.41816712323E+03  0.41816712323E+03  0.00000000000E+00 0.  1.
         21   -1    0    0  505  502 -0.00000000000E+00 -0.00000000000E+00 -0.24139423769E+03  0.24139423769E+03  0.00000000000E+00 0. -1.
         21    1    1    2  503  504  0.27341899136E+02 -0.25141035802E+02  0.17224123291E+02  0.40942906012E+02  0.00000000000E+00 0. -1.
         21    1    1    2  504  502 -0.44279021065E+02  0.57677915673E+02 -0.28729194397E+02  0.78184015461E+02  0.00000000000E+00 0. -1.
         21    1    1    2  505  506  0.47793072683E+02  0.49493717142E+02 -0.16377298631E+03  0.17763838796E+03  0.00000000000E+00 0. -1.
         21    1    1    2  506  501 -0.30855950754E+02 -0.82030597014E+02  0.35205094295E+03  0.36279605149E+03  0.00000000000E+00 0.  1.
<scales pt_clust_3="37.14366" pt_clust_4="92.50658" pt_clust_5="68.82201" pt_clust_6="14000.00000"></scales>
<clustering>
<clus scale="   37.144">  1  3  2 -1</clus>
<clus scale="   68.822">  2  5  1 -1</clus>
<clus scale="   92.507">  2  4  1 -1</clus>
<clus scale="   37.144">  1  3  2 -1</clus>
</clustering>
</event>
<event>
 6    0  0.5563122E+002  0.1389679E+03  0.7546771E-02  0.1214724E+00
         21   -1    0    0  506  501  0.00000000000E+00  0.00000000000E+00  0.23243898926E+03  0.23243898926E+03  0.00000000000E+00 0.  1.
         21   -1    0    0  505  502 -0.00000000000E+00 -0.00000000000E+00 -0.48436837522E+03  0.48436837522E+03  0.00000000000E+00 0.  1.
         21    1    1    2  503  501  0.30675004862E+02  0.15171651032E+01  0.15303955692E+03  0.15609088280E+03  0.00000000000E+00 0.  1.
         21    1    1    2  504  503 -0.62427196096E+02 -0.30242095375E+02 -0.25104045503E+02  0.73769588895E+02  0.00000000000E+00 0. -1.
         21    1    1    2  505  504  0.75457048904E+02 -0.11364809742E+03 -0.26786871985E+03  0.30060490241E+03  0.00000000000E+00 0.  1.
         21    1    1    2  506  502 -0.43704857669E+02  0.14237302769E+03 -0.11199617752E+03  0.18634199038E+03  0.00000000000E+00 0.  1.
<scales pt_clust_3="30.71250" pt_clust_4="60.65023" pt_clust_5="138.96792" pt_clust_6="14000.00000"></scales>
<clustering>
<clus scale="   30.713">  1  3  2 -1</clus>
<clus scale="   60.650">  1  4  2 -1</clus>
<clus scale="  138.968">  2  5  1 -1</clus>
<clus scale="   30.713">  1  3  2 -1</clus>
</clustering>
</event>
<event>
 6    0  0.5563122E+002  0.1253156E+03  0.7546771E-02  0.1234577E+00
         21   -1    0    0  506  501  0.00000000000E+00  0.00000000000E+00  0.15299407848E+04  0.15299407848E+04  0.00000000000E+00 0.  1.
         21   -1    0    0  503  502 -0.00000000000E+00 -0.00000000000E+00 -0.26068394277E+03  0.26068394277E+03  0.00000000000E+00 0.  1.
         21    1    1    2  503  505 -0.31501782265E+02 -0.77650805236E+02 -0.17028768656E+03  0.18978910936E+03  0.00000000000E+00 0.  1.
         21    1    1    2  504  501 -0.10553625506E+03  0.69537733019E+02  0.13718280229E+04  0.13776376598E+04  0.00000000000E+00 0.  1.
         21    1    1    2  505  504  0.85688612993E+02 -0.73832603961E+02  0.54630318858E+02  0.12561155816E+03  0.00000000000E+00 0.  1.
         21    1    1    2  506  502  0.51349424335E+02  0.81945676178E+02  0.13086186886E+02  0.97586400236E+02  0.00000000000E+00 0.  1.
<scales pt_clust_3="83.79743" pt_clust_4="125.31562" pt_clust_5="14000.00000" pt_clust_6="54.00908"></scales>
<clustering>
<clus scale="   83.797">  2  3  1 -1</clus>
<clus scale="   54.009">  2  6  1 -1</clus>
<clus scale="  125.316">  1  4  2 -1</clus>
<clus scale="  125.316">  1  3  2 -1</clus>
</clustering>
</event>
<event>
 6    0  0.5563122E+002  0.1160374E+03  0.7546771E-02  0.1249781E+00
         21   -1    0    0  506  501  0.00000000000E+00  0.00000000000E+00  0.15641254414E+03  0.15641254414E+03  0.00000000000E+00 0.  1.
         21   -1    0    0  505  502 -0.00000000000E+00 -0.00000000000E+00 -0.19269164801E+04  0.19269164801E+04  0.00000000000E+00 0.  1.
         21    1    1    2  503  502  0.46949053606E+02 -0.18844735582E+02 -0.28111937997E+03  0.28563515801E+03  0.00000000000E+00 0.  1.
         21    1    1    2  504  503 -0.61890381077E+02 -0.62053210517E+02 -0.28886585208E+03  0.30186834995E+03  0.00000000000E+00 0.  1.
         21    1    1    2  505  501  0.62641557325E+02  0.11376472942E+03 -0.13392260106E+04  0.13455083373E+04  0.00000000000E+00 0.  1.
         21    1    1    2  506  504 -0.47700229854E+02 -0.32866783322E+02  0.13870730666E+03  0.15031717898E+03  0.00000000000E+00 0.  1.
<scales pt_clust_3="50.58990" pt_clust_4="14000.00000" pt_clust_5="116.03745" pt_clust_6="57.82841"></scales>
<clustering>
<clus scale="   50.590">  2  3  1 -1</clus>
<clus scale="   57.828">  1  6  2 -1</clus>
<clus scale="  116.037">  2  5  1 -1</clus>
<clus scale="   57.828">  1  3  2 -1</clus>
</clustering>
</event>
<event>
 6    0  0.5563122E+002  0.6168124E+02  0.7546771E-02  0.1390909E+00
         21   -1    0    0  503  501  0.00000000000E+00  0.00000000000E+00  0.67531616377E+03  0.67531616377E+03  0.00000000000E+00 0.  1.
         21   -1    0    0  505  502 -0.00000000000E+00 -0.00000000000E+00 -0.35756489345E+02  0.35756489345E+02  0.00000000000E+00 0.  1.
         21    1    1    2  503  504 -0.50503062006E+02 -0.10500936181E+01  0.11463643053E+03  0.12527239589E+03  0.00000000000E+00 0.  1.
         21    1    1    2  504  506 -0.35321422971E+02  0.51291330967E+02  0.36448432947E+02  0.72158795842E+02  0.00000000000E+00 0.  1.
         21    1    1    2  505  501  0.10251802181E+03 -0.14122619290E+02  0.43408997042E+03  0.44625496702E+03  0.00000000000E+00 0.  1.
         21    1    1    2  506  502 -0.16693536834E+02 -0.36118618059E+02  0.54384840528E+02  0.67386494358E+02  0.00000000000E+00 0. -1.
<scales pt_clust_3="54.07649" pt_clust_4="61.68124" pt_clust_5="14000.00000" pt_clust_6="39.78981"></scales>
<clustering>
<clus scale="   39.790">  2  6  1 -1</clus>
<clus scale="   54.076">  1  3  2 -1</clus>
<clus scale="   61.681">  2  4  1 -1</clus>
<clus scale="   54.076">  1  3  2 -1</clus>
</clustering>
</event>
<event>
 6    0  0.5563122E+002  0.8436055E+02  0.7546771E-02  0.1317113E+00
         21   -1    0    0  503  501  0.00000000000E+00  0.00000000000E+00  0.25230709741E+03  0.25230709741E+03  0.00000000000E+00 0.  1.
         21   -1    0    0  505  502 -0.00000000000E+00 -0.00000000000E+00 -0.44758449136E+03  0.44758449136E+03  0.00000000000E+00 0. -1.
         21    1    1    2  503  504  0.37817160046E+02 -0.59052689161E+02 -0.30092008858E+03  0.30898261667E+03  0.00000000000E+00 0. -1.
         21    1    1    2  504  502  0.37497957340E+02 -0.31063661096E+02 -0.60734981361E+02  0.77844626059E+02  0.00000000000E+00 0. -1.
         21    1    1    2  505  506 -0.51952358021E+02  0.85972012746E+01 -0.54913138520E+02  0.76081615097E+02  0.00000000000E+00 0. -1.
         21    1    1    2  506  501 -0.23362759364E+02  0.81519148982E+02  0.22129081451E+03  0.23698273094E+03  0.00000000000E+00 0.  1.
<scales pt_clust_3="84.36055" pt_clust_4="48.69341" pt_clust_5="45.57383" pt_clust_6="14000.00000"></scales>
<clustering>
<clus scale="   48.693">  2  4  1 -1</clus>
<clus scale="   45.574">  2  5  1 -1</clus>
<clus scale="   84.361">  2  3  1 -1</clus>
<clus scale="   84.361">  1  3  2 -1</clus>
</clustering>
</event>
<event>
 6    0  0.5563122E+002  0.1589535E+03  0.7546771E-02  0.1189883E+00
         21   -1    0    0  504  501  0.00000000000E+00  0.00000000000E+00  0.52933280194E+03  0.52933280194E+03  0.00000000000E+00 0.  1.
         21   -1    0    0  505  502 -0.00000000000E+00 -0.00000000000E+00 -0.10347463874E+03  0.10347463874E+03  0.00000000000E+00 0. -1.
         21    1    1    2  503  506  0.32375812784E+02 -0.28440011705E+01  0.11885258873E+02  0.34605504975E+02  0.00000000000E+00 0. -1.
         21    1    1    2  504  502 -0.98843684024E+02 -0.86207495037E+02  0.45295463014E+03  0.47156092188E+03  0.00000000000E+00 0.  1.
         21    1    1    2  505  503  0.23841458949E+02  0.68770505725E+02 -0.17974553812E+02  0.74972543023E+02  0.00000000000E+00 0. -1.
         21    1    1    2  506  501  0.42626412291E+02  0.20280990482E+02 -0.21007172009E+02  0.51668470807E+02  0.00000000000E+00 0. -1.
<scales pt_clust_3="31.38414" pt_clust_4="131.15566" pt_clust_5="70.46892" pt_clust_6="70.46892"></scales>
<clustering>
<clus scale="   31.384">  3  6 -1 -1</clus>
<clus scale="   70.469">  3  5 -1 -1</clus>
<clus scale="  131.156">  1  4  2 -1</clus>
<clus scale="  131.156">  1  3  2 -1</clus>
</clustering>
</event>
<event>
 6    0  0.5563122E+002  0.7289024E+02  0.7546771E-02  0.1350532E+00
         21   -1    0    0  505  501  0.00000000000E+00  0.00000000000E+00  0.21892699056E+03  0.21892699056E+03  0.00000000000E+00 0. -1.
         21   -1    0    0  506  502 -0.00000000000E+00 -0.00000000000E+00 -0.67623707915E+03  0.67623707915E+03  0.00000000000E+00 0.  1.
         21    1    1    2  503  502  0.14289141412E+03 -0.10611036022E+02  0.10249272558E+03  0.17616841122E+03  0.00000000000E+00 0. -1.
         21    1    1    2  504  501 -0.23818917666E+02  0.23966679414E+02 -0.13703185438E+02  0.36462581533E+02  0.00000000000E+00 0.  1.
         21    1    1    2  505  503 -0.49123188008E+02 -0.29698466139E+02  0.53605795561E+02  0.78540867125E+02  0.00000000000E+00 0. -1.
         21    1    1    2  506  504 -0.69949308448E+02  0.16342822747E+02 -0.59970542429E+03  0.60399220983E+03  0.00000000000E+00 0.  1.
<scales pt_clust_3="14000.00000" pt_clust_4="33.78968" pt_clust_5="60.84895" pt_clust_6="72.89024"></scales>
<clustering>
<clus scale="   33.790">  1  4  2 -1</clus>
<clus scale="   60.849">  1  5  2 -1</clus>
<clus scale="   72.890">  2  6  1 -1</clus>
<clus scale="   33.790">  1  3  2 -1</clus>
</clustering>
</event>
<event>
 6    0  0.5563122E+002  0.1067295E+03  0.7546771E-02  0.1266749E+00
         21   -1    0    0  505  501  0.00000000000E+00  0.00000000000E+00  0.80735455903E+02  0.80735455903E+02  0.00000000000E+00 0.  1.
         21   -1    0    0  504  502 -0.00000000000E+00 -0.00000000000E+00 -0.53598767815E+03  0.53598767815E+03  0.00000000000E+00 0.  1.
         21    1    1    2  503  506  0.89698399686E+02  0.26791790768E+02 -0.14045566506E+03  0.16879394778E+03  0.00000000000E+00 0.  1.
         21    1    1    2  504  501 -0.81254325581E+02 -0.87288276663E+02 -0.57665725980E+02  0.13246450325E+03  0.00000000000E+00 0.  1.
         21    1    1    2  505  503 -0.26215173473E+02  0.11705286972E+03 -0.14133490401E+03  0.18537573930E+03  0.00000000000E+00 0.  1.
         21    1    1    2  506  502  0.17771099368E+02 -0.56556383826E+02 -0.11579592719E+03  0.13008894372E+03  0.00000000000E+00 0.  1.
<scales pt_clust_3="96.51482" pt_clust_4="106.72947" pt_clust_5="14000.00000" pt_clust_6="59.28268"></scales>
<clustering>
<clus scale="   59.283">  2  6  1 -1</clus>
<clus scale="   96.515">  2  3  1 -1</clus>
<clus scale="  106.729">  1  4  2 -1</clus>
<clus scale="  106.729">  1  3  2 -1</clus>
</clustering>
</event>
<event>
 6    0  0.5563122E+002  0.8274703E+02  0.7546771E-02  0.1321432E+00
         21   -1    0    0  504  501  0.00000000000E+00  0.00000000000E+00  0.17878914418E+04  0.17878914418E+04  0.00000000000E+00 0.  1.
         21   -1    0    0  505  502 -0.00000000000E+00 -0.00000000000E+00 -0.44263324135E+02  0.44263324135E+02  0.00000000000E+00 0. -1.
         21    1    1    2  503  502  0.18204167592E+02 -0.79123926771E+02  0.51597536216E+02  0.96199237258E+02  0.00000000000E+00 0. -1.
         21    1    1    2  504  503  0.78140063237E+02  0.55967888908E+02  0.12733625354E+03  0.15953932285E+03  0.00000000000E+00 0. -1.
         21    1    1    2  505  506 -0.15931819251E+02  0.40722411201E+02  0.96828535049E+02  0.10624454263E+03  0.00000000000E+00 0. -1.
         21    1    1    2  506  501 -0.80412411578E+02 -0.17566373338E+02  0.14678657929E+04  0.14701716632E+04  0.00000000000E+00 0.  1.
<scales pt_clust_3="56.91715" pt_clust_4="14000.00000" pt_clust_5="43.72800" pt_clust_6="82.74703"></scales>
<clustering>
<clus scale="   43.728">  2  5  1 -1</clus>
<clus scale="   56.917">  2  3  1 -1</clus>
<clus scale="   82.747">  1  6  2 -1</clus>
<clus scale="   82.747">  1  3  2 -1</clus>
</clustering>
</event>
<event>
 6    0  0.5563122E+002  0.2052293E+03  0.7546771E-02  0.1145401E+00
         21   -1    0    0  505  501  0.00000000000E+00  0.00000000000E+00  0.14226130677E+03  0.14226130677E+03  0.00000000000E+00 0.  1.
         21   -1    0    0  504  502 -0.00000000000E+00 -0.00000000000E+00 -0.16116978675E+04  0.16116978675E+04  0.00000000000E+00 0.  1.
         21    1    1    2  503  502  0.44362844429E+02  0.23692974404E+02 -0.13026977370E+04  0.13036682143E+04  0.00000000000E+00 0.  1.
         21    1    1    2  504  506  0.77403717900E+02  0.25367155643E+02 -0.78789304603E+02  0.11332511924E+03  0.00000000000E+00 0.  1.
         21    1    1    2  505  503 -0.19540673322E+03 -0.10611771675E+03 -0.23313907024E+02  0.22358063301E+03  0.00000000000E+00 0.  1.
         21    1    1    2  506  501  0.73640170892E+02  0.57057586708E+02 -0.64635612041E+02  0.11338520765E+03  0.00000000000E+00 0.  1.
<scales pt_clust_3="50.29333" pt_clust_4="32.64435" pt_clust_5="202.23825" pt_clust_6="32.64435"></scales>
<clustering>
<clus scale="   32.644">  4  6 -1 -1</clus>
<clus scale="   50.293">  2  3  1 -1</clus>
<clus scale="  202.238">  1  5  2 -1</clus>
<clus scale="  202.238">  1  3  2 -1</clus>
</clustering>
</event>
<event>
 6    0  0.5563122E+002  0.1024626E+03  0.7546771E-02  0.1275201E+00
         21   -1    0    0  504  501  0.00000000000E+00  0.00000000000E+00  0.15443770768E+02  0.15443770768E+02  0.00000000000E+00 0. -1.
         21   -1    0    0  503  502 -0.00000000000E+00 -0.00000000000E+00 -0.21458759593E+04  0.21458759593E+04  0.00000000000E+00 0. -1.
         21    1    1    2  503  506 -0.82371339312E+02 -0.13564803810E+02 -0.14108693554E+04  0.14133369660E+04  0.00000000000E+00 0. -1.
         21    1    1    2  504  502 -0.42585005408E+02 -0.33158535313E+02 -0.11709037324E+03  0.12893070486E+03  0.00000000000E+00 0. -1.
         21    1    1    2  505  501  0.37083569468E+02  0.25628033779E+02 -0.30001865697E+03  0.30338619245E+03  0.00000000000E+00 0. -1.
         21    1    1    2  506  505  0.87872775251E+02  0.21095305343E+02 -0.30245380292E+03  0.31566586676E+03  0.00000000000E+00 0. -1.
<scales pt_clust_3="89.68477" pt_clust_4="53.97195" pt_clust_5="34.99576" pt_clust_6="34.99576"></scales>
<clustering>
<clus scale="   34.996">  5  6 -1 -1</clus>
<clus scale="   53.972">  1  4  2 -1</clus>
<clus scale="   89.685">  2  3  1 -1</clus>
<clus scale="   53.972">  1  3  2 -1</clus>
</clustering>
</event>
<event>
 6    0  0.5563122E+002  0.1609395E+03  0.7546771E-02  0.1187640E+00
         21   -1    0    0  506  501  0.00000000000E+00  0.00000000000E+00  0.23325395318E+03  0.23325395318E+03  0.00000000000E+00 0.  1.
         21   -1    0    0  503  502 -0.00000000000E+00 -0.00000000000E+00 -0.33476562005E+03  0.33476562005E+03  0.00000000000E+00 0.  1.
         21    1    1    2  503  504  0.10772475413E+03 -0.33390270616E+02 -0.16199567732E+03  0.19738827801E+03  0.00000000000E+00 0.  1.
         21    1    1    2  504  501 -0.44312259107E+02 -0.13471847968E+03  0.99364723536E+02  0.17316464234E+03  0.00000000000E+00 0.  1.
         21    1    1    2  505  502 -0.72338335131E+02  0.92396263610E+02 -0.24919899604E+02  0.11996210091E+03  0.00000000000E+00 0.  1.
         21    1    1    2  506  505  0.89258401110E+01  0.75712486687E+02 -0.13960813485E+02  0.77504551964E+02  0.00000000000E+00 0.  1.
<scales pt_clust_3="112.78091" pt_clust_4="143.88136" pt_clust_5="58.12161" pt_clust_6="58.12161"></scales>
<clustering>
<clus scale="   58.122">  5  6 -1 -1</clus>
<clus scale="  112.781">  2  3  1 -1</clus>
<clus scale="  143.881">  1  4  2 -1</clus>
<clus scale="  143.881">  1  3  2 -1</clus>
</clustering>
</event>
<event>
 6    0  0.5563122E+002  0.1189877E+03  0.7546771E-02  0.1244776E+00
         21   -1    0    0  505  501  0.00000000000E+00  0.00000000000E+00  0.88953375558E+03  0.88953375558E+03  0.00000000000E+00 0. -1.
         21   -1    0    0  504  502 -0.00000000000E+00 -0.00000000000E+00 -0.66679739018E+03  0.66679739018E+03  0.00000000000E+00 0.  1.
         21    1    1    2  503  506 -0.10975774608E+02 -0.11533828308E+03  0.13288904202E+03  0.17630338811E+03  0.00000000000E+00 0. -1.
         21    1    1    2  504  503  0.10379920679E+03  0.30386393262E+02 -0.62861247878E+03  0.63784892938E+03  0.00000000000E+00 0.  1.
         21    1    1    2  505  502 -0.11841573080E+03  0.10076555774E+03  0.62180564822E+03  0.64095104890E+03  0.00000000000E+00 0. -1.
         21    1    1    2  506  501  0.25592298621E+02 -0.15813667925E+02  0.96654153942E+02  0.10122777937E+03  0.00000000000E+00 0.  1.
<scales pt_clust_3="118.98775" pt_clust_4="108.27308" pt_clust_5="14000.00000" pt_clust_6="30.08385"></scales>
<clustering>
<clus scale="   30.084">  1  6  2 -1</clus>
<clus scale="  108.273">  2  4  1 -1</clus>
<clus scale="  118.988">  2  3  1 -1</clus>
<clus scale="   30.084">  1  3  2 -1</clus>
</clustering>
</event>
<event>
 6    0  0.5563122E+002  0.9383024E+02  0.7546771E-02  0.1293833E+00
         21   -1    0    0  505  501  0.00000000000E+00  0.00000000000E+00  0.10634321023E+02  0.10634321023E+02  0.00000000000E+00 0.  1.
         21   -1    0    0  503  502 -0.00000000000E+00 -0.00000000000E+00 -0.18445883392E+04  0.18445883392E+04  0.00000000000E+00 0.  1.
         21    1    1    2  503  506  0.38680640250E+02 -0.64738368523E+02 -0.31450138231E+03  0.32341670916E+03  0.00000000000E+00 0.  1.
         21    1    1    2  504  502 -0.15296492332E+02  0.67545874519E+02 -0.72566298096E+03  0.72896034857E+03  0.00000000000E+00 0.  1.
         21    1    1    2  505  504 -0.63071537432E+02  0.25930117606E+02 -0.36991761528E+03  0.37615081009E+03  0.00000000000E+00 0.  1.
         21    1    1    2  506  501  0.39687389514E+02 -0.28737623602E+02 -0.42387203964E+03  0.42669479243E+03  0.00000000000E+00 0.  1.
<scales pt_clust_3="41.04321" pt_clust_4="78.81287" pt_clust_5="68.19377" pt_clust_6="41.04321"></scales>
<clustering>
<clus scale="   41.043">  3  6 -1 -1</clus>
<clus scale="   68.194">  1  5  2 -1</clus>
<clus scale="   78.813">  2  4  1 -1</clus>
<clus scale="   68.194">  1  3  2 -1</clus>
</clustering>
</event>
<event>
 6    0  0.5563122E+002  0.1635517E+03  0.7546771E-02  0.1184744E+00
         21   -1    0    0  504  501  0.00000000000E+00  0.00000000000E+00  0.16606576263E+03  0.16606576263E+03  0.00000000000E+00 0. -1.
         21   -1    0    0  503  502 -0.00000000000E+00 -0.00000000000E+00 -0.60372673246E+03  0.60372673246E+03  0.00000000000E+00 0. -1.
         21    1    1    2  503  505 -0.31792316457E+02  0.68249383654E+02 -0.23521149754E+03  0.24696797025E+03  0.00000000000E+00 0. -1.
         21    1    1    2  504  502  0.99164910799E+02 -0.88429178033E+02 -0.65580777525E+01  0.13302784462E+03  0.00000000000E+00 0. -1.
         21    1    1    2  505  506 -0.78827585065E+02  0.49579321170E+02 -0.28258834294E+03  0.29753666802E+03  0.00000000000E+00 0. -1.
         21    1    1    2  506  501  0.11454990723E+02 -0.29399526791E+02  0.86696948404E+02  0.92260012197E+02  0.00000000000E+00 0. -1.
<scales pt_clust_3="42.50935" pt_clust_4="156.52766" pt_clust_5="42.50935" pt_clust_6="31.55232"></scales>
<clustering>
<clus scale="   31.552">  1  6  2 -1</clus>
<clus scale="   42.509">  3  5 -1 -1</clus>
<clus scale="  156.528">  1  4  2 -1</clus>
<clus scale="   31.552">  1  3  2 -1</clus>
</clustering>
</event>
<event>
 6    0  0.5563122E+002  0.2833077E+03  0.7546771E-02  0.1093896E+00
         21   -1    0    0  502  501  0.00000000000E+00  0.00000000000E+00  0.63454756761E+03  0.63454756761E+03  0.00000000000E+00 0.  1.
         21   -1    0    0  505  502 -0.00000000000E+00 -0.00000000000E+00 -0.54031100669E+03  0.54031100669E+03  0.00000000000E+00 0.  1.
         21    1    1    2  503  506  0.10979570255E+03 -0.30075947283E+02  0.23748835912E+03  0.26336358826E+03  0.00000000000E+00 0.  1.
         21    1    1    2  504  501 -0.27094109913E+00 -0.72894055819E+02  0.20747087273E+03  0.21990402410E+03  0.00000000000E+00 0.  1.
         21    1    1    2  505  503 -0.20987740412E+03  0.17234901808E+03 -0.45580380223E+03  0.53057498520E+03  0.00000000000E+00 0.  1.
         21    1    1    2  506  504  0.10035264267E+03 -0.69379014979E+02  0.10508113130E+03  0.16101597674E+03  0.00000000000E+00 0.  1.
<scales pt_clust_3="91.70649" pt_clust_4="72.89456" pt_clust_5="267.53079" pt_clust_6="91.70649"></scales>
<clustering>
<clus scale="   72.895">  1  4  2 -1</clus>
<clus scale="   91.706">  3  6 -1 -1</clus>
<clus scale="  267.531">  2  5  1 -1</clus>
<clus scale="   72.895">  1  3  2 -1</clus>
</clustering>
</event>
<event>
 6    0  0.5563122E+002  0.1082871E+03  0.7546771E-02  0.1263775E+00
         21   -1    0    0  504  501  0.00000000000E+00  0.00000000000E+00  0.19505146583E+03  0.19505146583E+03  0.00000000000E+00 0. -1.
         21   -1    0    0  506  502 -0.00000000000E+00 -0.00000000000E+00 -0.28577427563E+03  0.28577427563E+03  0.00000000000E+00 0.  1.
         21    1    1    2  503  502 -0.30918443398E+02  0.10957872628E+03 -0.23949227624E+03  0.26517918051E+03  0.00000000000E+00 0.  1.
         21    1    1    2  504  503 -0.23161289194E+02 -0.31229165337E+02  0.19171798558E+02  0.43350478022E+02  0.00000000000E+00 0. -1.
         21    1    1    2  505  501  0.38007208399E+02 -0.22762729096E+02  0.20526528186E+02  0.48826510070E+02  0.00000000000E+00 0. -1.
         21    1    1    2  506  505  0.16072524193E+02 -0.55586831847E+02  0.10907113969E+03  0.12346957286E+03  0.00000000000E+00 0. -1.
<scales pt_clust_3="14000.00000" pt_clust_4="38.88066" pt_clust_5="44.25726" pt_clust_6="108.28715"></scales>
<clustering>
<clus scale="   38.881">  1  4  2 -1</clus>
<clus scale="   44.257">  1  5  2 -1</clus>
<clus scale="  108.287">  1  6  2 -1</clus>
<clus scale="   38.881">  1  3  2 -1</clus>
</clustering>
</event>
<event>
 6    0  0.5563122E+002  0.1679261E+03  0.7546771E-02  0.1180028E+00
         21   -1    0    0  505  501  0.00000000000E+00  0.00000000000E+00  0.12173051985E+03  0.12173051985E+03  0.00000000000E+00 0. -1.
         21   -1    0    0  503  502 -0.00000000000E+00 -0.00000000000E+00 -0.10284697729E+04  0.10284697729E+04  0.00000000000E+00 0. -1.
         21    1    1    2  503  504  0.99838199637E+02 -0.50002829083E+02  0.26286044700E+02  0.11471227122E+03  0.00000000000E+00 0. -1.
         21    1    1    2  504  501  0.37719073459E+02 -0.59986130586E+02 -0.25420769502E+00  0.70859925112E+02  0.00000000000E+00 0. -1.
         21    1    1    2  505  506  0.55842497235E+01  0.41359057937E+02 -0.39843868626E+02  0.57699994675E+02  0.00000000000E+00 0. -1.
         21    1    1    2  506  502 -0.14314152282E+03  0.68629901733E+02 -0.89292722145E+03  0.90692810177E+03  0.00000000000E+00 0. -1.
<scales pt_clust_3="41.69753" pt_clust_4="41.69753" pt_clust_5="41.73434" pt_clust_6="159.55990"></scales>
<clustering>
<clus scale="   41.698">  3  4 -1 -1</clus>
<clus scale="   41.734">  1  5  2 -1</clus>
<clus scale="  159.560">  2  6  1 -1</clus>
<clus scale="   41.734">  1  3  2 -1</clus>
</clustering>
</event>
<event>
 6    0  0.5563122E+002  0.9959419E+02  0.7546771E-02  0.1281152E+00
         21   -1    0    0  505  501  0.00000000000E+00  0.00000000000E+00  0.25229645787E+03  0.25229645787E+03  0.00000000000E+00 0. -1.
         21   -1    0    0  503  502 -0.00000000000E+00 -0.00000000000E+00 -0.90600383718E+03  0.90600383718E+03  0.00000000000E+00 0.  1.
         21    1    1    2  503  501  0.45526190959E+02 -0.11887092610E+03  0.12899981994E+02  0.12794272418E+03  0.00000000000E+00 0.  1.
         21    1    1    2  504  506  0.13375041408E+02  0.97532592425E+02  0.36174801139E+02  0.10488143094E+03  0.00000000000E+00 0. -1.
         21    1    1    2  505  504 -0.34881925237E+02 -0.27547993101E+02  0.10595835013E+03  0.11490349253E+03  0.00000000000E+00 0.  1.
         21    1    1    2  506  502 -0.24019307130E+02  0.48886326778E+02 -0.80874051257E+03  0.81057264742E+03  0.00000000000E+00 0.  1.
<scales pt_clust_3="14000.00000" pt_clust_4="99.59419" pt_clust_5="44.44818" pt_clust_6="54.40874"></scales>
<clustering>
<clus scale="   44.448">  1  5  2 -1</clus>
<clus scale="   54.409">  2  6  1 -1</clus>
<clus scale="   99.594">  1  4  2 -1</clus>
<clus scale="   44.448">  1  3  2 -1</clus>
</clustering>
</event>
<event>
 6    0  0.5563122E+002  0.7721259E+02  0.7546771E-02  0.1337153E+00
         21   -1    0    0  504  501  0.00000000000E+00  0.00000000000E+00  0.25295438636E+03  0.25295438636E+03  0.00000000000E+00 0. -1.
         21   -1    0    0  503  502 -0.00000000000E+00 -0.00000000000E+00 -0.80505360282E+03  0.80505360282E+03  0.00000000000E+00 0. -1.
         21    1    1    2  503  505  0.32020499778E+02 -0.61182028892E+02 -0.32563406364E+03  0.33287549695E+03  0.00000000000E+00 0. -1.
         21    1    1    2  504  502 -0.34832994995E+02  0.82838278115E+02 -0.35895892747E+03  0.37003652451E+03  0.00000000000E+00 0. -1.
         21    1    1    2  505  506 -0.31527461085E+02 -0.47945034282E+02 -0.10179220027E+03  0.11685186841E+03  0.00000000000E+00 0. -1.
         21    1    1    2  506  501  0.34339956302E+02  0.26288785058E+02  0.23428597492E+03  0.23824409932E+03  0.00000000000E+00 0. -1.
<scales pt_clust_3="77.21259" pt_clust_4="14000.00000" pt_clust_5="39.48619" pt_clust_6="43.24734"></scales>
<clustering>
<clus scale="   43.247">  1  6  2 -1</clus>
<clus scale="   39.486">  1  5  2 -1</clus>
<clus scale="   77.213">  2  3  1 -1</clus>
<clus scale="   43.247">  1  3  2 -1</clus>
</clustering>
</event>
<event>
 6    0  0.5563122E+002  0.7981308E+02  0.7546771E-02  0.1329583E+00
         21   -1    0    0  506  501  0.00000000000E+00  0.00000000000E+00  0.87475775524E+03  0.87475775524E+03  0.00000000000E+00 0.  1.
         21   -1    0    0  505  502 -0.00000000000E+00 -0.00000000000E+00 -0.91622733891E+03  0.91622733891E+03  0.00000000000E+00 0. -1.
         21    1    1    2  503  501 -0.53221056065E+02  0.55949834561E+02  0.85156498739E+03  0.85505894098E+03  0.00000000000E+00 0.  1.
         21    1    1    2  504  503  0.80512837755E+02  0.27923080745E+02 -0.95342302350E+02  0.12787560400E+03  0.00000000000E+00 0. -1.
         21    1    1    2  505  504  0.27286922465E+02 -0.27490672552E+02 -0.12678701908E+03  0.13257172180E+03  0.00000000000E+00 0. -1.
         21    1    1    2  506  502 -0.54578704155E+02 -0.56382242754E+02 -0.67090524963E+03  0.67547882737E+03  0.00000000000E+00 0. -1.
<scales pt_clust_3="77.13358" pt_clust_4="14000.00000" pt_clust_5="38.73388" pt_clust_6="79.81308"></scales>
<clustering>
<clus scale="   38.734">  2  5  1 -1</clus>
<clus scale="   77.134">  1  3  2 -1</clus>
<clus scale="   79.813">  2  6  1 -1</clus>
<clus scale="   77.134">  1  3  2 -1</clus>
</clustering>
</event>
<event>
 6    0  0.5563122E+002  0.2130902E+03  0.7546771E-02  0.1139142E+00
         21   -1    0    0  506  501  0.00000000000E+00  0.00000000000E+00  0.58475761728E+03  0.58475761728E+03  0.00000000000E+00 0. -1.
         21   -1    0    0  505  502 -0.00000000000E+00 -0.00000000000E+00 -0.32888342216E+03  0.32888342216E+03  0.00000000000E+00 0. -1.
         21    1    1    2  503  501  0.57148459772E+00 -0.77666342189E+02 -0.13162152018E+03  0.15282870109E+03  0.00000000000E+00 0. -1.
         21    1    1    2  504  502 -0.88930587849E+02  0.12463194535E+03  0.39411971700E+03  0.42281452504E+03  0.00000000000E+00 0. -1.
         21    1    1    2  505  503  0.71109306982E+02 -0.10411093434E+03 -0.14209144554E+03  0.18996209908E+03  0.00000000000E+00 0. -1.
         21    1    1    2  506  504  0.17249796269E+02  0.57145331180E+02  0.13546744385E+03  0.14803571424E+03  0.00000000000E+00 0. -1.
<scales pt_clust_3="52.09631" pt_clust_4="53.07859" pt_clust_5="206.36556" pt_clust_6="53.07859"></scales>
<clustering>
<clus scale="   52.096">  3  5 -1 -1</clus>
<clus scale="   53.079">  4  6 -1 -1</clus>
<clus scale="  206.366">  2  3  1 -1</clus>
<clus scale="  213.090">  1  3  2 -1</clus>
</clustering>
</event>
<event>
 6    0  0.5563122E+002  0.1385606E+03  0.7546771E-02  0.1215279E+00
         21   -1    0    0  504  501  0.00000000000E+00  0.00000000000E+00  0.33129997687E+02  0.33129997687E+02  0.00000000000E+00 0. -1.
         21   -1    0    0  501  502 -0.00000000000E+00 -0.00000000000E+00 -0.20409720161E+04  0.20409720161E+04  0.00000000000E+00 0. -1.
         21    1    1    2  503  502 -0.36205561291E+02 -0.22464524311E+02 -0.19913418887E+03  0.20364165266E+03  0.00000000000E+00 0.  1.
         21    1    1    2  504  505  0.39500855329E+02  0.75148847211E+02 -0.83729836794E+02  0.11924073288E+03  0.00000000000E+00 0. -1.
         21    1    1    2  505  506  0.85413153444E+02 -0.13910590204E+03 -0.69968924324E+03  0.71847818051E+03  0.00000000000E+00 0. -1.
         21    1    1    2  506  503 -0.88708447482E+02  0.86421579143E+02 -0.10252887495E+04  0.10327414478E+04  0.00000000000E+00 0. -1.
<scales pt_clust_3="42.60866" pt_clust_4="82.88022" pt_clust_5="138.56056" pt_clust_6="14000.00000"></scales>
<clustering>
<clus scale="   42.609">  2  3  1 -1</clus>
<clus scale="   82.880">  1  4  2 -1</clus>
<clus scale="  138.561">  1  5  2 -1</clus>
<clus scale="   82.880">  1  3  2 -1</clus>
</clustering>
</event>
<event>
 6    0  0.5563122E+002  0.1968155E+03  0.7546771E-02  0.1152454E+00
         21   -1    0    0  502  501  0.00000000000E+00  0.00000000000E+00  0.86185600021E+02  0.86185600021E+02  0.00000000000E+00 0. -1.
         21   -1    0    0  505  502 -0.00000000000E+00 -0.00000000000E+00 -0.11455819067E+04  0.11455819067E+04  0.00000000000E+00 0. -1.
         21    1    1    2  503  501  0.46097043114E+02  0.71827063096E+02 -0.29397258286E+02  0.90267730511E+02  0.00000000000E+00 0. -1.
         21    1    1    2  504  506 -0.12722682174E+03 -0.11432994935E+03 -0.27824404346E+03  0.32661559854E+03  0.00000000000E+00 0. -1.
         21    1    1    2  505  504 -0.13825304222E+02 -0.31474945020E+02 -0.66648478483E+03  0.66737079619E+03  0.00000000000E+00 0. -1.
         21    1    1    2  506  503  0.94955082847E+02  0.73977831277E+02 -0.85270220107E+02  0.14751338148E+03  0.00000000000E+00 0. -1.
<scales pt_clust_3="40.04989" pt_clust_4="191.04939" pt_clust_5="34.37748" pt_clust_6="40.04989"></scales>
<clustering>
<clus scale="   34.377">  2  5  1 -1</clus>
<clus scale="   40.050">  3  6 -1 -1</clus>
<clus scale="  191.049">  2  4  1 -1</clus>
<clus scale="  196.815">  1  3  2 -1</clus>
</clustering>
</event>
<event>
 6    0  0.5563122E+002  0.9876698E+02  0.7546771E-02  0.1282910E+00
         21   -1    0    0  504  501  0.00000000000E+00  0.00000000000E+00  0.18521712852E+03  0.18521712852E+03  0.00000000000E+00 0.  1.
         21   -1    0    0  505  502 -0.00000000000E+00 -0.00000000000E+00 -0.17141389518E+03  0.17141389518E+03  0.00000000000E+00 0.  1.
         21    1    1    2  503  502  0.78108999355E+02  0.87088691029E+02 -0.69199655070E+02  0.13591927070E+03  0.00000000000E+00 0.  1.
         21    1    1    2  504  503  0.18826306139E+02  0.30118857749E+02  0.24831568139E+02  0.43337999160E+02  0.00000000000E+00 0.  1.
         21    1    1    2  505  506 -0.35927217332E+02 -0.70919156467E+02 -0.27025745237E+01  0.79546185379E+02  0.00000000000E+00 0.  1.
         21    1    1    2  506  501 -0.61008088161E+02 -0.46288392311E+02  0.60873894793E+02  0.97827568462E+02  0.00000000000E+00 0.  1.
<scales pt_clust_3="98.76698" pt_clust_4="35.51866" pt_clust_5="14000.00000" pt_clust_6="59.51741"></scales>
<clustering>
<clus scale="   35.519">  1  4  2 -1</clus>
<clus scale="   59.517">  1  6  2 -1</clus>
<clus scale="   98.767">  2  3  1 -1</clus>
<clus scale="   35.519">  1  3  2 -1</clus>
</clustering>
</event>
<event>
 6    0  0.5563122E+002  0.1143160E+03  0.7546771E-02  0.1252780E+00
         21   -1    0    0  505  501  0.00000000000E+00  0.00000000000E+00  0.16551267794E+04  0.16551267794E+04  0.00000000000E+00 0.  1.
         21   -1    0    0  503  502 -0.00000000000E+00 -0.00000000000E+00 -0.45736740942E+02  0.45736740942E+02  0.00000000000E+00 0.  1.
         21    1    1    2  503  504  0.58610974979E+01  0.33257913035E+02 -0.12450817348E+02  0.35992556119E+02  0.00000000000E+00 0.  1.
         21    1    1    2  504  501 -0.11758231016E+03  0.46232069436E+02  0.89007249962E+03  0.89899502695E+03  0.00000000000E+00 0.  1.
         21    1    1    2  505  506  0.52418378926E+02 -0.10536236062E+03  0.65495930503E+03  0.66544767242E+03  0.00000000000E+00 0.  1.
         21    1    1    2  506  502  0.59302833739E+02  0.25872378148E+02  0.76809051148E+02  0.10042826484E+03  0.00000000000E+00 0.  1.
<scales pt_clust_3="33.77042" pt_clust_4="14000.00000" pt_clust_5="114.31598" pt_clust_6="76.52449"></scales>
<clustering>
<clus scale="   33.770">  2  3  1 -1</clus>
<clus scale="   76.524">  2  6  1 -1</clus>
<clus scale="  114.316">  2  5  1 -1</clus>
<clus scale="  114.316">  1  3  2 -1</clus>
</clustering>
</event>
<event>
 6    0  0.5563122E+002  0.1349255E+03  0.7546771E-02  0.1220325E+00
         21   -1    0    0  506  501  0.00000000000E+00  0.00000000000E+00  0.43207431324E+03  0.43207431324E+03  0.00000000000E+00 0.  1.
         21   -1    0    0  503  502 -0.00000000000E+00 -0.00000000000E+00 -0.13898506566E+03  0.13898506566E+03  0.00000000000E+00 0.  1.
         21    1    1    2  503  501  0.87044990385E+02  0.56732731925E+02  0.37219958274E+02  0.11036647370E+03  0.00000000000E+00 0.  1.
         21    1    1    2  504  505  0.25273262900E+02 -0.12961677761E+03  0.13102200361E+03  0.18602691280E+03  0.00000000000E+00 0.  1.
         21    1    1    2  505  502 -0.88859678183E+02  0.10956833729E+03 -0.14435819070E+01  0.14107922197E+03  0.00000000000E+00 0.  1.
         21    1    1    2  506  504 -0.23458575102E+02 -0.36684291601E+02  0.12629086760E+03  0.13358677044E+03  0.00000000000E+00 0.  1.
<scales pt_clust_3="94.31050" pt_clust_4="14000.00000" pt_clust_5="134.92553" pt_clust_6="43.54356"></scales>
<clustering>
<clus scale="   43.544">  1  6  2 -1</clus>
<clus scale="   94.310">  1  3  2 -1</clus>
<clus scale="  134.926">  2  5  1 -1</clus>
<clus scale="   43.544">  1  3  2 -1</clus>
</clustering>
</event>
<event>
 6    0  0.5563122E+002  0.1225354E+03  0.7546771E-02  0.1238972E+00
         21   -1    0    0  504  501  0.00000000000E+00  0.00000000000E+00  0.24985087653E+03  0.24985087653E+03  0.00000000000E+00 0.  1.
         21   -1    0    0  503  502 -0.00000000000E+00 -0.00000000000E+00 -0.29845663861E+03  0.29845663861E+03  0.00000000000E+00 0.  1.
         21    1    1    2  503  505  0.14892924448E+02 -0.36037244313E+02 -0.73283916266E+01  0.39676031809E+02  0.00000000000E+00 0.  1.
         21    1    1    2  504  506 -0.26480473639E+02  0.83571978567E+02  0.63845782220E+02  0.10845171734E+03  0.00000000000E+00 0.  1.
         21    1    1    2  505  501  0.44227811649E+02 -0.14130198640E+03  0.95600092978E+02  0.17624337849E+03  0.00000000000E+00 0.  1.
         21    1    1    2  506  502 -0.32640262458E+02  0.93767252147E+02 -0.20072324564E+03  0.22393638751E+03  0.00000000000E+00 0.  1.
<scales pt_clust_3="31.98599" pt_clust_4="87.66693" pt_clust_5="31.98599" pt_clust_6="105.49919"></scales>
<clustering>
<clus scale="   31.986">  3  5 -1 -1</clus>
<clus scale="   87.667">  1  4  2 -1</clus>
<clus scale="  105.499">  2  6  1 -1</clus>
<clus scale="   87.667">  1  3  2 -1</clus>
</clustering>
</event>
<event>
 6    0  0.5563122E+002  0.8970040E+02  0.7546771E-02  0.1303579E+00
         21   -1    0    0  505  501  0.00000000000E+00  0.00000000000E+00  0.13184413414E+04  0.13184413414E+04  0.00000000000E+00 0. -1.
         21   -1    0    0  503  502 -0.00000000000E+00 -0.00000000000E+00 -0.58745674222E+02  0.58745674222E+02  0.00000000000E+00 0. -1.
         21    1    1    2  503  506  0.33524439897E+02 -0.45666147403E+02 -0.12349224142E+02  0.57980931572E+02  0.00000000000E+00 0. -1.
         21    1    1    2  504  502  0.54095481487E+02  0.40080976213E+02  0.45194664299E+03  0.45693388349E+03  0.00000000000E+00 0. -1.
         21    1    1    2  505  504  0.31058621370E+02  0.44950466913E+01  0.67086586374E+03  0.67159947181E+03  0.00000000000E+00 0. -1.
         21    1    1    2  506  501 -0.11867854275E+03  0.10901244983E+01  0.14923238463E+03  0.19067272879E+03  0.00000000000E+00 0. -1.
<scales pt_clust_3="57.17909" pt_clust_4="89.70040" pt_clust_5="31.38221" pt_clust_6="14000.00000"></scales>
<clustering>
<clus scale="   31.382">  1  5  2 -1</clus>
<clus scale="   57.179">  2  3  1 -1</clus>
<clus scale="   89.700">  1  4  2 -1</clus>
<clus scale="   31.382">  1  3  2 -1</clus>
</clustering>
</event>
<event>
 6    0  0.5563122E+002  0.9326655E+02  0.7546771E-02  0.1295129E+00
         21   -1    0    0  506  501  0.00000000000E+00  0.00000000000E+00  0.58988895272E+03  0.58988895272E+03  0.00000000000E+00 0. -1.
         21   -1    0    0  505  502 -0.00000000000E+00 -0.00000000000E+00 -0.11756146160E+03  0.11756146160E+03  0.00000000000E+00 0. -1.
         21    1    1    2  503  502 -0.18920079494E+02  0.25228935828E+02  0.16114323822E+02  0.35413839714E+02  0.00000000000E+00 0. -1.
         21    1    1    2  504  503  0.70044006332E+02  0.66210035106E+02  0.12444407448E+02  0.97184334378E+02  0.00000000000E+00 0. -1.
         21    1    1    2  505  501 -0.93618445826E+02 -0.19900659843E+02 -0.24866201837E+02  0.98887702243E+02  0.00000000000E+00 0. -1.
         21    1    1    2  506  504  0.42494518988E+02 -0.71538311091E+02  0.46863496169E+03  0.47596453798E+03  0.00000000000E+00 0. -1.
<scales pt_clust_3="31.53520" pt_clust_4="14000.00000" pt_clust_5="93.26655" pt_clust_6="82.14295"></scales>
<clustering>
<clus scale="   31.535">  2  3  1 -1</clus>
<clus scale="   82.143">  1  6  2 -1</clus>
<clus scale="   93.267">  2  5  1 -1</clus>
<clus scale="   82.143">  1  3  2 -1</clus>
</clustering>
</event>
<event>
 6    0  0.5563122E+002  0.9935671E+02  0.7546771E-02  0.1281655E+00
         21   -1    0    0  503  501  0.00000000000E+00  0.00000000000E+00  0.65720983952E+03  0.65720983952E+03  0.00000000000E+00 0. -1.
         21   -1    0    0  504  502 -0.00000000000E+00 -0.00000000000E+00 -0.31085578630E+04  0.31085578630E+04  0.00000000000E+00 0. -1.
         21    1    1    2  503  505 -0.39522002725E+02  0.92513725646E+02  0.63980297747E+03  0.64766397778E+03  0.00000000000E+00 0. -1.
         21    1    1    2  504  506 -0.29784813924E+02  0.21738044125E+02 -0.25109896434E+04  0.25112603742E+04  0.00000000000E+00 0. -1.
         21    1    1    2  505  502  0.58384008200E+02 -0.48139679365E+02 -0.48253877973E+03  0.48843607062E+03  0.00000000000E+00 0. -1.
         21    1    1    2  506  501  0.10922808449E+02 -0.66112090406E+02 -0.97622577867E+02  0.11840727998E+03  0.00000000000E+00 0. -1.
<scales pt_clust_3="14000.00000" pt_clust_4="36.87381" pt_clust_5="45.79304" pt_clust_6="99.35671"></scales>
<clustering>
<clus scale="   36.874">  2  4  1 -1</clus>
<clus scale="   45.793">  2  5  1 -1</clus>
<clus scale="   99.357">  2  6  1 -1</clus>
<clus scale="   99.357">  1  3  2 -1</clus>
</clustering>
</event>
<event>
 6    0  0.5563122E+002  0.1260082E+03  0.7546771E-02  0.1233502E+00
         21   -1    0    0  505  501  0.00000000000E+00  0.00000000000E+00  0.18991964440E+04  0.18991964440E+04  0.00000000000E+00 0. -1.
         21   -1    0    0  504  502 -0.00000000000E+00 -0.00000000000E+00 -0.13791824227E+03  0.13791824227E+03  0.00000000000E+00 0.  1.
         21    1    1    2  503  502  0.44006816025E+02  0.37938941301E+02 -0.14206677839E+02  0.59814653881E+02  0.00000000000E+00 0.  1.
         21    1    1    2  504  506 -0.21181484267E+02  0.10886702761E+03  0.74490103565E+03  0.75311236737E+03  0.00000000000E+00 0. -1.
         21    1    1    2  505  503  0.16968578676E+02 -0.14956300703E+03 -0.37689908485E+02  0.15516943943E+03  0.00000000000E+00 0.  1.
         21    1    1    2  506  501 -0.39793910433E+02  0.27570381112E+01  0.10682737524E+04  0.10690182256E+04  0.00000000000E+00 0. -1.
<scales pt_clust_3="57.33012" pt_clust_4="14000.00000" pt_clust_5="126.00824" pt_clust_6="39.88930"></scales>
<clustering>
<clus scale="   39.889">  1  6  2 -1</clus>
<clus scale="   57.330">  2  3  1 -1</clus>
<clus scale="  126.008">  2  5  1 -1</clus>
<clus scale="   39.889">  1  3  2 -1</clus>
</clustering>
</event>
<event>
 6    0  0.5563122E+002  0.1221493E+03  0.7546771E-02  0.1239593E+00
         21   -1    0    0  506  501  0.00000000000E+00  0.00000000000E+00  0.49666730726E+03  0.49666730726E+03  0.00000000000E+00 0.  1.
         21   -1    0    0  505  502 -0.00000000000E+00 -0.00000000000E+00 -0.25694175311E+03  0.25694175311E+03  0.00000000000E+00 0. -1.
         21    1    1    2  503  504 -0.80474644084E+02  0.44843035325E+02  0.14003681728E+03  0.16762272027E+03  0.00000000000E+00 0.  1.
         21    1    1    2  504  501 -0.36661078956E+01  0.30823697410E+02  0.23630093793E+02  0.39011818745E+02  0.00000000000E+00 0.  1.
         21    1    1    2  505  503 -0.53815689723E+02  0.79005442547E+01 -0.21089533732E+03  0.21779667207E+03  0.00000000000E+00 0. -1.
         21    1    1    2  506  502  0.13795644170E+03 -0.83567276990E+02  0.28695398040E+03  0.32917784929E+03  0.00000000000E+00 0.  1.
<scales pt_clust_3="122.14934" pt_clust_4="31.04095" pt_clust_5="54.45308" pt_clust_6="14000.00000"></scales>
<clustering>
<clus scale="   31.041">  1  4  2 -1</clus>
<clus scale="   54.453">  2  5  1 -1</clus>
<clus scale="  122.149">  2  3  1 -1</clus>
<clus scale="   31.041">  1  3  2 -1</clus>
</clustering>
</event>
<event>
 6    0  0.5563122E+002  0.6888766E+02  0.7546771E-02  0.1363917E+00
         21   -1    0    0  505  501  0.00000000000E+00  0.00000000000E+00  0.79711892970E+02  0.79711892970E+02  0.00000000000E+00 0.  1.
         21   -1    0    0  504  502 -0.00000000000E+00 -0.00000000000E+00 -0.88352024750E+03  0.88352024750E+03  0.00000000000E+00 0.  1.
         21    1    1    2  503  506  0.24538142556E+02 -0.48843210229E+02 -0.13486108083E+03  0.14551732113E+03  0.00000000000E+00 0.  1.
         21    1    1    2  504  501  0.43047417432E+02  0.13083752043E+03 -0.45640598154E+03  0.47673677946E+03  0.00000000000E+00 0.  1.
         21    1    1    2  505  503 -0.53164038665E+02 -0.40913985443E+02  0.44352567709E+02  0.80420889540E+02  0.00000000000E+00 0.  1.
         21    1    1    2  506  502 -0.14421521323E+02 -0.41080324756E+02 -0.25689385987E+03  0.26055715035E+03  0.00000000000E+00 0.  1.
<scales pt_clust_3="61.84520" pt_clust_4="68.88766" pt_clust_5="14000.00000" pt_clust_6="43.53818"></scales>
<clustering>
<clus scale="   43.538">  2  6  1 -1</clus>
<clus scale="   61.845">  2  3  1 -1</clus>
<clus scale="   68.888">  2  4  1 -1</clus>
<clus scale="   68.888">  1  3  2 -1</clus>
</clustering>
</event>
<event>
 6    0  0.5563122E+002  0.8257722E+02  0.7546771E-02  0.1321893E+00
         21   -1    0    0  506  501  0.00000000000E+00  0.00000000000E+00  0.29472842221E+03  0.29472842221E+03  0.00000000000E+00 0.  1.
         21   -1    0    0  503  502 -0.00000000000E+00 -0.00000000000E+00 -0.15297169879E+03  0.15297169879E+03  0.00000000000E+00 0.  1.
         21    1    1    2  503  505 -0.49017517082E+02  0.32702935325E+02  0.26164820879E+02  0.64473225538E+02  0.00000000000E+00 0. -1.
         21    1    1    2  504  502  0.14730971698E+02 -0.32886350054E+02 -0.32660079921E+01  0.36182597409E+02  0.00000000000E+00 0.  1.
         21    1    1    2  505  501 -0.76206162001E+02 -0.25316515616E+02  0.19470872645E+03  0.21061764704E+03  0.00000000000E+00 0.  1.
         21    1    1    2  506  504  0.11049270739E+03  0.25499930346E+02 -0.75850815914E+02  0.13642665102E+03  0.00000000000E+00 0.  1.
<scales pt_clust_3="54.60986" pt_clust_4="36.03489" pt_clust_5="82.57722" pt_clust_6="14000.00000"></scales>
<clustering>
<clus scale="   36.035">  2  4  1 -1</clus>
<clus scale="   54.610">  2  3  1 -1</clus>
<clus scale="   82.577">  1  5  2 -1</clus>
<clus scale="   82.577">  1  3  2 -1</clus>
</clustering>
</event>
<event>
 6    0  0.5563122E+002  0.7648361E+02  0.7546771E-02  0.1339337E+00
         21   -1    0    0  505  501  0.00000000000E+00  0.00000000000E+00  0.23411214752E+03  0.23411214752E+03  0.00000000000E+00 0. -1.
         21   -1    0    0  504  502 -0.00000000000E+00 -0.00000000000E+00 -0.23383263446E+03  0.23383263446E+03  0.00000000000E+00 0.  1.
         21    1    1    2  503  502  0.20544291559E+02  0.32938957560E+02 -0.19662345931E+02  0.43516096887E+02  0.00000000000E+00 0.  1.
         21    1    1    2  504  501 -0.83873352685E+02  0.61369967415E+02 -0.51234487409E+02  0.11587055230E+03  0.00000000000E+00 0.  1.
         21    1    1    2  505  506  0.42416994851E+02 -0.61238109053E+02  0.17898510946E+03  0.19386845246E+03  0.00000000000E+00 0. -1.
         21    1    1    2  506  503  0.20912066275E+02 -0.33070815921E+02 -0.10780876305E+03  0.11468968032E+03  0.00000000000E+00 0.  1.
<scales pt_clust_3="38.82065" pt_clust_4="76.48361" pt_clust_5="14000.00000" pt_clust_6="35.51388"></scales>
<clustering>
<clus scale="   38.821">  2  3  1 -1</clus>
<clus scale="   35.514">  2  6  1 -1</clus>
<clus scale="   76.484">  2  4  1 -1</clus>
<clus scale="   76.484">  1  3  2 -1</clus>
</clustering>
</event>
<event>
 6    0  0.5563122E+002  0.8567426E+02  0.7546771E-02  0.1313679E+00
         21   -1    0    0  504  501  0.00000000000E+00  0.00000000000E+00  0.23399140048E+04  0.23399140048E+04  0.00000000000E+00 0. -1.
         21   -1    0    0  506  502 -0.00000000000E+00 -0.00000000000E+00 -0.38513191216E+02  0.38513191216E+02  0.00000000000E+00 0. -1.
         21    1    1    2  503  502 -0.29924902168E+02  0.15025615550E+02 -0.20563838485E+02  0.39295551219E+02  0.00000000000E+00 0. -1.
         21    1    1    2  504  505  0.19121438776E+02 -0.57381510034E+02  0.63395583726E+03  0.63683457092E+03  0.00000000000E+00 0. -1.
         21    1    1    2  505  503  0.77831836439E+02  0.60857389888E+02  0.14733046674E+04  0.14766137137E+04  0.00000000000E+00 0. -1.
         21    1    1    2  506  501 -0.67028373047E+02 -0.18501495404E+02  0.21470414747E+03  0.22568336019E+03  0.00000000000E+00 0. -1.
<scales pt_clust_3="33.48535" pt_clust_4="56.64564" pt_clust_5="14000.00000" pt_clust_6="85.67426"></scales>
<clustering>
<clus scale="   33.485">  2  3  1 -1</clus>
<clus scale="   56.646">  1  4  2 -1</clus>
<clus scale="   85.674">  2  6  1 -1</clus>
<clus scale="   56.646">  1  3  2 -1</clus>
</clustering>
</event>
<event>
 6    0  0.5563122E+002  0.9371336E+02  0.7546771E-02  0.1294100E+00
         21   -1    0    0  504  501  0.00000000000E+00  0.00000000000E+00  0.24326851239E+04  0.24326851239E+04  0.00000000000E+00 0.  1.
         21   -1    0    0  505  502 -0.00000000000E+00 -0.00000000000E+00 -0.35947683204E+02  0.35947683204E+02  0.00000000000E+00 0.  1.
         21    1    1    2  503  506 -0.10369446324E+03  0.63965388840E+02  0.41988302345E+03  0.43720231707E+03  0.00000000000E+00 0.  1.
         21    1    1    2  504  503  0.37950097424E+02 -0.69119756653E+02  0.32490242685E+03  0.33433417059E+03  0.00000000000E+00 0.  1.
         21    1    1    2  505  501  0.59709683641E+02  0.49252182142E+02  0.16507578565E+04  0.16525714884E+04  0.00000000000E+00 0.  1.
         21    1    1    2  506  502  0.60346821700E+01 -0.44097814329E+02  0.11941339247E+01  0.44524830975E+02  0.00000000000E+00 0.  1.
<scales pt_clust_3="93.71336" pt_clust_4="14000.00000" pt_clust_5="75.95372" pt_clust_6="44.50882"></scales>
<clustering>
<clus scale="   44.509">  2  6  1 -1</clus>
<clus scale="   75.954">  1  5  2 -1</clus>
<clus scale="   93.713">  2  3  1 -1</clus>
<clus scale="   75.954">  1  3  2 -1</clus>
</clustering>
</event>
<event>
 6    0  0.5563122E+002  0.1293359E+03  0.7546771E-02  0.1228444E+00
         21   -1    0    0  505  501  0.00000000000E+00  0.00000000000E+00  0.83295151033E+03  0.83295151033E+03  0.00000000000E+00 0.  1.
         21   -1    0    0  504  502 -0.00000000000E+00 -0.00000000000E+00 -0.33297092191E+03  0.33297092191E+03  0.00000000000E+00 0.  1.
         21    1    1    2  503  501 -0.30856208892E+02  0.31696052305E+02  0.21951600766E+03  0.22392861134E+03  0.00000000000E+00 0.  1.
         21    1    1    2  504  506 -0.36143955205E+01 -0.36247880181E+02 -0.29784160718E+03  0.30006098653E+03  0.00000000000E+00 0.  1.
         21    1    1    2  505  502  0.69824737893E+01 -0.11316758824E+03  0.10889642058E+03  0.15720715118E+03  0.00000000000E+00 0.  1.
         21    1    1    2  506  503  0.27488130623E+02  0.11771941611E+03  0.46940976736E+03  0.48472568319E+03  0.00000000000E+00 0.  1.
<scales pt_clust_3="42.75242" pt_clust_4="36.42764" pt_clust_5="14000.00000" pt_clust_6="129.33589"></scales>
<clustering>
<clus scale="   36.428">  2  4  1 -1</clus>
<clus scale="   42.752">  1  3  2 -1</clus>
<clus scale="  129.336">  1  6  2 -1</clus>
<clus scale="   42.752">  1  3  2 -1</clus>
</clustering>
</event>
<event>
 6    0  0.5563122E+002  0.1927815E+03  0.7546771E-02  0.1155976E+00
         21   -1    0    0  503  501  0.00000000000E+00  0.00000000000E+00  0.64345697903E+03  0.64345697903E+03  0.00000000000E+00 0. -1.
         21   -1    0    0  505  502 -0.00000000000E+00 -0.00000000000E+00 -0.36169689993E+03  0.36169689993E+03  0.00000000000E+00 0. -1.
         21    1    1    2  503  506 -0.19218104621E+01 -0.17564398272E+03  0.39924538821E+03  0.43617815400E+03  0.00000000000E+00 0. -1.
         21    1    1    2  504  501 -0.32664980554E+02  0.24163509746E+02  0.14390286611E+03  0.14952896386E+03  0.00000000000E+00 0. -1.
         21    1    1    2  505  504 -0.37287836402E+02 -0.29492477610E+02  0.38982776211E+02  0.61480450716E+02  0.00000000000E+00 0.  1.
         21    1    1    2  506  502  0.71874627419E+02  0.18097295058E+03 -0.30037095143E+03  0.35796631039E+03  0.00000000000E+00 0. -1.
<scales pt_clust_3="14000.00000" pt_clust_4="40.63098" pt_clust_5="48.77784" pt_clust_6="192.78149"></scales>
<clustering>
<clus scale="   40.631">  1  4  2 -1</clus>
<clus scale="   48.778">  1  5  2 -1</clus>
<clus scale="  192.781">  2  6  1 -1</clus>
<clus scale="   40.631">  1  3  2 -1</clus>
</clustering>
</event>
<event>
 6    0  0.5563122E+002  0.2743652E+03  0.7546771E-02  0.1098807E+00
         21   -1    0    0  502  501  0.00000000000E+00  0.00000000000E+00  0.81183441802E+03  0.81183441802E+03  0.00000000000E+00 0. -1.
         21   -1    0    0  504  502 -0.00000000000E+00 -0.00000000000E+00 -0.22491664438E+03  0.22491664438E+03  0.00000000000E+00 0. -1.
         21    1    1    2  503  505 -0.16699625201E+01  0.14796408050E+03  0.14923563431E+03  0.21016049211E+03  0.00000000000E+00 0. -1.
         21    1    1    2  504  506  0.25932710677E+03  0.58762215170E+02  0.95754147721E+02  0.28261706078E+03  0.00000000000E+00 0. -1.
         21    1    1    2  505  501 -0.54955924672E+02  0.60662773236E+02  0.10538964366E+03  0.13344325649E+03  0.00000000000E+00 0.  1.
         21    1    1    2  506  503 -0.20270121958E+03 -0.26738906891E+03  0.23653834796E+03  0.41053025302E+03  0.00000000000E+00 0. -1.
<scales pt_clust_3="230.71520" pt_clust_4="14000.00000" pt_clust_5="59.95336" pt_clust_6="274.36522"></scales>
<clustering>
<clus scale="   59.953">  3  5 -1 -1</clus>
<clus scale="  230.715">  1  3  2 -1</clus>
<clus scale="  274.365">  1  6  2 -1</clus>
<clus scale="  230.715">  1  3  2 -1</clus>
</clustering>
</event>
<event>
 6    0  0.5563122E+002  0.1329242E+03  0.7546771E-02  0.1223180E+00
         21   -1    0    0  505  501  0.00000000000E+00  0.00000000000E+00  0.18112551257E+04  0.18112551257E+04  0.00000000000E+00 0.  1.
         21   -1    0    0  504  502 -0.00000000000E+00 -0.00000000000E+00 -0.24046185470E+02  0.24046185470E+02  0.00000000000E+00 0.  1.
         21    1    1    2  503  502  0.31522669478E+02 -0.82235802132E+02  0.25105974163E+03  0.26605901546E+03  0.00000000000E+00 0.  1.
         21    1    1    2  504  506 -0.77612163174E+02  0.13564864817E+02  0.30851817264E+03  0.31841971716E+03  0.00000000000E+00 0.  1.
         21    1    1    2  505  503  0.11244168998E+03  0.52451527548E+02  0.10913654712E+04  0.10983955972E+04  0.00000000000E+00 0.  1.
         21    1    1    2  506  501 -0.66352196283E+02  0.16219409767E+02  0.13626555481E+03  0.15242698131E+03  0.00000000000E+00 0.  1.
<scales pt_clust_3="88.07046" pt_clust_4="44.17788" pt_clust_5="124.16777" pt_clust_6="44.17788"></scales>
<clustering>
<clus scale="   44.178">  4  6 -1 -1</clus>
<clus scale="   88.070">  2  3  1 -1</clus>
<clus scale="  124.168">  1  5  2 -1</clus>
<clus scale="  124.168">  1  3  2 -1</clus>
</clustering>
</event>
<event>
 6    0  0.5563122E+002  0.7650632E+02  0.7546771E-02  0.1339269E+00
         21   -1    0    0  506  501  0.00000000000E+00  0.00000000000E+00  0.24299602628E+02  0.24299602628E+02  0.00000000000E+00 0. -1.
         21   -1    0    0  505  502 -0.00000000000E+00 -0.00000000000E+00 -0.20083831952E+04  0.20083831952E+04  0.00000000000E+00 0. -1.
         21    1    1    2  503  502  0.23044903483E+02 -0.67065983093E+02 -0.75791627523E+03  0.76122663768E+03  0.00000000000E+00 0. -1.
         21    1    1    2  504  501 -0.56164222473E+02  0.10913157691E+01 -0.33766231320E+03  0.34230315309E+03  0.00000000000E+00 0. -1.
         21    1    1    2  505  504  0.60287344562E+00  0.86032873597E+02 -0.88674308953E+03  0.89090702412E+03  0.00000000000E+00 0. -1.
         21    1    1    2  506  503  0.32516445545E+02 -0.20058206273E+02 -0.17619146403E+01  0.38245982965E+02  0.00000000000E+00 0. -1.
<scales pt_clust_3="14000.00000" pt_clust_4="44.20276" pt_clust_5="76.50632" pt_clust_6="38.20538"></scales>
<clustering>
<clus scale="   38.205">  1  6  2 -1</clus>
<clus scale="   44.203">  1  4  2 -1</clus>
<clus scale="   76.506">  1  5  2 -1</clus>
<clus scale="   38.205">  1  3  2 -1</clus>
</clustering>
</event>
<event>
 6    0  0.5563122E+002  0.1013233E+03  0.7546771E-02  0.1277538E+00
         21   -1    0    0  504  501  0.00000000000E+00  0.00000000000E+00  0.64151137222E+02  0.64151137222E+02  0.00000000000E+00 0. -1.
         21   -1    0    0  506  502 -0.00000000000E+00 -0.00000000000E+00 -0.23975415284E+04  0.23975415284E+04  0.00000000000E+00 0. -1.
         21    1    1    2  503  501  0.20339835396E+02 -0.58542341308E+02  0.38639158420E+02  0.73033548409E+02  0.00000000000E+00 0. -1.
         21    1    1    2  504  502 -0.89956053857E+01 -0.33190559322E+02 -0.10794523283E+03  0.11329036779E+03  0.00000000000E+00 0. -1.
         21    1    1    2  505  503  0.78067924092E+02 -0.17611359285E+02 -0.60253754902E+03  0.60782913613E+03  0.00000000000E+00 0. -1.
         21    1    1    2  506  505 -0.89412154102E+02  0.10934425991E+03 -0.16615467677E+04  0.16675396132E+04  0.00000000000E+00 0. -1.
<scales pt_clust_3="62.18884" pt_clust_4="34.38799" pt_clust_5="14000.00000" pt_clust_6="101.32329"></scales>
<clustering>
<clus scale="   34.388">  2  4  1 -1</clus>
<clus scale="   62.189">  1  3  2 -1</clus>
<clus scale="  101.323">  2  6  1 -1</clus>
<clus scale="   62.189">  1  3  2 -1</clus>
</clustering>
</event>
<event>
 6    0  0.5563122E+002  0.7902748E+02  0.7546771E-02  0.1331834E+00
         21   -1    0    0  505  501  0.00000000000E+00  0.00000000000E+00  0.31708359347E+03  0.31708359347E+03  0.00000000000E+00 0.  1.
         21   -1    0    0  504  502 -0.00000000000E+00 -0.00000000000E+00 -0.11308220245E+03  0.11308220245E+03  0.00000000000E+00 0. -1.
         21    1    1    2  503  502  0.33304668102E+02  0.34756385219E+02 -0.17463040786E+02  0.51207079827E+02  0.00000000000E+00 0. -1.
         21    1    1    2  504  506 -0.21966230705E+02 -0.12314842741E+03 -0.41581909842E+01  0.12516126005E+03  0.00000000000E+00 0. -1.
         21    1    1    2  505  503 -0.73131557979E+01  0.51032962665E+02  0.42367437974E+02  0.66729643537E+02  0.00000000000E+00 0.  1.
         21    1    1    2  506  501 -0.40252815991E+01  0.37359079523E+02  0.18325518482E+03  0.18706781251E+03  0.00000000000E+00 0.  1.
<scales pt_clust_3="51.36285" pt_clust_4="14000.00000" pt_clust_5="79.02748" pt_clust_6="37.57531"></scales>
<clustering>
<clus scale="   37.575">  1  6  2 -1</clus>
<clus scale="   51.363">  2  3  1 -1</clus>
<clus scale="   79.027">  1  5  2 -1</clus>
<clus scale="   37.575">  1  3  2 -1</clus>
</clustering>
</event>
<event>
 6    0  0.5563122E+002  0.1796709E+03  0.7546771E-02  0.1168122E+00
         21   -1    0    0  503  501  0.00000000000E+00  0.00000000000E+00  0.22881566340E+04  0.22881566340E+04  0.00000000000E+00 0. -1.
         21   -1    0    0  505  502 -0.00000000000E+00 -0.00000000000E+00 -0.84425463614E+02  0.84425463614E+02  0.00000000000E+00 0. -1.
         21    1    1    2  503  506  0.65556856358E+01 -0.43237446126E+02  0.82090908306E+03  0.82207309675E+03  0.00000000000E+00 0. -1.
         21    1    1    2  504  501  0.13757616700E+03  0.38059961547E+02  0.12106144079E+04  0.12190008232E+04  0.00000000000E+00 0. -1.
         21    1    1    2  505  504 -0.18238759523E+03 -0.17284374855E+02  0.33971208643E+02  0.18632774223E+03  0.00000000000E+00 0. -1.
         21    1    1    2  506  502  0.38255742591E+02  0.22461859433E+02  0.13823647078E+03  0.14518043541E+03  0.00000000000E+00 0.  1.
<scales pt_clust_3="43.73161" pt_clust_4="179.67089" pt_clust_5="14000.00000" pt_clust_6="42.97302"></scales>
<clustering>
<clus scale="   43.732">  1  3  2 -1</clus>
<clus scale="   42.973">  1  6  2 -1</clus>
<clus scale="  179.671">  1  4  2 -1</clus>
<clus scale="   43.732">  1  3  2 -1</clus>
</clustering>
</event>
<event>
 6    0  0.5563122E+002  0.1261061E+03  0.7546771E-02  0.1233351E+00
         21   -1    0    0  504  501  0.00000000000E+00  0.00000000000E+00  0.24335005717E+03  0.24335005717E+03  0.00000000000E+00 0.  1.
         21   -1    0    0  506  502 -0.00000000000E+00 -0.00000000000E+00 -0.16658019439E+04  0.16658019439E+04  0.00000000000E+00 0. -1.
         21    1    1    2  503  505  0.82694855639E+02  0.30542593251E+02 -0.85827653198E+02  0.12303526001E+03  0.00000000000E+00 0. -1.
         21    1    1    2  504  502  0.58698533452E+02  0.37918077326E+02 -0.25704260733E+03  0.26637229661E+03  0.00000000000E+00 0. -1.
         21    1    1    2  505  501 -0.10031633829E+03 -0.89888122450E+02  0.19901279670E+03  0.24031091431E+03  0.00000000000E+00 0.  1.
         21    1    1    2  506  503 -0.41077050801E+02  0.21427451873E+02 -0.12785944229E+04  0.12794335302E+04  0.00000000000E+00 0. -1.
<scales pt_clust_3="126.10609" pt_clust_4="60.84890" pt_clust_5="14000.00000" pt_clust_6="46.32990"></scales>
<clustering>
<clus scale="   46.330">  2  6  1 -1</clus>
<clus scale="   60.849">  2  4  1 -1</clus>
<clus scale="  126.106">  2  3  1 -1</clus>
<clus scale="  126.106">  1  3  2 -1</clus>
</clustering>
</event>
<event>
 6    0  0.5563122E+002  0.1081253E+03  0.7546771E-02  0.1264081E+00
         21   -1    0    0  503  501  0.00000000000E+00  0.00000000000E+00  0.20127521690E+03  0.20127521690E+03  0.00000000000E+00 0.  1.
         21   -1    0    0  505  502 -0.00000000000E+00 -0.00000000000E+00 -0.53158086899E+03  0.53158086899E+03  0.00000000000E+00 0. -1.
         21    1    1    2  503  504  0.60103401034E+02 -0.50400353149E+02  0.14607639745E+03  0.16580388508E+03  0.00000000000E+00 0.  1.
         21    1    1    2  504  506 -0.66493071188E+02 -0.77035360829E+02 -0.50764980027E+02  0.11372272654E+03  0.00000000000E+00 0. -1.
         21    1    1    2  505  501  0.12355645436E+02  0.29437832095E+02 -0.24147528874E+02  0.40029377754E+02  0.00000000000E+00 0. -1.
         21    1    1    2  506  502 -0.59659752819E+01  0.97997881883E+02 -0.40146954065E+03  0.41330009652E+03  0.00000000000E+00 0. -1.
<scales pt_clust_3="78.25435" pt_clust_4="108.12532" pt_clust_5="31.92566" pt_clust_6="14000.00000"></scales>
<clustering>
<clus scale="   31.926">  2  5  1 -1</clus>
<clus scale="   78.254">  1  3  2 -1</clus>
<clus scale="  108.125">  1  4  2 -1</clus>
<clus scale="   78.254">  1  3  2 -1</clus>
</clustering>
</event>
<event>
 6    0  0.5563122E+002  0.1070893E+03  0.7546771E-02  0.1266057E+00
         21   -1    0    0  505  501  0.00000000000E+00  0.00000000000E+00  0.82872823527E+03  0.82872823527E+03  0.00000000000E+00 0. -1.
         21   -1    0    0  504  502 -0.00000000000E+00 -0.00000000000E+00 -0.71043450001E+02  0.71043450001E+02  0.00000000000E+00 0. -1.
         21    1    1    2  503  501 -0.10676840244E+03  0.23737218255E+02  0.67784922235E+03  0.68661671661E+03  0.00000000000E+00 0. -1.
         21    1    1    2  504  503  0.96091007616E+02  0.43470685015E+02  0.29429049357E+02  0.10949543893E+03  0.00000000000E+00 0. -1.
         21    1    1    2  505  506  0.35259179599E+02 -0.43668514177E+02  0.36142950725E+02  0.66756735717E+02  0.00000000000E+00 0. -1.
         21    1    1    2  506  502 -0.24581784772E+02 -0.23539389093E+02  0.14263562844E+02  0.36902794020E+02  0.00000000000E+00 0. -1.
<scales pt_clust_3="107.08933" pt_clust_4="14000.00000" pt_clust_5="57.52274" pt_clust_6="34.03479"></scales>
<clustering>
<clus scale="   34.035">  2  6  1 -1</clus>
<clus scale="   57.523">  2  5  1 -1</clus>
<clus scale="  107.089">  1  3  2 -1</clus>
<clus scale="  107.089">  1  3  2 -1</clus>
</clustering>
</event>
<event>
 6    0  0.5563122E+002  0.2340111E+03  0.7546771E-02  0.1123848E+00
         21   -1    0    0  506  501  0.00000000000E+00  0.00000000000E+00  0.77109559266E+03  0.77109559266E+03  0.00000000000E+00 0.  1.
         21   -1    0    0  505  502 -0.00000000000E+00 -0.00000000000E+00 -0.85157786855E+02  0.85157786855E+02  0.00000000000E+00 0.  1.
         21    1    1    2  503  501 -0.37356918113E+02 -0.19371777140E+03  0.18462632096E+03  0.27020176291E+03  0.00000000000E+00 0.  1.
         21    1    1    2  504  502  0.37731201657E+02  0.12528935911E+03  0.39626617137E+03  0.41731037090E+03  0.00000000000E+00 0.  1.
         21    1    1    2  505  503 -0.31899826053E+02 -0.16029016979E+02  0.85959818878E+01  0.36720827770E+02  0.00000000000E+00 0.  1.
         21    1    1    2  506  504  0.31525542509E+02  0.84457429270E+02  0.96449331581E+02  0.13202041794E+03  0.00000000000E+00 0.  1.
<scales pt_clust_3="211.08215" pt_clust_4="81.98431" pt_clust_5="35.70054" pt_clust_6="81.98431"></scales>
<clustering>
<clus scale="   35.701">  2  5  1 -1</clus>
<clus scale="   81.984">  4  6 -1 -1</clus>
<clus scale="  211.082">  2  3  1 -1</clus>
<clus scale="  234.011">  1  3  2 -1</clus>
</clustering>
</event>
<event>
 6    0  0.5563122E+002  0.9438550E+02  0.7546771E-02  0.1292566E+00
         21   -1    0    0  505  501  0.00000000000E+00  0.00000000000E+00  0.32370237916E+03  0.32370237916E+03  0.00000000000E+00 0.  1.
         21   -1    0    0  506  502 -0.00000000000E+00 -0.00000000000E+00 -0.21244912888E+03  0.21244912888E+03  0.00000000000E+00 0. -1.
         21    1    1    2  503  502 -0.75781373432E+02 -0.12075569571E+03 -0.12191394928E+03  0.18758402286E+03  0.00000000000E+00 0. -1.
         21    1    1    2  504  501  0.23135316610E+02  0.29601983337E+02  0.22476636027E+02  0.43780354717E+02  0.00000000000E+00 0.  1.
         21    1    1    2  505  503  0.94399018220E+01  0.59873031624E+02  0.23748264118E+03  0.24509568850E+03  0.00000000000E+00 0.  1.
         21    1    1    2  506  504  0.43206155000E+02  0.31280680749E+02 -0.26792077652E+02  0.59691441957E+02  0.00000000000E+00 0.  1.
<scales pt_clust_3="14000.00000" pt_clust_4="37.57020" pt_clust_5="94.38550" pt_clust_6="55.38765"></scales>
<clustering>
<clus scale="   37.570">  1  4  2 -1</clus>
<clus scale="   55.388">  2  6  1 -1</clus>
<clus scale="   94.386">  1  5  2 -1</clus>
<clus scale="   37.570">  1  3  2 -1</clus>
</clustering>
</event>
<event>
 6    0  0.6298109E+002  0.1717383E+03  0.7546771E-02  0.1176047E+00
         21   -1    0    0  503  501  0.00000000000E+00  0.00000000000E+00  0.55860538122E+03  0.55860538122E+03  0.00000000000E+00 0.  1.
         21   -1    0    0  505  502 -0.00000000000E+00 -0.00000000000E+00 -0.12920846175E+04  0.12920846175E+04  0.00000000000E+00 0.  1.
         21    1    1    2  503  506 -0.15268120120E+02 -0.49967990736E+02  0.18458734962E+03  0.19183952989E+03  0.00000000000E+00 0.  1.
         21    1    1    2  504  501 -0.44567802533E+02 -0.11598577550E+02 -0.15610599880E+02  0.48626195126E+02  0.00000000000E+00 0.  1.
         21    1    1    2  505  504 -0.61248243936E+02  0.16109762084E+03 -0.12326901948E+04  0.12446802429E+04  0.00000000000E+00 0.  1.
         21    1    1    2  506  502  0.12108416659E+03 -0.99531052556E+02  0.33023420875E+03  0.36554403079E+03  0.00000000000E+00 0.  1.
<scales pt_clust_3="62.13304" pt_clust_4="46.05232" pt_clust_5="171.73827" pt_clust_6="14000.00000"></scales>
<clustering>
<clus scale="   46.052">  1  4  2 -1</clus>
<clus scale="   62.133">  1  3  2 -1</clus>
<clus scale="  171.738">  2  5  1 -1</clus>
<clus scale="   46.052">  1  3  2 -1</clus>
</clustering>
</event>
<event>
 6    0  0.5563122E+002  0.9104346E+02  0.7546771E-02  0.1300344E+00
         21   -1    0    0  504  501  0.00000000000E+00  0.00000000000E+00  0.40325995914E+03  0.40325995914E+03  0.00000000000E+00 0.  1.
         21   -1    0    0  506  502 -0.00000000000E+00 -0.00000000000E+00 -0.28665046671E+03  0.28665046671E+03  0.00000000000E+00 0. -1.
         21    1    1    2  503  502 -0.29991080109E+02 -0.90837099220E+02 -0.24300008328E+03  0.26115107496E+03  0.00000000000E+00 0. -1.
         21    1    1    2  504  503  0.53895387982E+02  0.32868136159E+02  0.10245775947E+03  0.12034375636E+03  0.00000000000E+00 0.  1.
         21    1    1    2  505  501 -0.49423436201E+02 -0.36070096407E+01  0.23190400337E+03  0.23713952295E+03  0.00000000000E+00 0.  1.
         21    1    1    2  506  505  0.25519128327E+02  0.61575972702E+02  0.25247812867E+02  0.71276071576E+02  0.00000000000E+00 0.  1.
<scales pt_clust_3="14000.00000" pt_clust_4="37.17111" pt_clust_5="49.55488" pt_clust_6="91.04346"></scales>
<clustering>
<clus scale="   49.555">  1  5  2 -1</clus>
<clus scale="   37.171">  1  4  2 -1</clus>
<clus scale="   91.043">  1  6  2 -1</clus>
<clus scale="   49.555">  1  3  2 -1</clus>
</clustering>
</event>
<event>
 6    0  0.5563122E+002  0.3221984E+03  0.7546771E-02  0.1074642E+00
         21   -1    0    0  505  501  0.00000000000E+00  0.00000000000E+00  0.96469567549E+03  0.96469567549E+03  0.00000000000E+00 0. -1.
         21   -1    0    0  504  502 -0.00000000000E+00 -0.00000000000E+00 -0.12433492454E+03  0.12433492454E+03  0.00000000000E+00 0. -1.
         21    1    1    2  503  501  0.11233768185E+03 -0.77425408199E+01  0.23767000583E+03  0.26299569079E+03  0.00000000000E+00 0. -1.
         21    1    1    2  504  506 -0.32753542757E+03  0.33447881045E+02  0.31614666296E+03  0.45645035827E+03  0.00000000000E+00 0. -1.
         21    1    1    2  505  502  0.25910531104E+02  0.23988043232E+02  0.26600529741E+02  0.44208257404E+02  0.00000000000E+00 0. -1.
         21    1    1    2  506  503  0.18928721461E+03 -0.49693383458E+02  0.25994355241E+03  0.32537629356E+03  0.00000000000E+00 0. -1.
<scales pt_clust_3="49.55064" pt_clust_4="315.47734" pt_clust_5="35.30980" pt_clust_6="49.55064"></scales>
<clustering>
<clus scale="   35.310">  2  5  1 -1</clus>
<clus scale="   49.551">  3  6 -1 -1</clus>
<clus scale="  315.477">  2  4  1 -1</clus>
<clus scale="  322.198">  1  3  2 -1</clus>
</clustering>
</event>
<event>
 6    0  0.5563122E+002  0.7626500E+02  0.7546771E-02  0.1339998E+00
         21   -1    0    0  505  501  0.00000000000E+00  0.00000000000E+00  0.11922511009E+04  0.11922511009E+04  0.00000000000E+00 0.  1.
         21   -1    0    0  504  502 -0.00000000000E+00 -0.00000000000E+00 -0.25789825675E+03  0.25789825675E+03  0.00000000000E+00 0.  1.
         21    1    1    2  503  506 -0.80774390554E+02  0.15477272347E+02  0.16075752626E+03  0.18057416864E+03  0.00000000000E+00 0. -1.
         21    1    1    2  504  503 -0.23332597238E+02  0.30957368304E+02  0.22145179399E+02  0.44645018947E+02  0.00000000000E+00 0.  1.
         21    1    1    2  505  502  0.77671157935E+02  0.25341117391E+02 -0.22815565880E+03  0.24234270290E+03  0.00000000000E+00 0.  1.
         21    1    1    2  506  501  0.26435829858E+02 -0.71775758042E+02  0.97960579731E+03  0.98258746719E+03  0.00000000000E+00 0.  1.
<scales pt_clust_3="73.32513" pt_clust_4="38.76556" pt_clust_5="14000.00000" pt_clust_6="76.26500"></scales>
<clustering>
<clus scale="   38.766">  2  4  1 -1</clus>
<clus scale="   76.265">  1  6  2 -1</clus>
<clus scale="   73.325">  1  3  2 -1</clus>
<clus scale="   76.265">  1  3  2 -1</clus>
</clustering>
</event>
<event>
 6    0  0.5563122E+002  0.1847982E+03  0.7546771E-02  0.1163238E+00
         21   -1    0    0  504  501  0.00000000000E+00  0.00000000000E+00  0.49184927676E+03  0.49184927676E+03  0.00000000000E+00 0.  1.
         21   -1    0    0  503  502 -0.00000000000E+00 -0.00000000000E+00 -0.30389269671E+03  0.30389269671E+03  0.00000000000E+00 0.  1.
         21    1    1    2  503  505 -0.84184753738E+02 -0.17072753449E+03 -0.11110471646E+03  0.22040694593E+03  0.00000000000E+00 0.  1.
         21    1    1    2  504  502 -0.73182004636E+02  0.52283576480E+02  0.32212023205E+03  0.33444076018E+03  0.00000000000E+00 0.  1.
         21    1    1    2  505  506  0.12951459159E+03  0.12993270970E+03 -0.60188850356E+02  0.19307831621E+03  0.00000000000E+00 0.  1.
         21    1    1    2  506  501  0.27852166783E+02 -0.11488751687E+02  0.37129914821E+02  0.47815951151E+02  0.00000000000E+00 0.  1.
<scales pt_clust_3="14000.00000" pt_clust_4="68.68747" pt_clust_5="184.79820" pt_clust_6="30.12863"></scales>
<clustering>
<clus scale="   30.129">  1  6  2 -1</clus>
<clus scale="   68.687">  1  4  2 -1</clus>
<clus scale="  184.798">  1  5  2 -1</clus>
<clus scale="   30.129">  1  3  2 -1</clus>
</clustering>
</event>
<event>
 6    0  0.5563122E+002  0.1907140E+03  0.7546771E-02  0.1157819E+00
         21   -1    0    0  505  501  0.00000000000E+00  0.00000000000E+00  0.17505912718E+03  0.17505912718E+03  0.00000000000E+00 0. -1.
         21   -1    0    0  504  502 -0.00000000000E+00 -0.00000000000E+00 -0.41928408418E+03  0.41928408418E+03  0.00000000000E+00 0. -1.
         21    1    1    2  503  501 -0.43965725557E+02 -0.87316213414E+01 -0.26549452085E+02  0.52097021422E+02  0.00000000000E+00 0. -1.
         21    1    1    2  504  503 -0.15319782097E+03  0.19970138836E+02 -0.24221510911E+03  0.28729172956E+03  0.00000000000E+00 0. -1.
         21    1    1    2  505  506  0.17658667454E+03  0.11911483640E+02  0.77807861013E+02  0.19333597777E+03  0.00000000000E+00 0. -1.
         21    1    1    2  506  502  0.20576871988E+02 -0.23150001134E+02 -0.53268256827E+02  0.61618482607E+02  0.00000000000E+00 0.  1.
<scales pt_clust_3="35.15204" pt_clust_4="35.15204" pt_clust_5="180.05909" pt_clust_6="30.97306"></scales>
<clustering>
<clus scale="   30.973">  2  6  1 -1</clus>
<clus scale="   35.152">  3  4 -1 -1</clus>
<clus scale="  180.059">  1  5  2 -1</clus>
<clus scale="  180.059">  1  3  2 -1</clus>
</clustering>
</event>
<event>
 6    0  0.5563122E+002  0.9051420E+02  0.7546771E-02  0.1301611E+00
         21   -1    0    0  506  501  0.00000000000E+00  0.00000000000E+00  0.94320820913E+02  0.94320820913E+02  0.00000000000E+00 0. -1.
         21   -1    0    0  503  502 -0.00000000000E+00 -0.00000000000E+00 -0.13082747432E+04  0.13082747432E+04  0.00000000000E+00 0.  1.
         21    1    1    2  503  505  0.19392969179E+02 -0.69124962243E+02 -0.98833559912E+02  0.12215735845E+03  0.00000000000E+00 0.  1.
         21    1    1    2  504  502  0.42622050534E+02  0.86618887977E+02 -0.11654653456E+04  0.11694566870E+04  0.00000000000E+00 0.  1.
         21    1    1    2  505  501 -0.61404344942E+01 -0.30357718169E+02  0.43266708729E+02  0.53209999741E+02  0.00000000000E+00 0. -1.
         21    1    1    2  506  504 -0.55874585218E+02  0.12863792435E+02  0.70782745025E+01  0.57771518926E+02  0.00000000000E+00 0. -1.
<scales pt_clust_3="14000.00000" pt_clust_4="90.51420" pt_clust_5="30.97250" pt_clust_6="60.79188"></scales>
<clustering>
<clus scale="   30.973">  1  5  2 -1</clus>
<clus scale="   60.792">  1  6  2 -1</clus>
<clus scale="   90.514">  2  4  1 -1</clus>
<clus scale="   30.973">  1  3  2 -1</clus>
</clustering>
</event>
<event>
 6    0  0.5563122E+002  0.9088412E+02  0.7546771E-02  0.1300725E+00
         21   -1    0    0  506  501  0.00000000000E+00  0.00000000000E+00  0.40010242857E+03  0.40010242857E+03  0.00000000000E+00 0. -1.
         21   -1    0    0  504  502 -0.00000000000E+00 -0.00000000000E+00 -0.21640516917E+03  0.21640516917E+03  0.00000000000E+00 0. -1.
         21    1    1    2  503  505 -0.77786375167E+02 -0.24570324700E+02 -0.50605301259E+02  0.95996445419E+02  0.00000000000E+00 0. -1.
         21    1    1    2  504  501  0.29622640740E+02  0.71475400381E+01 -0.59166479281E+02  0.66552689228E+02  0.00000000000E+00 0.  1.
         21    1    1    2  505  502 -0.35604243046E+02  0.58817875574E+02 -0.58204806196E+02  0.90083317403E+02  0.00000000000E+00 0. -1.
         21    1    1    2  506  503  0.83767977474E+02 -0.41395090913E+02  0.35167384613E+03  0.36387514569E+03  0.00000000000E+00 0. -1.
<scales pt_clust_3="90.88412" pt_clust_4="30.47274" pt_clust_5="65.81152" pt_clust_6="14000.00000"></scales>
<clustering>
<clus scale="   30.473">  2  4  1 -1</clus>
<clus scale="   65.812">  2  5  1 -1</clus>
<clus scale="   90.884">  2  3  1 -1</clus>
<clus scale="   90.884">  1  3  2 -1</clus>
</clustering>
</event>
<event>
 6    0  0.5563122E+002  0.1228421E+03  0.7546771E-02  0.1238481E+00
         21   -1    0    0  505  501  0.00000000000E+00  0.00000000000E+00  0.43653968237E+03  0.43653968237E+03  0.00000000000E+00 0.  1.
         21   -1    0    0  504  502 -0.00000000000E+00 -0.00000000000E+00 -0.14947052097E+03  0.14947052097E+03  0.00000000000E+00 0.  1.
         21    1    1    2  503  501  0.49633406533E+02  0.67159324943E+02  0.26001407561E+03  0.27309553180E+03  0.00000000000E+00 0.  1.
         21    1    1    2  504  506  0.32774450834E+02 -0.50703702428E+02  0.38380509163E+02  0.71540852322E+02  0.00000000000E+00 0.  1.
         21    1    1    2  505  502 -0.12347257697E+03  0.20327989718E+02 -0.83586365294E+02  0.15048383599E+03  0.00000000000E+00 0.  1.
         21    1    1    2  506  503  0.41064719606E+02 -0.36783612232E+02  0.72260941921E+02  0.90889983235E+02  0.00000000000E+00 0.  1.
<scales pt_clust_3="83.50958" pt_clust_4="30.75729" pt_clust_5="118.55040" pt_clust_6="30.75729"></scales>
<clustering>
<clus scale="   30.757">  4  6 -1 -1</clus>
<clus scale="   83.510">  1  3  2 -1</clus>
<clus scale="  118.550">  2  5  1 -1</clus>
<clus scale="   83.510">  1  3  2 -1</clus>
</clustering>
</event>
<event>
 6    0  0.5563122E+002  0.9665986E+02  0.7546771E-02  0.1287481E+00
         21   -1    0    0  506  501  0.00000000000E+00  0.00000000000E+00  0.76953141874E+02  0.76953141874E+02  0.00000000000E+00 0. -1.
         21   -1    0    0  504  502 -0.00000000000E+00 -0.00000000000E+00 -0.16864963910E+04  0.16864963910E+04  0.00000000000E+00 0. -1.
         21    1    1    2  503  505 -0.63764024217E+02  0.12816131084E+02 -0.54801855486E+03  0.55186451278E+03  0.00000000000E+00 0.  1.
         21    1    1    2  504  503  0.28276481762E+02  0.44040222465E+02 -0.89693233268E+03  0.89845796230E+03  0.00000000000E+00 0. -1.
         21    1    1    2  505  501 -0.42089301116E+02 -0.11220186608E+03 -0.18035343048E+03  0.21653666642E+03  0.00000000000E+00 0. -1.
         21    1    1    2  506  502  0.77576843571E+02  0.55345512526E+02  0.15761068877E+02  0.96590391382E+02  0.00000000000E+00 0. -1.
<scales pt_clust_3="61.92277" pt_clust_4="52.33642" pt_clust_5="96.65986" pt_clust_6="14000.00000"></scales>
<clustering>
<clus scale="   52.336">  2  4  1 -1</clus>
<clus scale="   61.923">  2  3  1 -1</clus>
<clus scale="   96.660">  2  5  1 -1</clus>
<clus scale="   96.660">  1  3  2 -1</clus>
</clustering>
</event>
<event>
 6    0  0.5563122E+002  0.2080877E+03  0.7546771E-02  0.1143089E+00
         21   -1    0    0  503  501  0.00000000000E+00  0.00000000000E+00  0.28819075390E+03  0.28819075390E+03  0.00000000000E+00 0. -1.
         21   -1    0    0  501  502 -0.00000000000E+00 -0.00000000000E+00 -0.20796348082E+03  0.20796348082E+03  0.00000000000E+00 0.  1.
         21    1    1    2  503  505  0.72090047970E+02  0.75604008753E+02  0.10116386011E+03  0.14542031408E+03  0.00000000000E+00 0. -1.
         21    1    1    2  504  502 -0.82170216026E+02 -0.50959762262E+02 -0.98792515683E+02  0.13823459381E+03  0.00000000000E+00 0.  1.
         21    1    1    2  505  506  0.88501860933E+02  0.23781566679E+02  0.77983068467E+02  0.12033079934E+03  0.00000000000E+00 0. -1.
         21    1    1    2  506  504 -0.78421692876E+02 -0.48425813171E+02 -0.12713981655E+00  0.92168527488E+02  0.00000000000E+00 0.  1.
<scales pt_clust_3="196.29068" pt_clust_4="85.30143" pt_clust_5="50.11344" pt_clust_6="85.30143"></scales>
<clustering>
<clus scale="   50.113">  3  5 -1 -1</clus>
<clus scale="   85.301">  4  6 -1 -1</clus>
<clus scale="  196.291">  1  3  2 -1</clus>
<clus scale="  196.291">  1  3  2 -1</clus>
</clustering>
</event>
<event>
 6    0  0.5563122E+002  0.7658147E+02  0.7546771E-02  0.1339043E+00
         21   -1    0    0  505  501  0.00000000000E+00  0.00000000000E+00  0.55913033352E+03  0.55913033352E+03  0.00000000000E+00 0.  1.
         21   -1    0    0  504  502 -0.00000000000E+00 -0.00000000000E+00 -0.91382492702E+03  0.91382492702E+03  0.00000000000E+00 0.  1.
         21    1    1    2  503  502 -0.38479439038E+02  0.28590187116E+02  0.50467694153E+02  0.69606423419E+02  0.00000000000E+00 0.  1.
         21    1    1    2  504  506 -0.92284957705E+01  0.38039729414E+02 -0.87242053772E+03  0.87329821985E+03  0.00000000000E+00 0.  1.
         21    1    1    2  505  503 -0.63084348143E+02 -0.41639492107E+02  0.37831595755E+03  0.38579326850E+03  0.00000000000E+00 0.  1.
         21    1    1    2  506  501  0.11079228295E+03 -0.24990424422E+02  0.88942292525E+02  0.14425734877E+03  0.00000000000E+00 0.  1.
<scales pt_clust_3="55.27816" pt_clust_4="39.14315" pt_clust_5="76.58147" pt_clust_6="14000.00000"></scales>
<clustering>
<clus scale="   39.143">  2  4  1 -1</clus>
<clus scale="   55.278">  2  3  1 -1</clus>
<clus scale="   76.581">  1  5  2 -1</clus>
<clus scale="   76.581">  1  3  2 -1</clus>
</clustering>
</event>
<event>
 6    0  0.5563122E+002  0.1369068E+03  0.7546771E-02  0.1217553E+00
         21   -1    0    0  504  501  0.00000000000E+00  0.00000000000E+00  0.40781229228E+03  0.40781229228E+03  0.00000000000E+00 0.  1.
         21   -1    0    0  506  502 -0.00000000000E+00 -0.00000000000E+00 -0.43268235482E+03  0.43268235482E+03  0.00000000000E+00 0.  1.
         21    1    1    2  503  502 -0.54455547095E+02  0.12737848260E+02 -0.41580180376E+02  0.69689100925E+02  0.00000000000E+00 0.  1.
         21    1    1    2  504  503 -0.54688713983E+01  0.12610276280E+03  0.36573000680E+03  0.38689824659E+03  0.00000000000E+00 0.  1.
         21    1    1    2  505  501 -0.52993658358E+01 -0.44039240038E+02 -0.84271239662E+02  0.95232241261E+02  0.00000000000E+00 0.  1.
         21    1    1    2  506  505  0.65223784329E+02 -0.94801371021E+02 -0.26474864930E+03  0.28867505832E+03  0.00000000000E+00 0.  1.
<scales pt_clust_3="55.92548" pt_clust_4="126.65378" pt_clust_5="32.27470" pt_clust_6="32.27470"></scales>
<clustering>
<clus scale="   32.275">  5  6 -1 -1</clus>
<clus scale="   55.925">  2  3  1 -1</clus>
<clus scale="  126.654">  1  4  2 -1</clus>
<clus scale="  126.654">  1  3  2 -1</clus>
</clustering>
</event>
<event>
 6    0  0.5563122E+002  0.1447245E+03  0.7546771E-02  0.1207109E+00
         21   -1    0    0  506  501  0.00000000000E+00  0.00000000000E+00  0.10653746613E+03  0.10653746613E+03  0.00000000000E+00 0. -1.
         21   -1    0    0  505  502 -0.00000000000E+00 -0.00000000000E+00 -0.36502594197E+03  0.36502594197E+03  0.00000000000E+00 0. -1.
         21    1    1    2  503  501 -0.12539697881E+03  0.28000067100E+02 -0.96652237278E+02  0.16077954168E+03  0.00000000000E+00 0.  1.
         21    1    1    2  504  502  0.66015244127E+02 -0.52735740562E+02  0.29058930753E+01  0.84542977262E+02  0.00000000000E+00 0. -1.
         21    1    1    2  505  503 -0.59264168922E+01  0.46935593302E+02 -0.14783617658E+03  0.15522115655E+03  0.00000000000E+00 0. -1.
         21    1    1    2  506  504  0.65308151574E+02 -0.22199919840E+02 -0.16905955057E+02  0.71019732605E+02  0.00000000000E+00 0. -1.
<scales pt_clust_3="140.72180" pt_clust_4="30.54122" pt_clust_5="47.30827" pt_clust_6="30.54122"></scales>
<clustering>
<clus scale="   30.541">  4  6 -1 -1</clus>
<clus scale="   47.308">  2  5  1 -1</clus>
<clus scale="  140.722">  2  3  1 -1</clus>
<clus scale="  144.725">  1  3  2 -1</clus>
</clustering>
</event>
<event>
 6    0  0.5563122E+002  0.1318709E+03  0.7546771E-02  0.1224706E+00
         21   -1    0    0  506  501  0.00000000000E+00  0.00000000000E+00  0.50925672274E+03  0.50925672274E+03  0.00000000000E+00 0. -1.
         21   -1    0    0  503  502 -0.00000000000E+00 -0.00000000000E+00 -0.97738886243E+03  0.97738886243E+03  0.00000000000E+00 0.  1.
         21    1    1    2  503  504  0.97990678472E+02  0.16732489970E+03 -0.82253057831E+02  0.21063086348E+03  0.00000000000E+00 0.  1.
         21    1    1    2  504  501 -0.45094176580E+02 -0.46601282468E+02  0.41917952819E+03  0.42416581798E+03  0.00000000000E+00 0. -1.
         21    1    1    2  505  502 -0.81280046158E+02 -0.97875780885E+02 -0.80542386462E+03  0.81541015207E+03  0.00000000000E+00 0.  1.
         21    1    1    2  506  505  0.28383544266E+02 -0.22847836343E+02  0.36525457551E+00  0.36438751647E+02  0.00000000000E+00 0. -1.
<scales pt_clust_3="131.87093" pt_clust_4="69.39175" pt_clust_5="14000.00000" pt_clust_6="36.43692"></scales>
<clustering>
<clus scale="   36.437">  1  6  2 -1</clus>
<clus scale="   69.392">  1  4  2 -1</clus>
<clus scale="  131.871">  1  3  2 -1</clus>
<clus scale="   36.437">  1  3  2 -1</clus>
</clustering>
</event>
<event>
 6    0  0.5563122E+002  0.7364330E+02  0.7546771E-02  0.1348125E+00
         21   -1    0    0  503  501  0.00000000000E+00  0.00000000000E+00  0.21369532662E+04  0.21369532662E+04  0.00000000000E+00 0. -1.
         21   -1    0    0  504  502 -0.00000000000E+00 -0.00000000000E+00 -0.19142309950E+02  0.19142309950E+02  0.00000000000E+00 0.  1.
         21    1    1    2  503  502  0.32123669109E+02 -0.10099588927E+03  0.30940723622E+03  0.32705494583E+03  0.00000000000E+00 0.  1.
         21    1    1    2  504  505 -0.30545150369E+02 -0.17638921195E+02  0.37145505397E+02  0.51224274746E+02  0.00000000000E+00 0.  1.
         21    1    1    2  505  506  0.11479078814E+02  0.49165157548E+02  0.25716735164E+03  0.26207637955E+03  0.00000000000E+00 0. -1.
         21    1    1    2  506  501 -0.13057597554E+02  0.69469652913E+02  0.15140908630E+04  0.15157399761E+04  0.00000000000E+00 0. -1.
<scales pt_clust_3="14000.00000" pt_clust_4="35.27234" pt_clust_5="45.89318" pt_clust_6="73.64330"></scales>
<clustering>
<clus scale="   35.272">  2  4  1 -1</clus>
<clus scale="   45.893">  2  5  1 -1</clus>
<clus scale="   73.643">  1  6  2 -1</clus>
<clus scale="   73.643">  1  3  2 -1</clus>
</clustering>
</event>
<event>
 6    0  0.5563122E+002  0.7548808E+02  0.7546771E-02  0.1342366E+00
         21   -1    0    0  506  501  0.00000000000E+00  0.00000000000E+00  0.19959682715E+04  0.19959682715E+04  0.00000000000E+00 0. -1.
         21   -1    0    0  504  502 -0.00000000000E+00 -0.00000000000E+00 -0.12970985646E+03  0.12970985646E+03  0.00000000000E+00 0.  1.
         21    1    1    2  503  505 -0.59275634933E+01  0.78142751526E+02  0.52524677491E+02  0.94341228371E+02  0.00000000000E+00 0. -1.
         21    1    1    2  504  503 -0.60819379075E+02 -0.49610205126E+02 -0.28084761611E+02  0.83360201286E+02  0.00000000000E+00 0.  1.
         21    1    1    2  505  501 -0.69099599424E+01 -0.47572545226E+02  0.18671678788E+04  0.18677865998E+04  0.00000000000E+00 0. -1.
         21    1    1    2  506  502  0.73656902511E+02  0.19039998827E+02 -0.25349379705E+02  0.80190098480E+02  0.00000000000E+00 0. -1.
<scales pt_clust_3="51.90329" pt_clust_4="14000.00000" pt_clust_5="48.07177" pt_clust_6="75.48808"></scales>
<clustering>
<clus scale="   48.072">  1  5  2 -1</clus>
<clus scale="   51.903">  1  3  2 -1</clus>
<clus scale="   75.488">  2  6  1 -1</clus>
<clus scale="   48.072">  1  3  2 -1</clus>
</clustering>
</event>
<event>
 6    0  0.5563122E+002  0.1624755E+03  0.7546771E-02  0.1185930E+00
         21   -1    0    0  505  501  0.00000000000E+00  0.00000000000E+00  0.24205450736E+03  0.24205450736E+03  0.00000000000E+00 0. -1.
         21   -1    0    0  506  502 -0.00000000000E+00 -0.00000000000E+00 -0.62044058709E+03  0.62044058709E+03  0.00000000000E+00 0.  1.
         21    1    1    2  503  502  0.23808759300E+02  0.32654961916E+02 -0.26874885993E+03  0.27177040544E+03  0.00000000000E+00 0.  1.
         21    1    1    2  504  501 -0.31933657349E+02  0.13856158647E+02  0.16130038843E+03  0.16501383854E+03  0.00000000000E+00 0. -1.
         21    1    1    2  505  503  0.59120748495E+02  0.12991590002E+03 -0.14184152348E+03  0.20122728881E+03  0.00000000000E+00 0.  1.
         21    1    1    2  506  504 -0.50995850446E+02 -0.17642702059E+03 -0.12909608475E+03  0.22448356166E+03  0.00000000000E+00 0.  1.
<scales pt_clust_3="40.27231" pt_clust_4="34.81022" pt_clust_5="162.47554" pt_clust_6="14000.00000"></scales>
<clustering>
<clus scale="   34.810">  1  4  2 -1</clus>
<clus scale="   40.272">  2  3  1 -1</clus>
<clus scale="  162.476">  1  5  2 -1</clus>
<clus scale="   34.810">  1  3  2 -1</clus>
</clustering>
</event>
<event>
 6    0  0.5563122E+002  0.9643451E+02  0.7546771E-02  0.1287978E+00
         21   -1    0    0  503  501  0.00000000000E+00  0.00000000000E+00  0.11766368360E+03  0.11766368360E+03  0.00000000000E+00 0.  1.
         21   -1    0    0  505  502 -0.00000000000E+00 -0.00000000000E+00 -0.35117942233E+04  0.35117942233E+04  0.00000000000E+00 0.  1.
         21    1    1    2  503  506  0.99833255609E+01 -0.52042803990E+02  0.80489430900E+01  0.53599493666E+02  0.00000000000E+00 0.  1.
         21    1    1    2  504  501  0.88085499085E+02 -0.15549413029E+02  0.44426857184E+02  0.99872844327E+02  0.00000000000E+00 0.  1.
         21    1    1    2  505  504 -0.18560044522E+02  0.63904388444E+02 -0.33506665168E+04  0.33513272525E+04  0.00000000000E+00 0.  1.
         21    1    1    2  506  502 -0.79508780124E+02  0.36878285750E+01 -0.95939823165E+02  0.12465831647E+03  0.00000000000E+00 0.  1.
<scales pt_clust_3="52.99170" pt_clust_4="96.43451" pt_clust_5="66.34435" pt_clust_6="14000.00000"></scales>
<clustering>
<clus scale="   52.992">  1  3  2 -1</clus>
<clus scale="   66.344">  2  5  1 -1</clus>
<clus scale="   96.435">  1  4  2 -1</clus>
<clus scale="   52.992">  1  3  2 -1</clus>
</clustering>
</event>
<event>
 6    0  0.5563122E+002  0.6922968E+02  0.7546771E-02  0.1362732E+00
         21   -1    0    0  503  501  0.00000000000E+00  0.00000000000E+00  0.60639431881E+02  0.60639431881E+02  0.00000000000E+00 0.  1.
         21   -1    0    0  505  502 -0.00000000000E+00 -0.00000000000E+00 -0.59527094795E+03  0.59527094795E+03  0.00000000000E+00 0.  1.
         21    1    1    2  503  504 -0.72020203671E+02 -0.80697837999E+01 -0.37925802381E+01  0.72570068294E+02  0.00000000000E+00 0.  1.
         21    1    1    2  504  502  0.11554970385E+02  0.51709618554E+02 -0.36199353421E+03  0.36585068102E+03  0.00000000000E+00 0.  1.
         21    1    1    2  505  506  0.47181879279E+01 -0.67891729789E+02 -0.51548883374E+02  0.85374678027E+02  0.00000000000E+00 0.  1.
         21    1    1    2  506  501  0.55747045357E+02  0.24251895035E+02 -0.11729651824E+03  0.13211495249E+03  0.00000000000E+00 0.  1.
<scales pt_clust_3="14000.00000" pt_clust_4="52.98492" pt_clust_5="53.21546" pt_clust_6="69.22968"></scales>
<clustering>
<clus scale="   52.985">  2  4  1 -1</clus>
<clus scale="   53.215">  2  5  1 -1</clus>
<clus scale="   69.230">  2  6  1 -1</clus>
<clus scale="   69.230">  1  3  2 -1</clus>
</clustering>
</event>
<event>
 6    0  0.5563122E+002  0.7893562E+02  0.7546771E-02  0.1332099E+00
         21   -1    0    0  504  501  0.00000000000E+00  0.00000000000E+00  0.15777467295E+04  0.15777467295E+04  0.00000000000E+00 0.  1.
         21   -1    0    0  506  502 -0.00000000000E+00 -0.00000000000E+00 -0.33188486875E+03  0.33188486875E+03  0.00000000000E+00 0.  1.
         21    1    1    2  503  502  0.20954034016E+01  0.42029339447E+02 -0.32060695630E+03  0.32335688723E+03  0.00000000000E+00 0.  1.
         21    1    1    2  504  505  0.62265863211E+02 -0.11274144651E+03  0.98698343064E+03  0.99535117614E+03  0.00000000000E+00 0.  1.
         21    1    1    2  505  503 -0.10418120382E+02  0.43770162663E+02  0.13344170531E+03  0.14082277191E+03  0.00000000000E+00 0.  1.
         21    1    1    2  506  501 -0.53943146231E+02  0.26941944401E+02  0.44604368109E+03  0.45010076298E+03  0.00000000000E+00 0.  1.
<scales pt_clust_3="42.08154" pt_clust_4="14000.00000" pt_clust_5="60.20952" pt_clust_6="78.93562"></scales>
<clustering>
<clus scale="   42.082">  2  3  1 -1</clus>
<clus scale="   60.210">  2  5  1 -1</clus>
<clus scale="   78.936">  1  6  2 -1</clus>
<clus scale="   78.936">  1  3  2 -1</clus>
</clustering>
</event>
<event>
 6    0  0.5563122E+002  0.1046456E+03  0.7546771E-02  0.1270819E+00
         21   -1    0    0  504  501  0.00000000000E+00  0.00000000000E+00  0.13996104614E+03  0.13996104614E+03  0.00000000000E+00 0.  1.
         21   -1    0    0  506  502 -0.00000000000E+00 -0.00000000000E+00 -0.26810357258E+04  0.26810357258E+04  0.00000000000E+00 0. -1.
         21    1    1    2  503  501  0.34599858088E+02 -0.26593172405E+02 -0.30820568417E+02  0.53425222843E+02  0.00000000000E+00 0.  1.
         21    1    1    2  504  505 -0.66538688137E+02 -0.73294000736E+02  0.10328198195E+03  0.14306143910E+03  0.00000000000E+00 0.  1.
         21    1    1    2  505  502  0.31653799774E+02 -0.26152479528E+02 -0.10401596561E+03  0.11182681400E+03  0.00000000000E+00 0.  1.
         21    1    1    2  506  503  0.28503027514E+00  0.12603965267E+03 -0.25095201276E+04  0.25126832960E+04  0.00000000000E+00 0. -1.
<scales pt_clust_3="44.31058" pt_clust_4="104.64565" pt_clust_5="41.05990" pt_clust_6="14000.00000"></scales>
<clustering>
<clus scale="   41.060">  2  5  1 -1</clus>
<clus scale="   44.311">  1  3  2 -1</clus>
<clus scale="  104.646">  1  4  2 -1</clus>
<clus scale="   44.311">  1  3  2 -1</clus>
</clustering>
</event>
<event>
 6    0  0.5563122E+002  0.6499361E+02  0.7546771E-02  0.1377996E+00
         21   -1    0    0  506  501  0.00000000000E+00  0.00000000000E+00  0.27205826570E+04  0.27205826570E+04  0.00000000000E+00 0. -1.
         21   -1    0    0  504  502 -0.00000000000E+00 -0.00000000000E+00 -0.44507382427E+02  0.44507382427E+02  0.00000000000E+00 0. -1.
         21    1    1    2  503  501  0.63330621597E+02 -0.37727772944E+01  0.22534977547E+04  0.22543906342E+04  0.00000000000E+00 0. -1.
         21    1    1    2  504  505 -0.22715155878E+02 -0.40299233738E+02 -0.63907845292E+01  0.46699557528E+02  0.00000000000E+00 0. -1.
         21    1    1    2  505  503  0.58233589793E+02 -0.16606726288E+02  0.13403948343E+03  0.14708336907E+03  0.00000000000E+00 0. -1.
         21    1    1    2  506  502 -0.98849055512E+02  0.60678737320E+02  0.29492882097E+03  0.31691647855E+03  0.00000000000E+00 0.  1.
<scales pt_clust_3="14000.00000" pt_clust_4="46.26020" pt_clust_5="58.94462" pt_clust_6="64.99361"></scales>
<clustering>
<clus scale="   46.260">  2  4  1 -1</clus>
<clus scale="   58.945">  2  5  1 -1</clus>
<clus scale="   64.994">  2  6  1 -1</clus>
<clus scale="   64.994">  1  3  2 -1</clus>
</clustering>
</event>
<event>
 6    0  0.5563122E+002  0.1339259E+03  0.7546771E-02  0.1221744E+00
         21   -1    0    0  503  501  0.00000000000E+00  0.00000000000E+00  0.30272410257E+03  0.30272410257E+03  0.00000000000E+00 0. -1.
         21   -1    0    0  504  502 -0.00000000000E+00 -0.00000000000E+00 -0.10284426826E+04  0.10284426826E+04  0.00000000000E+00 0.  1.
         21    1    1    2  503  505 -0.11673851692E+03 -0.92612992740E+02  0.18294589796E+03  0.23595391358E+03  0.00000000000E+00 0. -1.
         21    1    1    2  504  506  0.79405777894E+02 -0.38304730755E+01 -0.13326200210E+03  0.15517316550E+03  0.00000000000E+00 0. -1.
         21    1    1    2  505  502  0.19081321965E+02 -0.32250510271E+02 -0.80570219306E+03  0.80657313132E+03  0.00000000000E+00 0.  1.
         21    1    1    2  506  501  0.18251417056E+02  0.12869397609E+03  0.30299717225E+02  0.13346657473E+03  0.00000000000E+00 0. -1.
<scales pt_clust_3="14000.00000" pt_clust_4="95.06363" pt_clust_5="37.47255" pt_clust_6="133.92589"></scales>
<clustering>
<clus scale="   37.473">  2  5  1 -1</clus>
<clus scale="   95.064">  2  4  1 -1</clus>
<clus scale="  133.926">  2  6  1 -1</clus>
<clus scale="  133.926">  1  3  2 -1</clus>
</clustering>
</event>
<event>
 6    0  0.5563122E+002  0.1166714E+03  0.7546771E-02  0.1248691E+00
         21   -1    0    0  505  501  0.00000000000E+00  0.00000000000E+00  0.26973487622E+03  0.26973487622E+03  0.00000000000E+00 0.  1.
         21   -1    0    0  503  502 -0.00000000000E+00 -0.00000000000E+00 -0.12348200774E+03  0.12348200774E+03  0.00000000000E+00 0. -1.
         21    1    1    2  503  501  0.13430279606E+02 -0.28714556352E+02  0.36569313086E+02  0.48396413260E+02  0.00000000000E+00 0.  1.
         21    1    1    2  504  506  0.42580974570E+02  0.87497045540E+02 -0.54948815297E+02  0.11175081510E+03  0.00000000000E+00 0. -1.
         21    1    1    2  505  504 -0.90796722457E+02 -0.73005437723E+02  0.15566067562E+03  0.19443272533E+03  0.00000000000E+00 0.  1.
         21    1    1    2  506  502  0.34785468280E+02  0.14222948536E+02  0.89716950753E+01  0.38636930274E+02  0.00000000000E+00 0. -1.
<scales pt_clust_3="31.70013" pt_clust_4="14000.00000" pt_clust_5="116.67143" pt_clust_6="37.89010"></scales>
<clustering>
<clus scale="   31.700">  1  3  2 -1</clus>
<clus scale="   37.890">  2  6  1 -1</clus>
<clus scale="  116.671">  1  5  2 -1</clus>
<clus scale="   31.700">  1  3  2 -1</clus>
</clustering>
</event>
<event>
 6    0  0.5563122E+002  0.1507786E+03  0.7546771E-02  0.1199520E+00
         21   -1    0    0  505  501  0.00000000000E+00  0.00000000000E+00  0.23464247242E+03  0.23464247242E+03  0.00000000000E+00 0.  1.
         21   -1    0    0  504  502 -0.00000000000E+00 -0.00000000000E+00 -0.16079080501E+03  0.16079080501E+03  0.00000000000E+00 0.  1.
         21    1    1    2  503  501 -0.12913352187E+03 -0.78930204674E+02  0.79969945969E+02  0.17117428527E+03  0.00000000000E+00 0.  1.
         21    1    1    2  504  503 -0.29258548324E+02  0.78355782226E+01 -0.41829810871E+01  0.30577054582E+02  0.00000000000E+00 0.  1.
         21    1    1    2  505  506  0.12137145313E+03  0.88507072646E+02  0.11413976850E+02  0.15064796849E+03  0.00000000000E+00 0.  1.
         21    1    1    2  506  502  0.37020617061E+02 -0.17412446195E+02 -0.13349274325E+02  0.43033969084E+02  0.00000000000E+00 0.  1.
<scales pt_clust_3="150.77856" pt_clust_4="30.28958" pt_clust_5="14000.00000" pt_clust_6="35.06671"></scales>
<clustering>
<clus scale="   30.290">  2  4  1 -1</clus>
<clus scale="   35.067">  2  6  1 -1</clus>
<clus scale="  150.779">  1  3  2 -1</clus>
<clus scale="  150.779">  1  3  2 -1</clus>
</clustering>
</event>
<event>
 6    0  0.5563122E+002  0.9871293E+02  0.7546771E-02  0.1283026E+00
         21   -1    0    0  505  501  0.00000000000E+00  0.00000000000E+00  0.25010932841E+03  0.25010932841E+03  0.00000000000E+00 0.  1.
         21   -1    0    0  503  502 -0.00000000000E+00 -0.00000000000E+00 -0.16185096006E+04  0.16185096006E+04  0.00000000000E+00 0. -1.
         21    1    1    2  503  506  0.66236597480E+02 -0.73881448184E+00 -0.20912774737E+03  0.21936783587E+03  0.00000000000E+00 0.  1.
         21    1    1    2  504  502  0.37289846753E+02 -0.15527679503E+02 -0.13794899187E+04  0.13800811850E+04  0.00000000000E+00 0. -1.
         21    1    1    2  505  504 -0.68362754298E+02  0.65038455764E+02  0.14251433242E+03  0.17092045474E+03  0.00000000000E+00 0.  1.
         21    1    1    2  506  501 -0.35163689936E+02 -0.48771961779E+02  0.77703061400E+02  0.98249453417E+02  0.00000000000E+00 0.  1.
<scales pt_clust_3="14000.00000" pt_clust_4="40.39358" pt_clust_5="98.71293" pt_clust_6="59.75396"></scales>
<clustering>
<clus scale="   40.394">  2  4  1 -1</clus>
<clus scale="   59.754">  1  6  2 -1</clus>
<clus scale="   98.713">  1  5  2 -1</clus>
<clus scale="   59.754">  1  3  2 -1</clus>
</clustering>
</event>
<event>
 6    0  0.5563122E+002  0.1439472E+03  0.7546771E-02  0.1208114E+00
         21   -1    0    0  503  501  0.00000000000E+00  0.00000000000E+00  0.27634966677E+04  0.27634966677E+04  0.00000000000E+00 0.  1.
         21   -1    0    0  504  502 -0.00000000000E+00 -0.00000000000E+00 -0.13896841887E+02  0.13896841887E+02  0.00000000000E+00 0.  1.
         21    1    1    2  503  502  0.35368294531E+02 -0.10823393329E+03  0.70780771799E+03  0.71690812955E+03  0.00000000000E+00 0.  1.
         21    1    1    2  504  505 -0.23528716733E+02 -0.35866542481E+02  0.67143621504E+02  0.79676064721E+02  0.00000000000E+00 0.  1.
         21    1    1    2  505  506 -0.17314605963E+01  0.10844766133E+03  0.10895056571E+04  0.10948910768E+04  0.00000000000E+00 0.  1.
         21    1    1    2  506  501 -0.10108117201E+02  0.35652814442E+02  0.88514282922E+03  0.88591823851E+03  0.00000000000E+00 0.  1.
<scales pt_clust_3="131.36602" pt_clust_4="42.89533" pt_clust_5="34.40157" pt_clust_6="34.40157"></scales>
<clustering>
<clus scale="   34.402">  5  6 -1 -1</clus>
<clus scale="   42.895">  2  4  1 -1</clus>
<clus scale="  131.366">  2  3  1 -1</clus>
<clus scale="  143.947">  1  3  2 -1</clus>
</clustering>
</event>
<event>
 6    0  0.5563122E+002  0.8342494E+02  0.7546771E-02  0.1319604E+00
         21   -1    0    0  504  501  0.00000000000E+00  0.00000000000E+00  0.14497887158E+03  0.14497887158E+03  0.00000000000E+00 0.  1.
         21   -1    0    0  505  502 -0.00000000000E+00 -0.00000000000E+00 -0.41149473257E+03  0.41149473257E+03  0.00000000000E+00 0.  1.
         21    1    1    2  503  501 -0.49039626935E+02  0.25192197665E+02  0.11195858249E+02  0.56257257977E+02  0.00000000000E+00 0. -1.
         21    1    1    2  504  506  0.92523126656E+02 -0.86324981379E+02  0.55834505439E+02  0.13831132771E+03  0.00000000000E+00 0.  1.
         21    1    1    2  505  503 -0.50327571040E+01 -0.30033108614E+02 -0.30433811212E+02  0.43052678453E+02  0.00000000000E+00 0.  1.
         21    1    1    2  506  502 -0.38450742617E+02  0.91165892327E+02 -0.30311241346E+03  0.31885234000E+03  0.00000000000E+00 0.  1.
<scales pt_clust_3="54.60388" pt_clust_4="83.42494" pt_clust_5="30.45187" pt_clust_6="14000.00000"></scales>
<clustering>
<clus scale="   30.452">  2  5  1 -1</clus>
<clus scale="   54.604">  1  3  2 -1</clus>
<clus scale="   83.425">  1  4  2 -1</clus>
<clus scale="   54.604">  1  3  2 -1</clus>
</clustering>
</event>
<event>
 6    0  0.5563122E+002  0.1885380E+03  0.7546771E-02  0.1159787E+00
         21   -1    0    0  503  501  0.00000000000E+00  0.00000000000E+00  0.45127828853E+03  0.45127828853E+03  0.00000000000E+00 0. -1.
         21   -1    0    0  506  502 -0.00000000000E+00 -0.00000000000E+00 -0.34020955795E+03  0.34020955795E+03  0.00000000000E+00 0. -1.
         21    1    1    2  503  505  0.12523590026E+02 -0.19730861615E+03  0.63884718274E+02  0.20777099784E+03  0.00000000000E+00 0. -1.
         21    1    1    2  504  501 -0.10933933788E+03  0.36957927566E+02  0.18332963721E+03  0.21663502740E+03  0.00000000000E+00 0. -1.
         21    1    1    2  505  502  0.47390655872E+02 -0.21825035007E+02 -0.16776466353E+03  0.17569060517E+03  0.00000000000E+00 0. -1.
         21    1    1    2  506  504  0.49425091978E+02  0.18217572359E+03  0.31619038629E+02  0.19139121606E+03  0.00000000000E+00 0. -1.
<scales pt_clust_3="14000.00000" pt_clust_4="110.28969" pt_clust_5="52.17477" pt_clust_6="188.53796"></scales>
<clustering>
<clus scale="   52.175">  2  5  1 -1</clus>
<clus scale="  110.290">  1  4  2 -1</clus>
<clus scale="  188.538">  2  6  1 -1</clus>
<clus scale="  110.290">  1  3  2 -1</clus>
</clustering>
</event>
<event>
 6    0  0.5563122E+002  0.1343439E+03  0.7546771E-02  0.1221149E+00
         21   -1    0    0  506  501  0.00000000000E+00  0.00000000000E+00  0.27746453484E+03  0.27746453484E+03  0.00000000000E+00 0.  1.
         21   -1    0    0  505  502 -0.00000000000E+00 -0.00000000000E+00 -0.76251427174E+03  0.76251427174E+03  0.00000000000E+00 0. -1.
         21    1    1    2  503  501 -0.47948502453E+02 -0.13470500551E+03  0.22813674255E+03  0.26924128713E+03  0.00000000000E+00 0.  1.
         21    1    1    2  504  502  0.22511867960E+02  0.87457647058E+02 -0.39920592192E+03  0.40929328400E+03  0.00000000000E+00 0. -1.
         21    1    1    2  505  503 -0.18384380065E+02 -0.35392302220E+02 -0.23691174230E+03  0.24024523747E+03  0.00000000000E+00 0. -1.
         21    1    1    2  506  504  0.43821014558E+02  0.82639660670E+02 -0.77068815218E+02  0.12119899798E+03  0.00000000000E+00 0.  1.
<scales pt_clust_3="14000.00000" pt_clust_4="60.72391" pt_clust_5="39.88233" pt_clust_6="134.34392"></scales>
<clustering>
<clus scale="   39.882">  2  5  1 -1</clus>
<clus scale="   60.724">  2  4  1 -1</clus>
<clus scale="  134.344">  2  6  1 -1</clus>
<clus scale="  134.344">  1  3  2 -1</clus>
</clustering>
</event>
<event>
 6    0  0.5563122E+002  0.7659049E+02  0.7546771E-02  0.1339015E+00
         21   -1    0    0  506  501  0.00000000000E+00  0.00000000000E+00  0.10255343032E+04  0.10255343032E+04  0.00000000000E+00 0.  1.
         21   -1    0    0  503  502 -0.00000000000E+00 -0.00000000000E+00 -0.18740647312E+03  0.18740647312E+03  0.00000000000E+00 0.  1.
         21    1    1    2  503  505  0.98486491579E+02  0.28111473149E+02  0.32793227262E+03  0.34355409963E+03  0.00000000000E+00 0.  1.
         21    1    1    2  504  501  0.21823225419E+02 -0.23091227464E+02  0.46898462274E+02  0.56647362844E+02  0.00000000000E+00 0.  1.
         21    1    1    2  505  504 -0.45199218731E+02  0.63880821630E+01  0.62889315403E+03  0.63054767952E+03  0.00000000000E+00 0.  1.
         21    1    1    2  506  502 -0.75110498266E+02 -0.11408327848E+02 -0.16559605887E+03  0.18219163429E+03  0.00000000000E+00 0.  1.
<scales pt_clust_3="76.59049" pt_clust_4="31.77197" pt_clust_5="32.23936" pt_clust_6="14000.00000"></scales>
<clustering>
<clus scale="   31.772">  1  4  2 -1</clus>
<clus scale="   32.239">  1  5  2 -1</clus>
<clus scale="   76.590">  1  3  2 -1</clus>
<clus scale="   31.772">  1  3  2 -1</clus>
</clustering>
</event>
<event>
 6    0  0.5563122E+002  0.1273386E+03  0.7546771E-02  0.1231459E+00
         21   -1    0    0  504  501  0.00000000000E+00  0.00000000000E+00  0.16782498503E+03  0.16782498503E+03  0.00000000000E+00 0.  1.
         21   -1    0    0  505  502 -0.00000000000E+00 -0.00000000000E+00 -0.48246814311E+03  0.48246814311E+03  0.00000000000E+00 0.  1.
         21    1    1    2  503  506 -0.54752278690E+02 -0.98502451629E+02 -0.64544549837E+01  0.11288137574E+03  0.00000000000E+00 0.  1.
         21    1    1    2  504  503 -0.10636973787E+02 -0.51868802156E+02  0.84491652613E+02  0.99711369511E+02  0.00000000000E+00 0.  1.
         21    1    1    2  505  501  0.25904420647E+02  0.25688397210E+02 -0.17665124682E+02  0.40533805525E+02  0.00000000000E+00 0. -1.
         21    1    1    2  506  502  0.39484831831E+02  0.12468285658E+03 -0.37501523103E+03  0.39716657736E+03  0.00000000000E+00 0.  1.
<scales pt_clust_3="127.33859" pt_clust_4="37.02957" pt_clust_5="36.48195" pt_clust_6="14000.00000"></scales>
<clustering>
<clus scale="   36.482">  1  5  2 -1</clus>
<clus scale="   37.030">  1  4  2 -1</clus>
<clus scale="  127.339">  1  3  2 -1</clus>
<clus scale="   36.482">  1  3  2 -1</clus>
</clustering>
</event>
<event>
 6    0  0.5563122E+002  0.3464629E+03  0.7546771E-02  0.1064076E+00
         21   -1    0    0  505  501  0.00000000000E+00  0.00000000000E+00  0.16027710558E+04  0.16027710558E+04  0.00000000000E+00 0. -1.
         21   -1    0    0  501  502 -0.00000000000E+00 -0.00000000000E+00 -0.18189543324E+03  0.18189543324E+03  0.00000000000E+00 0. -1.
         21    1    1    2  503  506  0.14306820540E+03 -0.27582740114E+03  0.12589309911E+03  0.33525861513E+03  0.00000000000E+00 0. -1.
         21    1    1    2  504  503 -0.31537939467E+03  0.18067503393E+03  0.11009702244E+04  0.11594149669E+04  0.00000000000E+00 0. -1.
         21    1    1    2  505  504  0.10411824325E+02  0.28810540857E+02  0.67360039364E+02  0.73998839541E+02  0.00000000000E+00 0.  1.
         21    1    1    2  506  502  0.16189936494E+03  0.66341826353E+02  0.12665225967E+03  0.21599406744E+03  0.00000000000E+00 0. -1.
<scales pt_clust_3="14000.00000" pt_clust_4="346.46290" pt_clust_5="30.63419" pt_clust_6="177.28179"></scales>
<clustering>
<clus scale="   30.634">  1  5  2 -1</clus>
<clus scale="  177.282">  2  6  1 -1</clus>
<clus scale="  346.463">  1  4  2 -1</clus>
<clus scale="   30.634">  1  3  2 -1</clus>
</clustering>
</event>
<event>
 6    0  0.5563122E+002  0.9641352E+02  0.7546771E-02  0.1288024E+00
         21   -1    0    0  503  501  0.00000000000E+00  0.00000000000E+00  0.41800550919E+03  0.41800550919E+03  0.00000000000E+00 0. -1.
         21   -1    0    0  506  502 -0.00000000000E+00 -0.00000000000E+00 -0.20920198260E+03  0.20920198260E+03  0.00000000000E+00 0.  1.
         21    1    1    2  503  502 -0.30725251073E+02  0.27454105869E+02 -0.39878685885E+02  0.57341769858E+02  0.00000000000E+00 0.  1.
         21    1    1    2  504  505  0.92296193612E+02 -0.22818287461E+02 -0.29757844013E+02  0.99623244668E+02  0.00000000000E+00 0.  1.
         21    1    1    2  505  501 -0.96157796334E+02 -0.14060465370E+02  0.36438486607E+03  0.37712113320E+03  0.00000000000E+00 0. -1.
         21    1    1    2  506  504  0.34586853795E+02  0.94246469617E+01 -0.85944809587E+02  0.93121344067E+02  0.00000000000E+00 0. -1.
<scales pt_clust_3="35.44963" pt_clust_4="96.41352" pt_clust_5="14000.00000" pt_clust_6="35.84793"></scales>
<clustering>
<clus scale="   35.848">  2  6  1 -1</clus>
<clus scale="   35.450">  2  3  1 -1</clus>
<clus scale="   96.414">  2  4  1 -1</clus>
<clus scale="   96.414">  1  3  2 -1</clus>
</clustering>
</event>
<event>
 6    0  0.5563122E+002  0.1291425E+03  0.7546771E-02  0.1228734E+00
         21   -1    0    0  504  501  0.00000000000E+00  0.00000000000E+00  0.22073075282E+03  0.22073075282E+03  0.00000000000E+00 0. -1.
         21   -1    0    0  506  502 -0.00000000000E+00 -0.00000000000E+00 -0.23222528732E+03  0.23222528732E+03  0.00000000000E+00 0. -1.
         21    1    1    2  503  502 -0.75815129806E+01  0.45257148235E+02 -0.28657629172E+02  0.54101280162E+02  0.00000000000E+00 0.  1.
         21    1    1    2  504  503 -0.13670421879E+03  0.23973012068E+02  0.99714631571E+02  0.17089691774E+03  0.00000000000E+00 0. -1.
         21    1    1    2  505  501  0.27087189170E+02  0.25382104041E+02  0.23330485160E+02  0.43843797286E+02  0.00000000000E+00 0.  1.
         21    1    1    2  506  505  0.11719854261E+03 -0.94612264344E+02 -0.10588202206E+03  0.18411404495E+03  0.00000000000E+00 0. -1.
<scales pt_clust_3="47.33195" pt_clust_4="129.14246" pt_clust_5="37.12098" pt_clust_6="14000.00000"></scales>
<clustering>
<clus scale="   37.121">  1  5  2 -1</clus>
<clus scale="   47.332">  2  3  1 -1</clus>
<clus scale="  129.142">  1  4  2 -1</clus>
<clus scale="   37.121">  1  3  2 -1</clus>
</clustering>
</event>
<event>
 6    0  0.5563122E+002  0.9169548E+02  0.7546771E-02  0.1298797E+00
         21   -1    0    0  502  501  0.00000000000E+00  0.00000000000E+00  0.22035857679E+02  0.22035857679E+02  0.00000000000E+00 0.  1.
         21   -1    0    0  504  502 -0.00000000000E+00 -0.00000000000E+00 -0.10611141756E+04  0.10611141756E+04  0.00000000000E+00 0. -1.
         21    1    1    2  503  506 -0.94725436549E+02 -0.44328752994E+02 -0.30091185874E+03  0.31856850661E+03  0.00000000000E+00 0.  1.
         21    1    1    2  504  503  0.35845225831E+02  0.87378859473E+02 -0.53189969579E+03  0.54021961430E+03  0.00000000000E+00 0. -1.
         21    1    1    2  505  501  0.30575581758E+02  0.52793292797E+01 -0.56401019476E+02  0.64372451526E+02  0.00000000000E+00 0.  1.
         21    1    1    2  506  505  0.28304628960E+02 -0.48329435759E+02 -0.14986574391E+03  0.15998946084E+03  0.00000000000E+00 0.  1.
<scales pt_clust_3="14000.00000" pt_clust_4="91.69548" pt_clust_5="31.02801" pt_clust_6="59.62287"></scales>
<clustering>
<clus scale="   31.028">  1  5  2 -1</clus>
<clus scale="   59.623">  1  6  2 -1</clus>
<clus scale="   91.695">  2  4  1 -1</clus>
<clus scale="   31.028">  1  3  2 -1</clus>
</clustering>
</event>
<event>
 6    0  0.5563122E+002  0.1143253E+03  0.7546771E-02  0.1252763E+00
         21   -1    0    0  506  501  0.00000000000E+00  0.00000000000E+00  0.21148039858E+04  0.21148039858E+04  0.00000000000E+00 0.  1.
         21   -1    0    0  505  502 -0.00000000000E+00 -0.00000000000E+00 -0.18728709440E+02  0.18728709440E+02  0.00000000000E+00 0.  1.
         21    1    1    2  503  502 -0.46097578423E+01 -0.39220153711E+02  0.57144444815E+02  0.69461916888E+02  0.00000000000E+00 0.  1.
         21    1    1    2  504  501 -0.12123029514E+02  0.32506424699E+02  0.72350599264E+03  0.72433732258E+03  0.00000000000E+00 0.  1.
         21    1    1    2  505  504 -0.25717892972E+02  0.12294645676E+03  0.53414743342E+03  0.54871734242E+03  0.00000000000E+00 0.  1.
         21    1    1    2  506  503  0.42450680329E+02 -0.11623272775E+03  0.78127740546E+03  0.79101611333E+03  0.00000000000E+00 0.  1.
<scales pt_clust_3="38.09201" pt_clust_4="34.69345" pt_clust_5="14000.00000" pt_clust_6="114.32532"></scales>
<clustering>
<clus scale="   34.693">  1  4  2 -1</clus>
<clus scale="   38.092">  2  3  1 -1</clus>
<clus scale="  114.325">  1  6  2 -1</clus>
<clus scale="   34.693">  1  3  2 -1</clus>
</clustering>
</event>
<event>
 6    0  0.5563122E+002  0.7838760E+02  0.7546771E-02  0.1333690E+00
         21   -1    0    0  505  501  0.00000000000E+00  0.00000000000E+00  0.13587796324E+03  0.13587796324E+03  0.00000000000E+00 0.  1.
         21   -1    0    0  504  502 -0.00000000000E+00 -0.00000000000E+00 -0.39004073836E+03  0.39004073836E+03  0.00000000000E+00 0.  1.
         21    1    1    2  503  501 -0.38553391749E+02  0.14189568877E+02  0.40956830101E+02  0.58010083711E+02  0.00000000000E+00 0.  1.
         21    1    1    2  504  503 -0.49050800803E+02 -0.48880913179E+02 -0.75438712951E+02  0.10240275457E+03  0.00000000000E+00 0.  1.
         21    1    1    2  505  506  0.82486739937E+02 -0.56798019069E+02  0.25850790877E+02  0.10343278312E+03  0.00000000000E+00 0.  1.
         21    1    1    2  506  502  0.51174526148E+01  0.91489363370E+02 -0.24553168315E+03  0.26207308019E+03  0.00000000000E+00 0.  1.
<scales pt_clust_3="41.08172" pt_clust_4="14000.00000" pt_clust_5="70.78134" pt_clust_6="78.38760"></scales>
<clustering>
<clus scale="   41.082">  1  3  2 -1</clus>
<clus scale="   70.781">  1  5  2 -1</clus>
<clus scale="   78.388">  2  6  1 -1</clus>
<clus scale="   41.082">  1  3  2 -1</clus>
</clustering>
</event>
<event>
 6    0  0.5563122E+002  0.1388947E+03  0.7546771E-02  0.1214824E+00
         21   -1    0    0  506  501  0.00000000000E+00  0.00000000000E+00  0.19215052850E+03  0.19215052850E+03  0.00000000000E+00 0. -1.
         21   -1    0    0  504  502 -0.00000000000E+00 -0.00000000000E+00 -0.36125470364E+03  0.36125470364E+03  0.00000000000E+00 0. -1.
         21    1    1    2  503  505 -0.16096829863E+02  0.46901026439E+02  0.16653477117E+02  0.52308245170E+02  0.00000000000E+00 0.  1.
         21    1    1    2  504  503 -0.25626448504E+02  0.23577456228E+02 -0.20435077720E+03  0.20729653024E+03  0.00000000000E+00 0.  1.
         21    1    1    2  505  501  0.76662632443E+01  0.75964271380E+02  0.97631438195E+02  0.12394046895E+03  0.00000000000E+00 0. -1.
         21    1    1    2  506  502  0.34057015122E+02 -0.14644275405E+03 -0.79038313244E+02  0.16985998779E+03  0.00000000000E+00 0. -1.
<scales pt_clust_3="43.90658" pt_clust_4="34.82257" pt_clust_5="43.90658" pt_clust_6="128.28139"></scales>
<clustering>
<clus scale="   34.823">  2  4  1 -1</clus>
<clus scale="   43.907">  3  5 -1 -1</clus>
<clus scale="  128.281">  2  6  1 -1</clus>
<clus scale="  138.895">  1  3  2 -1</clus>
</clustering>
</event>
<event>
 6    0  0.5563122E+002  0.1593961E+03  0.7546771E-02  0.1189380E+00
         21   -1    0    0  503  501  0.00000000000E+00  0.00000000000E+00  0.98879545761E+02  0.98879545761E+02  0.00000000000E+00 0. -1.
         21   -1    0    0  504  502 -0.00000000000E+00 -0.00000000000E+00 -0.47034463334E+03  0.47034463334E+03  0.00000000000E+00 0.  1.
         21    1    1    2  503  506  0.72386800842E+02 -0.65650322041E+02 -0.28499046433E+02  0.10179395546E+03  0.00000000000E+00 0. -1.
         21    1    1    2  504  505 -0.13858796307E+03  0.10205868859E+02 -0.30392881970E+03  0.33419082978E+03  0.00000000000E+00 0.  1.
         21    1    1    2  505  501 -0.47738807506E+01  0.47207704825E+02  0.74023444558E+01  0.48022411807E+02  0.00000000000E+00 0.  1.
         21    1    1    2  506  502  0.70975042979E+02  0.82367483562E+01 -0.46439565903E+02  0.85216982055E+02  0.00000000000E+00 0. -1.
<scales pt_clust_3="70.25909" pt_clust_4="141.06294" pt_clust_5="47.44847" pt_clust_6="70.25909"></scales>
<clustering>
<clus scale="   47.448">  1  5  2 -1</clus>
<clus scale="   70.259">  3  6 -1 -1</clus>
<clus scale="  141.063">  2  4  1 -1</clus>
<clus scale="   47.448">  1  3  2 -1</clus>
</clustering>
</event>
<event>
 6    0  0.5563122E+002  0.1755960E+03  0.7546771E-02  0.1172135E+00
         21   -1    0    0  504  501  0.00000000000E+00  0.00000000000E+00  0.56542117315E+03  0.56542117315E+03  0.00000000000E+00 0. -1.
         21   -1    0    0  503  502 -0.00000000000E+00 -0.00000000000E+00 -0.14902612791E+04  0.14902612791E+04  0.00000000000E+00 0.  1.
         21    1    1    2  503  506  0.21713929181E+03  0.10751569725E+03 -0.71251702006E+03  0.75258860015E+03  0.00000000000E+00 0.  1.
         21    1    1    2  504  505  0.47600807061E+02 -0.48979410641E+02 -0.64985303617E+01  0.68607947036E+02  0.00000000000E+00 0.  1.
         21    1    1    2  505  502 -0.11676450482E+03  0.33563506206E+02 -0.70000466773E+03  0.71046955838E+03  0.00000000000E+00 0.  1.
         21    1    1    2  506  501 -0.14797559405E+03 -0.92099792815E+02  0.49418011222E+03  0.52401634668E+03  0.00000000000E+00 0. -1.
<scales pt_clust_3="14000.00000" pt_clust_4="68.29948" pt_clust_5="120.91263" pt_clust_6="175.59599"></scales>
<clustering>
<clus scale="   68.299">  1  4  2 -1</clus>
<clus scale="  120.913">  2  5  1 -1</clus>
<clus scale="  175.596">  1  6  2 -1</clus>
<clus scale="   68.299">  1  3  2 -1</clus>
</clustering>
</event>
<event>
 6    0  0.5563122E+002  0.1671205E+03  0.7546771E-02  0.1180884E+00
         21   -1    0    0  506  501  0.00000000000E+00  0.00000000000E+00  0.12363489324E+03  0.12363489324E+03  0.00000000000E+00 0. -1.
         21   -1    0    0  505  502 -0.00000000000E+00 -0.00000000000E+00 -0.15412711053E+04  0.15412711053E+04  0.00000000000E+00 0. -1.
         21    1    1    2  503  501 -0.22056591686E+02 -0.23987219532E+02  0.82995400237E+02  0.89163425227E+02  0.00000000000E+00 0. -1.
         21    1    1    2  504  502 -0.21230804853E+02 -0.22184286869E+02 -0.30891850931E+03  0.31044087208E+03  0.00000000000E+00 0. -1.
         21    1    1    2  505  503  0.13958426944E+03 -0.95048646069E+02 -0.21323238542E+03  0.27200379333E+03  0.00000000000E+00 0. -1.
         21    1    1    2  506  504 -0.96296872897E+02  0.14122015247E+03 -0.97848071754E+03  0.99329790787E+03  0.00000000000E+00 0. -1.
<scales pt_clust_3="32.66338" pt_clust_4="30.70651" pt_clust_5="167.12045" pt_clust_6="14000.00000"></scales>
<clustering>
<clus scale="   30.707">  2  4  1 -1</clus>
<clus scale="   32.663">  1  3  2 -1</clus>
<clus scale="  167.120">  1  5  2 -1</clus>
<clus scale="   32.663">  1  3  2 -1</clus>
</clustering>
</event>
<event>
 6    0  0.5563122E+002  0.1409784E+03  0.7546771E-02  0.1212018E+00
         21   -1    0    0  505  501  0.00000000000E+00  0.00000000000E+00  0.41845438919E+03  0.41845438919E+03  0.00000000000E+00 0. -1.
         21   -1    0    0  504  502 -0.00000000000E+00 -0.00000000000E+00 -0.26116475412E+03  0.26116475412E+03  0.00000000000E+00 0. -1.
         21    1    1    2  503  506  0.25368343017E+02  0.63032292603E+02 -0.55156645959E+02  0.87515017749E+02  0.00000000000E+00 0. -1.
         21    1    1    2  504  501 -0.12688897670E+03 -0.59506611932E+02  0.25850117877E+01  0.14017321983E+03  0.00000000000E+00 0. -1.
         21    1    1    2  505  503  0.53719248805E+02 -0.62654790592E+02  0.31305472957E+03  0.32375089835E+03  0.00000000000E+00 0. -1.
         21    1    1    2  506  502  0.47801384880E+02  0.59129109922E+02 -0.10319346033E+03  0.12818000738E+03  0.00000000000E+00 0. -1.
<scales pt_clust_3="32.36746" pt_clust_4="136.75725" pt_clust_5="82.53109" pt_clust_6="32.36746"></scales>
<clustering>
<clus scale="   32.367">  3  6 -1 -1</clus>
<clus scale="   82.531">  1  5  2 -1</clus>
<clus scale="  136.757">  1  4  2 -1</clus>
<clus scale="   82.531">  1  3  2 -1</clus>
</clustering>
</event>
<event>
 6    0  0.5563122E+002  0.1739476E+03  0.7546771E-02  0.1173793E+00
         21   -1    0    0  503  501  0.00000000000E+00  0.00000000000E+00  0.24106359321E+04  0.24106359321E+04  0.00000000000E+00 0.  1.
         21   -1    0    0  506  502 -0.00000000000E+00 -0.00000000000E+00 -0.48265095051E+02  0.48265095051E+02  0.00000000000E+00 0.  1.
         21    1    1    2  503  504 -0.59935175896E+02  0.76922036449E+02  0.89090516655E+02  0.13208461363E+03  0.00000000000E+00 0.  1.
         21    1    1    2  504  502 -0.69954917217E+02  0.32632676297E+02  0.45824756816E+02  0.89769094584E+02  0.00000000000E+00 0.  1.
         21    1    1    2  505  501 -0.18825098311E+01 -0.31392573981E+02  0.93715291713E+03  0.93768045070E+03  0.00000000000E+00 0.  1.
         21    1    1    2  506  505  0.13177260294E+03 -0.78162138765E+02  0.12903026465E+04  0.12993668682E+04  0.00000000000E+00 0.  1.
<scales pt_clust_3="41.42589" pt_clust_4="41.42589" pt_clust_5="31.44897" pt_clust_6="167.67384"></scales>
<clustering>
<clus scale="   31.449">  1  5  2 -1</clus>
<clus scale="   41.426">  3  4 -1 -1</clus>
<clus scale="  167.674">  1  6  2 -1</clus>
<clus scale="   31.449">  1  3  2 -1</clus>
</clustering>
</event>
<event>
 6    0  0.5563122E+002  0.7098541E+02  0.7546771E-02  0.1356774E+00
         21   -1    0    0  504  501  0.00000000000E+00  0.00000000000E+00  0.67855006211E+03  0.67855006211E+03  0.00000000000E+00 0.  1.
         21   -1    0    0  505  502 -0.00000000000E+00 -0.00000000000E+00 -0.12793755715E+03  0.12793755715E+03  0.00000000000E+00 0. -1.
         21    1    1    2  503  506  0.29562854716E+02 -0.92245399150E+02  0.19554841016E+02  0.98820887723E+02  0.00000000000E+00 0. -1.
         21    1    1    2  504  503 -0.36380221461E+02  0.59538278605E+02  0.58891807859E+03  0.59303695536E+03  0.00000000000E+00 0.  1.
         21    1    1    2  505  501  0.43281791886E+02  0.51263676523E+01 -0.36844061572E+01  0.43739775981E+02  0.00000000000E+00 0. -1.
         21    1    1    2  506  502 -0.36464425140E+02  0.27580752892E+02 -0.54176008491E+02  0.70890000190E+02  0.00000000000E+00 0. -1.
<scales pt_clust_3="70.98541" pt_clust_4="14000.00000" pt_clust_5="43.58432" pt_clust_6="32.40356"></scales>
<clustering>
<clus scale="   43.584">  2  5  1 -1</clus>
<clus scale="   32.404">  2  6  1 -1</clus>
<clus scale="   70.985">  2  3  1 -1</clus>
<clus scale="   70.985">  1  3  2 -1</clus>
</clustering>
</event>
<event>
 6    0  0.5563122E+002  0.7321499E+02  0.7546771E-02  0.1349489E+00
         21   -1    0    0  505  501  0.00000000000E+00  0.00000000000E+00  0.13680503402E+03  0.13680503402E+03  0.00000000000E+00 0.  1.
         21   -1    0    0  503  502 -0.00000000000E+00 -0.00000000000E+00 -0.58464293905E+03  0.58464293905E+03  0.00000000000E+00 0.  1.
         21    1    1    2  503  504  0.71255633366E+02  0.51526155258E+01 -0.49306560833E+03  0.49821442056E+03  0.00000000000E+00 0.  1.
         21    1    1    2  504  506 -0.11532337310E+03 -0.44648896001E+02  0.78075991547E+01  0.12391110888E+03  0.00000000000E+00 0.  1.
         21    1    1    2  505  502  0.36207872288E+02  0.26660337270E+00 -0.97217303984E+01  0.37491240776E+02  0.00000000000E+00 0. -1.
         21    1    1    2  506  501  0.78598674497E+01  0.39229677102E+02  0.47141834550E+02  0.61831202856E+02  0.00000000000E+00 0.  1.
<scales pt_clust_3="14000.00000" pt_clust_4="73.21499" pt_clust_5="36.20885" pt_clust_6="46.04263"></scales>
<clustering>
<clus scale="   36.209">  1  5  2 -1</clus>
<clus scale="   46.043">  1  6  2 -1</clus>
<clus scale="   73.215">  1  4  2 -1</clus>
<clus scale="   36.209">  1  3  2 -1</clus>
</clustering>
</event>
<event>
 6    0  0.5563122E+002  0.1319491E+03  0.7546771E-02  0.1224592E+00
         21   -1    0    0  506  501  0.00000000000E+00  0.00000000000E+00  0.13616388318E+03  0.13616388318E+03  0.00000000000E+00 0. -1.
         21   -1    0    0  503  502 -0.00000000000E+00 -0.00000000000E+00 -0.14425412597E+04  0.14425412597E+04  0.00000000000E+00 0.  1.
         21    1    1    2  503  504  0.27764613611E+02 -0.64775803024E+02 -0.50640476211E+03  0.51128520564E+03  0.00000000000E+00 0.  1.
         21    1    1    2  504  505  0.12858089145E+03  0.85304000266E+02 -0.71117675907E+03  0.72772398665E+03  0.00000000000E+00 0.  1.
         21    1    1    2  505  501 -0.70289580984E+02 -0.81910923395E+02 -0.17343657285E+03  0.20427987999E+03  0.00000000000E+00 0.  1.
         21    1    1    2  506  502 -0.86055924074E+02  0.61382726153E+02  0.84640717455E+02  0.13541607065E+03  0.00000000000E+00 0. -1.
<scales pt_clust_3="70.47537" pt_clust_4="131.94909" pt_clust_5="14000.00000" pt_clust_6="104.07197"></scales>
<clustering>
<clus scale="   70.475">  2  3  1 -1</clus>
<clus scale="  104.072">  1  6  2 -1</clus>
<clus scale="  131.949">  2  4  1 -1</clus>
<clus scale="  104.072">  1  3  2 -1</clus>
</clustering>
</event>
<event>
 6    0  0.5563122E+002  0.1042789E+03  0.7546771E-02  0.1271547E+00
         21   -1    0    0  504  501  0.00000000000E+00  0.00000000000E+00  0.12476098812E+04  0.12476098812E+04  0.00000000000E+00 0. -1.
         21   -1    0    0  505  502 -0.00000000000E+00 -0.00000000000E+00 -0.18955209490E+03  0.18955209490E+03  0.00000000000E+00 0. -1.
         21    1    1    2  503  501  0.18511794979E+02 -0.68870117045E+02  0.93956555407E+03  0.94226812000E+03  0.00000000000E+00 0. -1.
         21    1    1    2  504  502  0.23707964585E+02 -0.84408572556E+02  0.21668244579E+03  0.23374806313E+03  0.00000000000E+00 0. -1.
         21    1    1    2  505  506 -0.99940897347E+01  0.68539053058E+02 -0.14383501789E+03  0.15964333997E+03  0.00000000000E+00 0. -1.
         21    1    1    2  506  503 -0.32225669829E+02  0.84739636543E+02  0.45644804284E+02  0.10150245295E+03  0.00000000000E+00 0. -1.
<scales pt_clust_3="68.85720" pt_clust_4="104.27895" pt_clust_5="69.26387" pt_clust_6="14000.00000"></scales>
<clustering>
<clus scale="   69.264">  2  5  1 -1</clus>
<clus scale="   68.857">  1  3  2 -1</clus>
<clus scale="  104.279">  2  4  1 -1</clus>
<clus scale="   68.857">  1  3  2 -1</clus>
</clustering>
</event>
<event>
 6    0  0.5563122E+002  0.9100618E+02  0.7546771E-02  0.1300433E+00
         21   -1    0    0  505  501  0.00000000000E+00  0.00000000000E+00  0.88097778895E+03  0.88097778895E+03  0.00000000000E+00 0. -1.
         21   -1    0    0  506  502 -0.00000000000E+00 -0.00000000000E+00 -0.24412891682E+03  0.24412891682E+03  0.00000000000E+00 0.  1.
         21    1    1    2  503  501 -0.75847755520E+02 -0.74994166752E+02 -0.17688783055E+03  0.20655825246E+03  0.00000000000E+00 0.  1.
         21    1    1    2  504  502  0.14108062747E+02 -0.26775880075E+02  0.97597248536E+01  0.31799959394E+02  0.00000000000E+00 0. -1.
         21    1    1    2  505  504  0.85558891609E+02  0.30781655200E+02  0.80671237872E+03  0.81182060593E+03  0.00000000000E+00 0. -1.
         21    1    1    2  506  503 -0.23819198835E+02  0.70988391627E+02 -0.27354008988E+01  0.74927887979E+02  0.00000000000E+00 0. -1.
<scales pt_clust_3="14000.00000" pt_clust_4="30.26525" pt_clust_5="91.00618" pt_clust_6="69.90635"></scales>
<clustering>
<clus scale="   30.265">  2  4  1 -1</clus>
<clus scale="   69.906">  2  6  1 -1</clus>
<clus scale="   91.006">  1  5  2 -1</clus>
<clus scale="   91.006">  1  3  2 -1</clus>
</clustering>
</event>
<event>
 6    0  0.5563122E+002  0.1558177E+03  0.7546771E-02  0.1193501E+00
         21   -1    0    0  504  501  0.00000000000E+00  0.00000000000E+00  0.12275868942E+03  0.12275868942E+03  0.00000000000E+00 0. -1.
         21   -1    0    0  505  502 -0.00000000000E+00 -0.00000000000E+00 -0.17167565617E+04  0.17167565617E+04  0.00000000000E+00 0. -1.
         21    1    1    2  503  501  0.68074120695E+02 -0.11554730750E+03  0.73663817248E+02  0.15300857542E+03  0.00000000000E+00 0. -1.
         21    1    1    2  504  502 -0.25278522972E+02 -0.22776839088E+02 -0.45384885715E+02  0.56723680892E+02  0.00000000000E+00 0. -1.
         21    1    1    2  505  506 -0.29361936804E+02  0.52650193089E+02 -0.95401627081E+03  0.95591904006E+03  0.00000000000E+00 0. -1.
         21    1    1    2  506  503 -0.13433660919E+02  0.85673953503E+02 -0.66826053305E+03  0.67386395480E+03  0.00000000000E+00 0. -1.
<scales pt_clust_3="144.33849" pt_clust_4="34.02629" pt_clust_5="49.04094" pt_clust_6="49.04094"></scales>
<clustering>
<clus scale="   34.026">  1  4  2 -1</clus>
<clus scale="   49.041">  5  6 -1 -1</clus>
<clus scale="  144.338">  1  3  2 -1</clus>
<clus scale="   34.026">  1  3  2 -1</clus>
</clustering>
</event>
<event>
 6    0  0.5563122E+002  0.1538691E+03  0.7546771E-02  0.1195798E+00
         21   -1    0    0  506  501  0.00000000000E+00  0.00000000000E+00  0.19855952180E+03  0.19855952180E+03  0.00000000000E+00 0.  1.
         21   -1    0    0  503  502 -0.00000000000E+00 -0.00000000000E+00 -0.67955699998E+03  0.67955699998E+03  0.00000000000E+00 0. -1.
         21    1    1    2  503  504  0.14023921637E+03  0.92466883996E+01 -0.59189326308E+03  0.60835037103E+03  0.00000000000E+00 0. -1.
         21    1    1    2  504  501  0.35275252227E+02 -0.21897353351E+02  0.68171914162E+02  0.79820093861E+02  0.00000000000E+00 0.  1.
         21    1    1    2  505  502 -0.13386139199E+03  0.10384131338E+02  0.60456340232E+01  0.13439959874E+03  0.00000000000E+00 0.  1.
         21    1    1    2  506  505 -0.41653076602E+02  0.22665336133E+01  0.36678236713E+02  0.55546458153E+02  0.00000000000E+00 0.  1.
<scales pt_clust_3="142.78269" pt_clust_4="41.51912" pt_clust_5="31.96574" pt_clust_6="31.96574"></scales>
<clustering>
<clus scale="   31.966">  5  6 -1 -1</clus>
<clus scale="   41.519">  1  4  2 -1</clus>
<clus scale="  142.783">  2  3  1 -1</clus>
<clus scale="   41.519">  1  3  2 -1</clus>
</clustering>
</event>
<event>
 6    0  0.9008272E+002  0.1014200E+03  0.7546771E-02  0.1277338E+00
         21   -1    0    0  505  501  0.00000000000E+00  0.00000000000E+00  0.21423149446E+03  0.21423149446E+03  0.00000000000E+00 0.  1.
         21   -1    0    0  506  502 -0.00000000000E+00 -0.00000000000E+00 -0.90692990555E+03  0.90692990555E+03  0.00000000000E+00 0.  1.
         21    1    1    2  503  501  0.24797311527E+02  0.17821807300E+02  0.44235545805E+02  0.53752274250E+02  0.00000000000E+00 0.  1.
         21    1    1    2  504  503  0.37872489742E+02 -0.22543252993E+02 -0.32340986290E+02  0.54666837561E+02  0.00000000000E+00 0.  1.
         21    1    1    2  505  502 -0.89178847447E+02  0.10217358416E+03  0.12054418102E+03  0.18144753432E+03  0.00000000000E+00 0.  1.
         21    1    1    2  506  504  0.26509046178E+02 -0.97452138465E+02 -0.82513715163E+03  0.83129475388E+03  0.00000000000E+00 0.  1.
<scales pt_clust_3="30.53725" pt_clust_4="44.93758" pt_clust_5="101.41996" pt_clust_6="14000.00000"></scales>
<clustering>
<clus scale="   30.537">  1  3  2 -1</clus>
<clus scale="   44.938">  1  4  2 -1</clus>
<clus scale="  101.420">  1  5  2 -1</clus>
<clus scale="   30.537">  1  3  2 -1</clus>
</clustering>
</event>
<event>
 6    0  0.5563122E+002  0.2623664E+03  0.7546771E-02  0.1105730E+00
         21   -1    0    0  505  501  0.00000000000E+00  0.00000000000E+00  0.88622320295E+03  0.88622320295E+03  0.00000000000E+00 0. -1.
         21   -1    0    0  504  502 -0.00000000000E+00 -0.00000000000E+00 -0.42955329366E+03  0.42955329366E+03  0.00000000000E+00 0.  1.
         21    1    1    2  503  502  0.25456818944E+03 -0.42738176356E+01 -0.35403347475E+03  0.43607674764E+03  0.00000000000E+00 0.  1.
         21    1    1    2  504  506 -0.49059059438E+02 -0.32063226995E+00  0.26048727915E+02  0.55546650160E+02  0.00000000000E+00 0.  1.
         21    1    1    2  505  503 -0.54317802695E+02 -0.89468468932E+01  0.48627060132E+03  0.48937671325E+03  0.00000000000E+00 0. -1.
         21    1    1    2  506  501 -0.15119132731E+03  0.13541296799E+02  0.29838405480E+03  0.33477638556E+03  0.00000000000E+00 0.  1.
<scales pt_clust_3="249.02949" pt_clust_4="46.95042" pt_clust_5="55.04970" pt_clust_6="46.95042"></scales>
<clustering>
<clus scale="   46.950">  4  6 -1 -1</clus>
<clus scale="   55.050">  1  5  2 -1</clus>
<clus scale="  249.029">  2  3  1 -1</clus>
<clus scale="   55.050">  1  3  2 -1</clus>
</clustering>
</event>
<event>
 6    0  0.5563122E+002  0.8765392E+02  0.7546771E-02  0.1308635E+00
         21   -1    0    0  504  501  0.00000000000E+00  0.00000000000E+00  0.51796286006E+03  0.51796286006E+03  0.00000000000E+00 0. -1.
         21   -1    0    0  506  502 -0.00000000000E+00 -0.00000000000E+00 -0.77493692923E+03  0.77493692923E+03  0.00000000000E+00 0. -1.
         21    1    1    2  503  502 -0.58317523537E+02  0.49594816196E+02 -0.57976098153E+02  0.96030241601E+02  0.00000000000E+00 0. -1.
         21    1    1    2  504  503  0.53835247219E+02  0.57340672084E+02  0.20816293011E+03  0.22252638493E+03  0.00000000000E+00 0. -1.
         21    1    1    2  505  501  0.47154458213E+02 -0.51584686535E+02  0.27747896764E+03  0.28614524336E+03  0.00000000000E+00 0. -1.
         21    1    1    2  506  505 -0.42672181894E+02 -0.55350801745E+02 -0.68463986877E+03  0.68819791940E+03  0.00000000000E+00 0. -1.
<scales pt_clust_3="14000.00000" pt_clust_4="87.65392" pt_clust_5="69.88936" pt_clust_6="69.98290"></scales>
<clustering>
<clus scale="   69.889">  1  5  2 -1</clus>
<clus scale="   69.983">  2  6  1 -1</clus>
<clus scale="   87.654">  1  4  2 -1</clus>
<clus scale="   69.889">  1  3  2 -1</clus>
</clustering>
</event>
<event>
 6    0  0.5563122E+002  0.8834379E+02  0.7546771E-02  0.1306913E+00
         21   -1    0    0  506  501  0.00000000000E+00  0.00000000000E+00  0.47002983341E+03  0.47002983341E+03  0.00000000000E+00 0.  1.
         21   -1    0    0  504  502 -0.00000000000E+00 -0.00000000000E+00 -0.11605371942E+04  0.11605371942E+04  0.00000000000E+00 0.  1.
         21    1    1    2  503  501  0.36079754896E+02 -0.40852161725E+02  0.38746484081E+03  0.39127950457E+03  0.00000000000E+00 0.  1.
         21    1    1    2  504  503  0.16032062254E+02  0.86396577501E+02 -0.10755726125E+04  0.10791560778E+04  0.00000000000E+00 0.  1.
         21    1    1    2  505  502 -0.53196585263E+02 -0.95370932292E+02  0.69455165272E+01  0.10942454756E+03  0.00000000000E+00 0.  1.
         21    1    1    2  506  505  0.10847681133E+01  0.49826516516E+02 -0.93451056650E+01  0.50706897656E+02  0.00000000000E+00 0. -1.
<scales pt_clust_3="37.09259" pt_clust_4="88.34379" pt_clust_5="14000.00000" pt_clust_6="49.83832"></scales>
<clustering>
<clus scale="   49.838">  1  6  2 -1</clus>
<clus scale="   37.093">  1  3  2 -1</clus>
<clus scale="   88.344">  2  4  1 -1</clus>
<clus scale="   49.838">  1  3  2 -1</clus>
</clustering>
</event>
<event>
 6    0  0.5563122E+002  0.2270340E+03  0.7546771E-02  0.1128745E+00
         21   -1    0    0  506  501  0.00000000000E+00  0.00000000000E+00  0.20149387740E+03  0.20149387740E+03  0.00000000000E+00 0.  1.
         21   -1    0    0  504  502 -0.00000000000E+00 -0.00000000000E+00 -0.12737637719E+04  0.12737637719E+04  0.00000000000E+00 0. -1.
         21    1    1    2  503  505 -0.74417994761E+02  0.14662227312E+02 -0.26601428620E+03  0.27661637572E+03  0.00000000000E+00 0. -1.
         21    1    1    2  504  501 -0.44839062783E+02  0.26659204091E+02 -0.62380690728E+02  0.81317927234E+02  0.00000000000E+00 0. -1.
         21    1    1    2  505  502 -0.84842350858E+02  0.16073671870E+02 -0.86757350861E+03  0.87186029860E+03  0.00000000000E+00 0. -1.
         21    1    1    2  506  503  0.20409940840E+03 -0.57395103273E+02  0.12369859103E+03  0.24546304775E+03  0.00000000000E+00 0.  1.
<scales pt_clust_3="73.81254" pt_clust_4="52.16565" pt_clust_5="73.81254" pt_clust_6="209.46502"></scales>
<clustering>
<clus scale="   52.166">  2  4  1 -1</clus>
<clus scale="   73.813">  3  5 -1 -1</clus>
<clus scale="  209.465">  1  6  2 -1</clus>
<clus scale="  209.465">  1  3  2 -1</clus>
</clustering>
</event>
<event>
 6    0  0.5563122E+002  0.1449719E+03  0.7546771E-02  0.1206791E+00
         21   -1    0    0  506  501  0.00000000000E+00  0.00000000000E+00  0.32923066652E+03  0.32923066652E+03  0.00000000000E+00 0.  1.
         21   -1    0    0  504  502 -0.00000000000E+00 -0.00000000000E+00 -0.18743720451E+03  0.18743720451E+03  0.00000000000E+00 0.  1.
         21    1    1    2  503  502  0.61065657853E+01 -0.16750187388E+03  0.22877900536E+02  0.16916727293E+03  0.00000000000E+00 0.  1.
         21    1    1    2  504  505  0.71459507855E+02  0.40763619309E+01 -0.29373310968E+02  0.77368400440E+02  0.00000000000E+00 0.  1.
         21    1    1    2  505  501 -0.93900914216E+02  0.10640802437E+03  0.41300120204E+02  0.14780307598E+03  0.00000000000E+00 0.  1.
         21    1    1    2  506  503  0.16334840576E+02  0.57017487579E+02  0.10698875224E+03  0.12232912168E+03  0.00000000000E+00 0.  1.
<scales pt_clust_3="14000.00000" pt_clust_4="74.02812" pt_clust_5="144.97186" pt_clust_6="59.31122"></scales>
<clustering>
<clus scale="   59.311">  1  6  2 -1</clus>
<clus scale="   74.028">  2  4  1 -1</clus>
<clus scale="  144.972">  2  5  1 -1</clus>
<clus scale="   59.311">  1  3  2 -1</clus>
</clustering>
</event>
<event>
 6    0  0.5563122E+002  0.1400751E+03  0.7546771E-02  0.1213228E+00
         21   -1    0    0  503  501  0.00000000000E+00  0.00000000000E+00  0.11469779499E+03  0.11469779499E+03  0.00000000000E+00 0.  1.
         21   -1    0    0  505  502 -0.00000000000E+00 -0.00000000000E+00 -0.29645520015E+04  0.29645520015E+04  0.00000000000E+00 0.  1.
         21    1    1    2  503  506 -0.59821896502E+01  0.62502638609E+02  0.73466136363E+02  0.96641810921E+02  0.00000000000E+00 0.  1.
         21    1    1    2  504  501  0.67632810836E+02 -0.17796734927E+03 -0.39790969510E+03  0.44111075702E+03  0.00000000000E+00 0.  1.
         21    1    1    2  505  504  0.84701275108E+02  0.92029818259E+02 -0.79833773072E+03  0.80807606433E+03  0.00000000000E+00 0.  1.
         21    1    1    2  506  502 -0.14635189629E+03  0.23434892407E+02 -0.17270729171E+04  0.17334211642E+04  0.00000000000E+00 0.  1.
<scales pt_clust_3="62.78827" pt_clust_4="14000.00000" pt_clust_5="132.18674" pt_clust_6="140.07513"></scales>
<clustering>
<clus scale="   62.788">  1  3  2 -1</clus>
<clus scale="  132.187">  2  5  1 -1</clus>
<clus scale="  140.075">  2  6  1 -1</clus>
<clus scale="   62.788">  1  3  2 -1</clus>
</clustering>
</event>
<event>
 6    0  0.5563122E+002  0.1002950E+03  0.7546771E-02  0.1279677E+00
         21   -1    0    0  504  501  0.00000000000E+00  0.00000000000E+00  0.52583185496E+02  0.52583185496E+02  0.00000000000E+00 0.  1.
         21   -1    0    0  505  502 -0.00000000000E+00 -0.00000000000E+00 -0.17592127802E+04  0.17592127802E+04  0.00000000000E+00 0. -1.
         21    1    1    2  503  502 -0.52509837304E+02  0.56308357570E+02 -0.15929919053E+03  0.17692977774E+03  0.00000000000E+00 0.  1.
         21    1    1    2  504  503 -0.24795766048E+01  0.62512193458E+02 -0.17933896620E+03  0.18993785149E+03  0.00000000000E+00 0. -1.
         21    1    1    2  505  506  0.51146769504E+02 -0.63772909191E+02 -0.13848253181E+04  0.13872361506E+04  0.00000000000E+00 0. -1.
         21    1    1    2  506  501  0.38426444039E+01 -0.55047641837E+02  0.16833880116E+02  0.57692185846E+02  0.00000000000E+00 0.  1.
<scales pt_clust_3="47.47585" pt_clust_4="47.47585" pt_clust_5="85.35331" pt_clust_6="55.18160"></scales>
<clustering>
<clus scale="   47.476">  3  4 -1 -1</clus>
<clus scale="   55.182">  1  6  2 -1</clus>
<clus scale="   85.353">  2  5  1 -1</clus>
<clus scale="   55.182">  1  3  2 -1</clus>
</clustering>
</event>
<event>
 6    0  0.5563122E+002  0.1937050E+03  0.7546771E-02  0.1155161E+00
         21   -1    0    0  505  501  0.00000000000E+00  0.00000000000E+00  0.16568583182E+03  0.16568583182E+03  0.00000000000E+00 0. -1.
         21   -1    0    0  506  502 -0.00000000000E+00 -0.00000000000E+00 -0.12149992965E+04  0.12149992965E+04  0.00000000000E+00 0. -1.
         21    1    1    2  503  502 -0.15429655223E+02 -0.14537862624E+03 -0.94975614867E+02  0.17433699162E+03  0.00000000000E+00 0. -1.
         21    1    1    2  504  501 -0.26897975448E+02  0.69462692288E+02  0.58228094583E+02  0.94546695880E+02  0.00000000000E+00 0. -1.
         21    1    1    2  505  503  0.31117747218E+02 -0.98086838826E+02 -0.21004887151E+02  0.10502641300E+03  0.00000000000E+00 0. -1.
         21    1    1    2  506  504  0.11209883452E+02  0.17400277277E+03 -0.99156105726E+03  0.10067750278E+04  0.00000000000E+00 0. -1.
<scales pt_clust_3="59.74378" pt_clust_4="74.48870" pt_clust_5="59.74378" pt_clust_6="180.14094"></scales>
<clustering>
<clus scale="   59.744">  3  5 -1 -1</clus>
<clus scale="   74.489">  1  4  2 -1</clus>
<clus scale="  180.141">  2  6  1 -1</clus>
<clus scale="   74.489">  1  3  2 -1</clus>
</clustering>
</event>
<event>
 6    0  0.5563122E+002  0.9985478E+02  0.7546771E-02  0.1280602E+00
         21   -1    0    0  504  501  0.00000000000E+00  0.00000000000E+00  0.43797828662E+03  0.43797828662E+03  0.00000000000E+00 0.  1.
         21   -1    0    0  506  502 -0.00000000000E+00 -0.00000000000E+00 -0.44627442673E+02  0.44627442673E+02  0.00000000000E+00 0.  1.
         21    1    1    2  503  505  0.39853529627E+02  0.50826023028E+02  0.52153143586E+02  0.83015292726E+02  0.00000000000E+00 0.  1.
         21    1    1    2  504  502 -0.37916110702E+02 -0.28114728798E+02  0.37502553336E+02  0.60286905153E+02  0.00000000000E+00 0.  1.
         21    1    1    2  505  501 -0.12382995088E+02 -0.83059219602E+02  0.22085495117E+03  0.23628178513E+03  0.00000000000E+00 0.  1.
         21    1    1    2  506  503  0.10445576163E+02  0.60347925372E+02  0.82840195856E+02  0.10302174628E+03  0.00000000000E+00 0.  1.
<scales pt_clust_3="37.67574" pt_clust_4="47.20243" pt_clust_5="92.05458" pt_clust_6="37.67574"></scales>
<clustering>
<clus scale="   37.676">  3  6 -1 -1</clus>
<clus scale="   47.202">  2  4  1 -1</clus>
<clus scale="   92.055">  1  5  2 -1</clus>
<clus scale="   92.055">  1  3  2 -1</clus>
</clustering>
</event>
<event>
 6    0  0.5563122E+002  0.1158424E+03  0.7546771E-02  0.1250118E+00
         21   -1    0    0  503  501  0.00000000000E+00  0.00000000000E+00  0.11704324729E+04  0.11704324729E+04  0.00000000000E+00 0. -1.
         21   -1    0    0  506  502 -0.00000000000E+00 -0.00000000000E+00 -0.13171920608E+04  0.13171920608E+04  0.00000000000E+00 0.  1.
         21    1    1    2  503  502 -0.12255047809E+03  0.18131329568E+00  0.33720415398E+03  0.35878307376E+03  0.00000000000E+00 0. -1.
         21    1    1    2  504  505  0.13341635473E+03 -0.30980532838E+02 -0.20569874027E+03  0.24712686797E+03  0.00000000000E+00 0.  1.
         21    1    1    2  505  501  0.18929472449E+02  0.49876244979E+02  0.80054703799E+03  0.80232258149E+03  0.00000000000E+00 0. -1.
         21    1    1    2  506  504 -0.29795349086E+02 -0.19077025437E+02 -0.10788120395E+04  0.10793920105E+04  0.00000000000E+00 0.  1.
<scales pt_clust_3="115.84241" pt_clust_4="14000.00000" pt_clust_5="53.24172" pt_clust_6="35.37931"></scales>
<clustering>
<clus scale="   35.379">  2  6  1 -1</clus>
<clus scale="   53.242">  1  5  2 -1</clus>
<clus scale="  115.842">  1  3  2 -1</clus>
<clus scale="   53.242">  1  3  2 -1</clus>
</clustering>
</event>
<event>
 6    0  0.5563122E+002  0.1224501E+03  0.7546771E-02  0.1239109E+00
         21   -1    0    0  505  501  0.00000000000E+00  0.00000000000E+00  0.65286426606E+03  0.65286426606E+03  0.00000000000E+00 0.  1.
         21   -1    0    0  506  502 -0.00000000000E+00 -0.00000000000E+00 -0.32514889220E+03  0.32514889220E+03  0.00000000000E+00 0.  1.
         21    1    1    2  503  502 -0.11544959213E+03 -0.22187859219E+02 -0.16999531169E+03  0.20668651484E+03  0.00000000000E+00 0.  1.
         21    1    1    2  504  501 -0.11463463561E+02 -0.10274394756E+03  0.54969847545E+03  0.55933544825E+03  0.00000000000E+00 0.  1.
         21    1    1    2  505  503  0.12983220849E+02  0.36644750685E+02  0.27284632096E+02  0.47495820080E+02  0.00000000000E+00 0.  1.
         21    1    1    2  506  504  0.11392983484E+03  0.88287056089E+02 -0.79272422001E+02  0.16449537510E+03  0.00000000000E+00 0.  1.
<scales pt_clust_3="122.45007" pt_clust_4="69.72892" pt_clust_5="38.87675" pt_clust_6="14000.00000"></scales>
<clustering>
<clus scale="   38.877">  1  5  2 -1</clus>
<clus scale="   69.729">  1  4  2 -1</clus>
<clus scale="  122.450">  2  3  1 -1</clus>
<clus scale="   38.877">  1  3  2 -1</clus>
</clustering>
</event>
<event>
 6    0  0.5563122E+002  0.8546162E+02  0.7546771E-02  0.1314230E+00
         21   -1    0    0  504  501  0.00000000000E+00  0.00000000000E+00  0.76266554429E+02  0.76266554429E+02  0.00000000000E+00 0. -1.
         21   -1    0    0  506  502 -0.00000000000E+00 -0.00000000000E+00 -0.14539378268E+04  0.14539378268E+04  0.00000000000E+00 0. -1.
         21    1    1    2  503  501 -0.19812713953E+02  0.37897403211E+02  0.53292246868E+01  0.43094749565E+02  0.00000000000E+00 0. -1.
         21    1    1    2  504  502  0.12822992284E+03 -0.40238828978E+02 -0.69472408972E+02  0.15128943148E+03  0.00000000000E+00 0. -1.
         21    1    1    2  505  503 -0.52655682947E+02  0.57586250043E+01 -0.56114531970E+02  0.77166206378E+02  0.00000000000E+00 0. -1.
         21    1    1    2  506  505 -0.55761525939E+02 -0.34171992374E+01 -0.12574135561E+04  0.12586539938E+04  0.00000000000E+00 0. -1.
<scales pt_clust_3="42.76397" pt_clust_4="85.46162" pt_clust_5="14000.00000" pt_clust_6="56.07607"></scales>
<clustering>
<clus scale="   42.764">  1  3  2 -1</clus>
<clus scale="   56.076">  2  6  1 -1</clus>
<clus scale="   85.462">  1  4  2 -1</clus>
<clus scale="   42.764">  1  3  2 -1</clus>
</clustering>
</event>
<event>
 6    0  0.8549891E+002  0.1092428E+03  0.7546771E-02  0.1261979E+00
         21   -1    0    0  504  501  0.00000000000E+00  0.00000000000E+00  0.38066771942E+03  0.38066771942E+03  0.00000000000E+00 0. -1.
         21   -1    0    0  503  502 -0.00000000000E+00 -0.00000000000E+00 -0.84808267096E+03  0.84808267096E+03  0.00000000000E+00 0.  1.
         21    1    1    2  503  506 -0.33666580751E+02 -0.10434226533E+03 -0.79036723015E+03  0.79793552715E+03  0.00000000000E+00 0.  1.
         21    1    1    2  504  502  0.52096943070E+02 -0.31861747376E+02 -0.26112138670E+01  0.61123488619E+02  0.00000000000E+00 0. -1.
         21    1    1    2  505  501 -0.23933708467E+01  0.31347309069E+02  0.21190003057E+03  0.21421952517E+03  0.00000000000E+00 0. -1.
         21    1    1    2  506  505 -0.16036991472E+02  0.10485670364E+03  0.11366346191E+03  0.15547184944E+03  0.00000000000E+00 0.  1.
<scales pt_clust_3="14000.00000" pt_clust_4="58.02734" pt_clust_5="31.43854" pt_clust_6="109.24282"></scales>
<clustering>
<clus scale="   31.439">  1  5  2 -1</clus>
<clus scale="   58.027">  1  4  2 -1</clus>
<clus scale="  109.243">  1  6  2 -1</clus>
<clus scale="   31.439">  1  3  2 -1</clus>
</clustering>
</event>
<event>
 6    0  0.5563122E+002  0.1381693E+03  0.7546771E-02  0.1215814E+00
         21   -1    0    0  505  501  0.00000000000E+00  0.00000000000E+00  0.15674351599E+04  0.15674351599E+04  0.00000000000E+00 0. -1.
         21   -1    0    0  506  502 -0.00000000000E+00 -0.00000000000E+00 -0.37669575764E+03  0.37669575764E+03  0.00000000000E+00 0.  1.
         21    1    1    2  503  504  0.59090231775E+02  0.96604499138E+02  0.15366246212E+02  0.11428125948E+03  0.00000000000E+00 0. -1.
         21    1    1    2  504  501 -0.15166222441E+02 -0.69528243389E+02  0.35883470564E+03  0.36582309509E+03  0.00000000000E+00 0. -1.
         21    1    1    2  505  502 -0.72447922945E+02 -0.48578299122E+02  0.11376225112E+04  0.11409616692E+04  0.00000000000E+00 0. -1.
         21    1    1    2  506  503  0.28523913611E+02  0.21502043374E+02 -0.32108406076E+03  0.32306489377E+03  0.00000000000E+00 0.  1.
<scales pt_clust_3="138.16927" pt_clust_4="69.44631" pt_clust_5="14000.00000" pt_clust_6="35.72046"></scales>
<clustering>
<clus scale="   35.720">  2  6  1 -1</clus>
<clus scale="   69.446">  1  4  2 -1</clus>
<clus scale="  138.169">  2  3  1 -1</clus>
<clus scale="   69.446">  1  3  2 -1</clus>
</clustering>
</event>
<event>
 6    0  0.5563122E+002  0.1216783E+03  0.7546771E-02  0.1240354E+00
         21   -1    0    0  506  501  0.00000000000E+00  0.00000000000E+00  0.10157173954E+04  0.10157173954E+04  0.00000000000E+00 0. -1.
         21   -1    0    0  503  502 -0.00000000000E+00 -0.00000000000E+00 -0.86375596316E+02  0.86375596316E+02  0.00000000000E+00 0. -1.
         21    1    1    2  503  504 -0.10277798365E+03  0.28208079020E+02 -0.32992261053E+02  0.11156835992E+03  0.00000000000E+00 0. -1.
         21    1    1    2  504  505  0.71895447254E+02 -0.61800918043E+02  0.83822748318E+03  0.84357194262E+03  0.00000000000E+00 0. -1.
         21    1    1    2  505  501  0.35801446404E+02 -0.73573631592E+01  0.69449582412E+02  0.78480053864E+02  0.00000000000E+00 0. -1.
         21    1    1    2  506  502 -0.49189100027E+01  0.40950202182E+02  0.54656994533E+02  0.68472635306E+02  0.00000000000E+00 0. -1.
<scales pt_clust_3="121.67830" pt_clust_4="14000.00000" pt_clust_5="36.54962" pt_clust_6="40.55129"></scales>
<clustering>
<clus scale="   36.550">  1  5  2 -1</clus>
<clus scale="   40.551">  2  6  1 -1</clus>
<clus scale="  121.678">  2  3  1 -1</clus>
<clus scale="   36.550">  1  3  2 -1</clus>
</clustering>
</event>
<event>
 6    0  0.5563122E+002  0.8682076E+02  0.7546771E-02  0.1310739E+00
         21   -1    0    0  503  501  0.00000000000E+00  0.00000000000E+00  0.14572301303E+03  0.14572301303E+03  0.00000000000E+00 0. -1.
         21   -1    0    0  506  502 -0.00000000000E+00 -0.00000000000E+00 -0.34230864197E+03  0.34230864197E+03  0.00000000000E+00 0.  1.
         21    1    1    2  503  504  0.14635152864E+02  0.40695677790E+02  0.96679332059E+02  0.10591137398E+03  0.00000000000E+00 0. -1.
         21    1    1    2  504  502  0.21397737422E+02 -0.97869562897E+02 -0.71664832940E+02  0.12317533352E+03  0.00000000000E+00 0.  1.
         21    1    1    2  505  501 -0.24645587516E+02  0.86681387605E+02 -0.10616607264E+03  0.13925624913E+03  0.00000000000E+00 0.  1.
         21    1    1    2  506  505 -0.11387302771E+02 -0.29507502498E+02 -0.11543405542E+03  0.11968869838E+03  0.00000000000E+00 0.  1.
<scales pt_clust_3="42.59783" pt_clust_4="86.82076" pt_clust_5="14000.00000" pt_clust_6="31.62852"></scales>
<clustering>
<clus scale="   31.629">  2  6  1 -1</clus>
<clus scale="   42.598">  1  3  2 -1</clus>
<clus scale="   86.821">  1  4  2 -1</clus>
<clus scale="   42.598">  1  3  2 -1</clus>
</clustering>
</event>
<event>
 6    0  0.5563122E+002  0.9460974E+02  0.7546771E-02  0.1292057E+00
         21   -1    0    0  503  501  0.00000000000E+00  0.00000000000E+00  0.10120313070E+04  0.10120313070E+04  0.00000000000E+00 0. -1.
         21   -1    0    0  506  502 -0.00000000000E+00 -0.00000000000E+00 -0.18437251590E+03  0.18437251590E+03  0.00000000000E+00 0. -1.
         21    1    1    2  503  504  0.21303451082E+02 -0.48114341106E+02  0.79845972432E+03  0.80019170092E+03  0.00000000000E+00 0. -1.
         21    1    1    2  504  505 -0.11894303366E+03  0.75974562990E+02  0.14997971865E+03  0.20594537014E+03  0.00000000000E+00 0. -1.
         21    1    1    2  505  502  0.30380589811E+02 -0.45307224876E+02 -0.10602072882E+03  0.11923137088E+03  0.00000000000E+00 0. -1.
         21    1    1    2  506  501  0.67258992770E+02  0.17447002992E+02 -0.14759923049E+02  0.71035380975E+02  0.00000000000E+00 0. -1.
<scales pt_clust_3="52.61964" pt_clust_4="14000.00000" pt_clust_5="56.16032" pt_clust_6="94.60974"></scales>
<clustering>
<clus scale="   52.620">  1  3  2 -1</clus>
<clus scale="   56.160">  2  5  1 -1</clus>
<clus scale="   94.610">  2  6  1 -1</clus>
<clus scale="   52.620">  1  3  2 -1</clus>
</clustering>
</event>
<event>
 6    0  0.5563122E+002  0.9433646E+02  0.7546771E-02  0.1292678E+00
         21   -1    0    0  504  501  0.00000000000E+00  0.00000000000E+00  0.47795246562E+03  0.47795246562E+03  0.00000000000E+00 0. -1.
         21   -1    0    0  503  502 -0.00000000000E+00 -0.00000000000E+00 -0.98974479309E+03  0.98974479309E+03  0.00000000000E+00 0.  1.
         21    1    1    2  503  501 -0.11838047340E+03  0.21150187717E+02 -0.18046045955E+02  0.12160150779E+03  0.00000000000E+00 0. -1.
         21    1    1    2  504  506  0.31456492487E+02  0.13349752375E+02  0.41515783492E+03  0.41656182579E+03  0.00000000000E+00 0. -1.
         21    1    1    2  505  502  0.29088716739E+02  0.29385207172E+02 -0.72778746326E+03  0.72896106585E+03  0.00000000000E+00 0.  1.
         21    1    1    2  506  505  0.57835264169E+02 -0.63885147264E+02 -0.18111665317E+03  0.20057285928E+03  0.00000000000E+00 0. -1.
<scales pt_clust_3="94.33646" pt_clust_4="34.17202" pt_clust_5="41.64682" pt_clust_6="14000.00000"></scales>
<clustering>
<clus scale="   34.172">  1  4  2 -1</clus>
<clus scale="   41.647">  2  5  1 -1</clus>
<clus scale="   94.336">  1  3  2 -1</clus>
<clus scale="   34.172">  1  3  2 -1</clus>
</clustering>
</event>
<event>
 6    0  0.5563122E+002  0.1405774E+03  0.7546771E-02  0.1212554E+00
         21   -1    0    0  505  501  0.00000000000E+00  0.00000000000E+00  0.39645080603E+02  0.39645080603E+02  0.00000000000E+00 0.  1.
         21   -1    0    0  506  502 -0.00000000000E+00 -0.00000000000E+00 -0.90362102333E+03  0.90362102333E+03  0.00000000000E+00 0.  1.
         21    1    1    2  503  501 -0.33257953806E+01  0.63985351626E+02 -0.75970997814E+02  0.99381983511E+02  0.00000000000E+00 0.  1.
         21    1    1    2  504  502  0.32014759243E+02 -0.92303684929E+02 -0.25461789066E+03  0.27271814261E+03  0.00000000000E+00 0.  1.
         21    1    1    2  505  504  0.49292425202E+02 -0.59420117109E+02 -0.13151848078E+03  0.15250444021E+03  0.00000000000E+00 0.  1.
         21    1    1    2  506  503 -0.77981389064E+02  0.87738450412E+02 -0.40186857347E+03  0.41866153760E+03  0.00000000000E+00 0.  1.
<scales pt_clust_3="64.07173" pt_clust_4="40.56164" pt_clust_5="40.56164" pt_clust_6="132.96625"></scales>
<clustering>
<clus scale="   40.562">  4  5 -1 -1</clus>
<clus scale="   64.072">  1  3  2 -1</clus>
<clus scale="  132.966">  2  6  1 -1</clus>
<clus scale="   64.072">  1  3  2 -1</clus>
</clustering>
</event>
<event>
 6    0  0.5563122E+002  0.1089014E+03  0.7546771E-02  0.1262618E+00
         21   -1    0    0  504  501  0.00000000000E+00  0.00000000000E+00  0.30988674198E+03  0.30988674198E+03  0.00000000000E+00 0. -1.
         21   -1    0    0  505  502 -0.00000000000E+00 -0.00000000000E+00 -0.13362174683E+03  0.13362174683E+03  0.00000000000E+00 0. -1.
         21    1    1    2  503  502  0.49793270723E+02 -0.95026330263E+02 -0.64954818119E+02  0.12541332325E+03  0.00000000000E+00 0. -1.
         21    1    1    2  504  506 -0.17873291711E+02 -0.27038833319E+02  0.25515019897E+02  0.41250082475E+02  0.00000000000E+00 0. -1.
         21    1    1    2  505  501 -0.68096672070E+02  0.10000457708E+03  0.19548234104E+03  0.22989436236E+03  0.00000000000E+00 0. -1.
         21    1    1    2  506  503  0.36176693059E+02  0.22060586505E+02  0.20222452328E+02  0.46950720716E+02  0.00000000000E+00 0.  1.
<scales pt_clust_3="108.90139" pt_clust_4="32.41224" pt_clust_5="14000.00000" pt_clust_6="38.84495"></scales>
<clustering>
<clus scale="   32.412">  1  4  2 -1</clus>
<clus scale="   38.845">  1  6  2 -1</clus>
<clus scale="  108.901">  2  3  1 -1</clus>
<clus scale="   32.412">  1  3  2 -1</clus>
</clustering>
</event>
<event>
 6    0  0.5563122E+002  0.1497972E+03  0.7546771E-02  0.1200722E+00
         21   -1    0    0  504  501  0.00000000000E+00  0.00000000000E+00  0.17844144206E+03  0.17844144206E+03  0.00000000000E+00 0. -1.
         21   -1    0    0  505  502 -0.00000000000E+00 -0.00000000000E+00 -0.39659541084E+03  0.39659541084E+03  0.00000000000E+00 0. -1.
         21    1    1    2  503  501  0.12097851714E+03 -0.10927085296E+02 -0.55162558331E+01  0.12159618366E+03  0.00000000000E+00 0. -1.
         21    1    1    2  504  506 -0.10212217950E+03  0.15092877611E+03 -0.31937904496E+02  0.18500936395E+03  0.00000000000E+00 0. -1.
         21    1    1    2  505  503  0.34046354553E+02 -0.14153705749E+03 -0.13193258056E+03  0.19646398834E+03  0.00000000000E+00 0. -1.
         21    1    1    2  506  502 -0.52902692195E+02  0.15353666709E+01 -0.48767227903E+02  0.71967316955E+02  0.00000000000E+00 0. -1.
<scales pt_clust_3="111.48706" pt_clust_4="149.79718" pt_clust_5="14000.00000" pt_clust_6="52.92497"></scales>
<clustering>
<clus scale="   52.925">  2  6  1 -1</clus>
<clus scale="  111.487">  1  3  2 -1</clus>
<clus scale="  149.797">  1  4  2 -1</clus>
<clus scale="  111.487">  1  3  2 -1</clus>
</clustering>
</event>
<event>
 6    0  0.5563122E+002  0.9523521E+02  0.7546771E-02  0.1290647E+00
         21   -1    0    0  504  501  0.00000000000E+00  0.00000000000E+00  0.20122878486E+03  0.20122878486E+03  0.00000000000E+00 0.  1.
         21   -1    0    0  506  502 -0.00000000000E+00 -0.00000000000E+00 -0.16887609854E+03  0.16887609854E+03  0.00000000000E+00 0.  1.
         21    1    1    2  503  501 -0.12076483256E+02  0.49909902183E+02  0.28781669477E+02  0.58866155655E+02  0.00000000000E+00 0.  1.
         21    1    1    2  504  505  0.57128535279E+01 -0.37809451443E+02  0.87412020600E+02  0.95409919082E+02  0.00000000000E+00 0.  1.
         21    1    1    2  505  502 -0.69283649059E+02  0.52989198330E+02 -0.27951457733E+01  0.87269078180E+02  0.00000000000E+00 0.  1.
         21    1    1    2  506  503  0.75647278787E+02 -0.65089649070E+02 -0.81045857990E+02  0.12855973048E+03  0.00000000000E+00 0.  1.
<scales pt_clust_3="36.17352" pt_clust_4="38.23861" pt_clust_5="14000.00000" pt_clust_6="95.23521"></scales>
<clustering>
<clus scale="   38.239">  1  4  2 -1</clus>
<clus scale="   36.174">  1  3  2 -1</clus>
<clus scale="   95.235">  2  6  1 -1</clus>
<clus scale="   38.239">  1  3  2 -1</clus>
</clustering>
</event>
<event>
 6    0  0.5563122E+002  0.1493254E+03  0.7546771E-02  0.1201304E+00
         21   -1    0    0  504  501  0.00000000000E+00  0.00000000000E+00  0.38073896754E+03  0.38073896754E+03  0.00000000000E+00 0. -1.
         21   -1    0    0  501  502 -0.00000000000E+00 -0.00000000000E+00 -0.39184086091E+03  0.39184086091E+03  0.00000000000E+00 0. -1.
         21    1    1    2  503  502  0.15262589074E+02  0.35060800605E+02 -0.15967087777E+03  0.16418585680E+03  0.00000000000E+00 0. -1.
         21    1    1    2  504  505 -0.14650093817E+03  0.26946740369E+02  0.30974989274E+03  0.34370575752E+03  0.00000000000E+00 0. -1.
         21    1    1    2  505  506  0.13560078269E+03 -0.96211646835E+02 -0.98782795601E+02  0.19339672686E+03  0.00000000000E+00 0. -1.
         21    1    1    2  506  503 -0.43624335951E+01  0.34204105861E+02 -0.62398112733E+02  0.71291487271E+02  0.00000000000E+00 0.  1.
<scales pt_clust_3="78.32588" pt_clust_4="149.32542" pt_clust_5="14000.00000" pt_clust_6="33.14760"></scales>
<clustering>
<clus scale="   33.148">  3  6 -1 -1</clus>
<clus scale="   78.326">  2  3  1 -1</clus>
<clus scale="  149.325">  1  4  2 -1</clus>
<clus scale="  149.325">  1  3  2 -1</clus>
</clustering>
</event>
<event>
 6    0  0.6763516E+002  0.8348684E+02  0.7546771E-02  0.1319438E+00
         21   -1    0    0  505  501  0.00000000000E+00  0.00000000000E+00  0.30679759719E+03  0.30679759719E+03  0.00000000000E+00 0. -1.
         21   -1    0    0  504  502 -0.00000000000E+00 -0.00000000000E+00 -0.99224460303E+03  0.99224460303E+03  0.00000000000E+00 0. -1.
         21    1    1    2  503  501 -0.12591095301E+02 -0.53121989662E+02  0.17141711532E+03  0.17990083071E+03  0.00000000000E+00 0. -1.
         21    1    1    2  504  506  0.60717867610E+02  0.57959205600E+02 -0.95574549919E+03  0.95942450885E+03  0.00000000000E+00 0. -1.
         21    1    1    2  505  502 -0.16512822627E+02  0.54341621815E+02  0.33004811952E+02  0.65688680795E+02  0.00000000000E+00 0.  1.
         21    1    1    2  506  503 -0.31613949682E+02 -0.59178837754E+02  0.65876566069E+02  0.94028179868E+02  0.00000000000E+00 0. -1.
<scales pt_clust_3="54.59379" pt_clust_4="83.48684" pt_clust_5="40.39385" pt_clust_6="14000.00000"></scales>
<clustering>
<clus scale="   54.594">  1  3  2 -1</clus>
<clus scale="   40.394">  1  5  2 -1</clus>
<clus scale="   83.487">  2  4  1 -1</clus>
<clus scale="   54.594">  1  3  2 -1</clus>
</clustering>
</event>
<event>
 6    0  0.5563122E+002  0.8198883E+02  0.7546771E-02  0.1323500E+00
         21   -1    0    0  503  501  0.00000000000E+00  0.00000000000E+00  0.16325285570E+04  0.16325285570E+04  0.00000000000E+00 0. -1.
         21   -1    0    0  504  502 -0.00000000000E+00 -0.00000000000E+00 -0.51010508690E+03  0.51010508690E+03  0.00000000000E+00 0.  1.
         21    1    1    2  503  506 -0.30118248307E+02  0.76285909908E+02  0.15724133939E+04  0.15745508979E+04  0.00000000000E+00 0. -1.
         21    1    1    2  504  501 -0.88480710050E+01 -0.80263770008E+02 -0.40907318680E+03  0.41696694509E+03  0.00000000000E+00 0.  1.
         21    1    1    2  505  502 -0.22493821790E+02 -0.21238905414E+02 -0.71556935496E+02  0.77958053718E+02  0.00000000000E+00 0.  1.
         21    1    1    2  506  505  0.61460141102E+02  0.25216765514E+02  0.30640198544E+02  0.73157747191E+02  0.00000000000E+00 0. -1.
<scales pt_clust_3="14000.00000" pt_clust_4="81.98883" pt_clust_5="30.93644" pt_clust_6="65.02456"></scales>
<clustering>
<clus scale="   30.936">  2  5  1 -1</clus>
<clus scale="   65.025">  2  6  1 -1</clus>
<clus scale="   81.989">  2  4  1 -1</clus>
<clus scale="   81.989">  1  3  2 -1</clus>
</clustering>
</event>
<event>
 6    0  0.5563122E+002  0.2553020E+03  0.7546771E-02  0.1109999E+00
         21   -1    0    0  502  501  0.00000000000E+00  0.00000000000E+00  0.57444546896E+03  0.57444546896E+03  0.00000000000E+00 0.  1.
         21   -1    0    0  505  502 -0.00000000000E+00 -0.00000000000E+00 -0.20767927966E+03  0.20767927966E+03  0.00000000000E+00 0.  1.
         21    1    1    2  503  506 -0.79422199062E+02  0.27666091622E+02  0.56423149649E+02  0.10127620720E+03  0.00000000000E+00 0.  1.
         21    1    1    2  504  503 -0.70431784501E+02  0.11298596802E+03  0.26320080825E+03  0.29495954079E+03  0.00000000000E+00 0.  1.
         21    1    1    2  505  504  0.18310057716E+03 -0.14712478688E+03 -0.84756937102E+02  0.24971035753E+03  0.00000000000E+00 0.  1.
         21    1    1    2  506  501 -0.33246593600E+02  0.64727272423E+01  0.13189916850E+03  0.13617864309E+03  0.00000000000E+00 0.  1.
<scales pt_clust_3="87.42433" pt_clust_4="87.42433" pt_clust_5="229.29245" pt_clust_6="33.87082"></scales>
<clustering>
<clus scale="   33.871">  1  6  2 -1</clus>
<clus scale="   87.424">  3  4 -1 -1</clus>
<clus scale="  229.292">  2  5  1 -1</clus>
<clus scale="   33.871">  1  3  2 -1</clus>
</clustering>
</event>
<event>
 6    0  0.5563122E+002  0.1151313E+03  0.7546771E-02  0.1251352E+00
         21   -1    0    0  506  501  0.00000000000E+00  0.00000000000E+00  0.21356625046E+04  0.21356625046E+04  0.00000000000E+00 0.  1.
         21   -1    0    0  503  502 -0.00000000000E+00 -0.00000000000E+00 -0.29620163844E+03  0.29620163844E+03  0.00000000000E+00 0.  1.
         21    1    1    2  503  504 -0.19893162201E+02  0.54449722853E+02 -0.25905288213E+01  0.58027761121E+02  0.00000000000E+00 0. -1.
         21    1    1    2  504  501  0.54684765786E+02  0.24498619560E+02  0.21466869865E+02  0.63650863869E+02  0.00000000000E+00 0. -1.
         21    1    1    2  505  502  0.80181667189E+02 -0.68975798771E+02 -0.23167886164E+03  0.25467990793E+03  0.00000000000E+00 0.  1.
         21    1    1    2  506  505 -0.11497327077E+03 -0.99725436413E+01  0.20522633868E+04  0.20555056102E+04  0.00000000000E+00 0.  1.
<scales pt_clust_3="57.96991" pt_clust_4="60.42180" pt_clust_5="115.13134" pt_clust_6="14000.00000"></scales>
<clustering>
<clus scale="   57.970">  2  3  1 -1</clus>
<clus scale="   60.422">  2  4  1 -1</clus>
<clus scale="  115.131">  2  5  1 -1</clus>
<clus scale="  115.131">  1  3  2 -1</clus>
</clustering>
</event>
<event>
 6    0  0.5563122E+002  0.9740044E+02  0.7546771E-02  0.1285859E+00
         21   -1    0    0  505  501  0.00000000000E+00  0.00000000000E+00  0.69633212877E+03  0.69633212877E+03  0.00000000000E+00 0. -1.
         21   -1    0    0  506  502 -0.00000000000E+00 -0.00000000000E+00 -0.57718274864E+02  0.57718274864E+02  0.00000000000E+00 0. -1.
         21    1    1    2  503  502  0.93815869021E+02 -0.10679913754E+02  0.19416948705E+02  0.96397591956E+02  0.00000000000E+00 0. -1.
         21    1    1    2  504  501 -0.85397373872E+02  0.83089613900E+02  0.31739221221E+03  0.33901978080E+03  0.00000000000E+00 0. -1.
         21    1    1    2  505  503  0.37156291642E+01 -0.36843624406E+02  0.25916461378E+03  0.26179678301E+03  0.00000000000E+00 0. -1.
         21    1    1    2  506  504 -0.12134124312E+02 -0.35566075740E+02  0.42640079210E+02  0.56836247866E+02  0.00000000000E+00 0. -1.
<scales pt_clust_3="97.40044" pt_clust_4="14000.00000" pt_clust_5="37.03051" pt_clust_6="41.45871"></scales>
<clustering>
<clus scale="   37.031">  1  5  2 -1</clus>
<clus scale="   41.459">  2  6  1 -1</clus>
<clus scale="   97.400">  2  3  1 -1</clus>
<clus scale="   37.031">  1  3  2 -1</clus>
</clustering>
</event>
<event>
 6    0  0.5563122E+002  0.1339366E+03  0.7546771E-02  0.1221729E+00
         21   -1    0    0  506  501  0.00000000000E+00  0.00000000000E+00  0.38413767981E+02  0.38413767981E+02  0.00000000000E+00 0. -1.
         21   -1    0    0  505  502 -0.00000000000E+00 -0.00000000000E+00 -0.22407249696E+04  0.22407249696E+04  0.00000000000E+00 0. -1.
         21    1    1    2  503  504  0.13286321827E+03 -0.64977534033E+02 -0.11068193851E+04  0.11166574523E+04  0.00000000000E+00 0. -1.
         21    1    1    2  504  502 -0.10089647762E+03  0.70877921477E+02 -0.94340261229E+03  0.95142643847E+03  0.00000000000E+00 0. -1.
         21    1    1    2  505  501  0.19093347873E+02 -0.37540747550E+02 -0.14449499420E+03  0.15050802971E+03  0.00000000000E+00 0. -1.
         21    1    1    2  506  503 -0.51060088524E+02  0.31640360105E+02 -0.75942100459E+01  0.60546817042E+02  0.00000000000E+00 0. -1.
<scales pt_clust_3="14000.00000" pt_clust_4="133.93661" pt_clust_5="42.11726" pt_clust_6="36.95546"></scales>
<clustering>
<clus scale="   42.117">  1  5  2 -1</clus>
<clus scale="   36.955">  1  6  2 -1</clus>
<clus scale="  133.937">  2  4  1 -1</clus>
<clus scale="   42.117">  1  3  2 -1</clus>
</clustering>
</event>
<event>
 6    0  0.5563122E+002  0.8831852E+02  0.7546771E-02  0.1306975E+00
         21   -1    0    0  505  501  0.00000000000E+00  0.00000000000E+00  0.11589565006E+03  0.11589565006E+03  0.00000000000E+00 0. -1.
         21   -1    0    0  503  502 -0.00000000000E+00 -0.00000000000E+00 -0.94481936988E+03  0.94481936988E+03  0.00000000000E+00 0. -1.
         21    1    1    2  503  501 -0.82125269575E+02 -0.14036727764E+02 -0.36129622808E+03  0.37077830850E+03  0.00000000000E+00 0. -1.
         21    1    1    2  504  502  0.96655104138E+02 -0.21134412485E+02 -0.37653456056E+03  0.38931625684E+03  0.00000000000E+00 0. -1.
         21    1    1    2  505  506 -0.60760768560E+02 -0.36699250540E+02  0.81470801099E+02  0.10805645477E+03  0.00000000000E+00 0. -1.
         21    1    1    2  506  504  0.46230933997E+02  0.71870390788E+02 -0.17256373229E+03  0.19256399983E+03  0.00000000000E+00 0. -1.
<scales pt_clust_3="14000.00000" pt_clust_4="88.31852" pt_clust_5="70.98384" pt_clust_6="57.23722"></scales>
<clustering>
<clus scale="   70.984">  1  5  2 -1</clus>
<clus scale="   57.237">  1  6  2 -1</clus>
<clus scale="   88.319">  1  4  2 -1</clus>
<clus scale="   70.984">  1  3  2 -1</clus>
</clustering>
</event>
<event>
 6    0  0.5846739E+002  0.1685804E+03  0.7546771E-02  0.1179336E+00
         21   -1    0    0  504  501  0.00000000000E+00  0.00000000000E+00  0.12780104804E+04  0.12780104804E+04  0.00000000000E+00 0.  1.
         21   -1    0    0  503  502 -0.00000000000E+00 -0.00000000000E+00 -0.23859223256E+03  0.23859223256E+03  0.00000000000E+00 0. -1.
         21    1    1    2  503  505  0.14461280397E+03  0.71916116577E+02 -0.20129405045E+03  0.25807767367E+03  0.00000000000E+00 0. -1.
         21    1    1    2  504  506 -0.42078453255E+02 -0.11924841376E+02  0.31499175248E+03  0.31801352519E+03  0.00000000000E+00 0.  1.
         21    1    1    2  505  501 -0.22610744767E+02 -0.31000116850E+02  0.66858419521E+03  0.66968431303E+03  0.00000000000E+00 0.  1.
         21    1    1    2  506  502 -0.79923605953E+02 -0.28991158351E+02  0.25713635060E+03  0.27082720109E+03  0.00000000000E+00 0.  1.
<scales pt_clust_3="159.92228" pt_clust_4="38.25073" pt_clust_5="38.36995" pt_clust_6="38.25073"></scales>
<clustering>
<clus scale="   38.251">  4  6 -1 -1</clus>
<clus scale="   38.370">  1  5  2 -1</clus>
<clus scale="  159.922">  2  3  1 -1</clus>
<clus scale="   38.370">  1  3  2 -1</clus>
</clustering>
</event>
<event>
 6    0  0.5563122E+002  0.9635231E+02  0.7546771E-02  0.1288159E+00
         21   -1    0    0  505  501  0.00000000000E+00  0.00000000000E+00  0.82075879138E+02  0.82075879138E+02  0.00000000000E+00 0. -1.
         21   -1    0    0  506  502 -0.00000000000E+00 -0.00000000000E+00 -0.63758743275E+03  0.63758743275E+03  0.00000000000E+00 0. -1.
         21    1    1    2  503  501  0.15098636050E+02  0.72927411487E+02 -0.16090246011E+01  0.74491376124E+02  0.00000000000E+00 0. -1.
         21    1    1    2  504  503  0.30667700988E+02  0.33213526103E+02 -0.20821110322E+02  0.49771124511E+02  0.00000000000E+00 0.  1.
         21    1    1    2  505  502  0.10700657351E+02 -0.74350177508E+02 -0.19309531727E+02  0.77558435896E+02  0.00000000000E+00 0. -1.
         21    1    1    2  506  504 -0.56466994389E+02 -0.31790760082E+02 -0.51377188696E+03  0.51784237536E+03  0.00000000000E+00 0. -1.
<scales pt_clust_3="30.94552" pt_clust_4="30.94552" pt_clust_5="87.78477" pt_clust_6="64.80103"></scales>
<clustering>
<clus scale="   30.946">  3  4 -1 -1</clus>
<clus scale="   64.801">  2  6  1 -1</clus>
<clus scale="   87.785">  1  5  2 -1</clus>
<clus scale="   87.785">  1  3  2 -1</clus>
</clustering>
</event>
<event>
 6    0  0.5563122E+002  0.2001306E+03  0.7546771E-02  0.1149629E+00
         21   -1    0    0  504  501  0.00000000000E+00  0.00000000000E+00  0.77421116244E+03  0.77421116244E+03  0.00000000000E+00 0.  1.
         21   -1    0    0  503  502 -0.00000000000E+00 -0.00000000000E+00 -0.34204549736E+03  0.34204549736E+03  0.00000000000E+00 0. -1.
         21    1    1    2  503  505 -0.12242652016E+03  0.13234446476E+03 -0.20555474438E+03  0.27341555027E+03  0.00000000000E+00 0. -1.
         21    1    1    2  504  502 -0.26980652534E+02 -0.21249995559E+02  0.86148921309E+01  0.35408110495E+02  0.00000000000E+00 0. -1.
         21    1    1    2  505  506  0.20719474977E+03 -0.26445297797E+03  0.36045166203E+03  0.49273770157E+03  0.00000000000E+00 0.  1.
         21    1    1    2  506  501 -0.57787577073E+02  0.15335850877E+03  0.26865385530E+03  0.31469529746E+03  0.00000000000E+00 0.  1.
<scales pt_clust_3="200.13059" pt_clust_4="34.34411" pt_clust_5="14000.00000" pt_clust_6="163.17446"></scales>
<clustering>
<clus scale="   34.344">  2  4  1 -1</clus>
<clus scale="  163.174">  1  6  2 -1</clus>
<clus scale="  200.131">  2  3  1 -1</clus>
<clus scale="  163.174">  1  3  2 -1</clus>
</clustering>
</event>
<event>
 6    0  0.5563122E+002  0.1240946E+03  0.7546771E-02  0.1236491E+00
         21   -1    0    0  505  501  0.00000000000E+00  0.00000000000E+00  0.18975359791E+03  0.18975359791E+03  0.00000000000E+00 0. -1.
         21   -1    0    0  501  502 -0.00000000000E+00 -0.00000000000E+00 -0.15748987741E+03  0.15748987741E+03  0.00000000000E+00 0. -1.
         21    1    1    2  503  504 -0.93728129555E+01  0.53010062166E+02  0.10707406181E+02  0.54886836861E+02  0.00000000000E+00 0. -1.
         21    1    1    2  504  502  0.37865423810E+02 -0.10400495369E+03 -0.88221612434E+02  0.14154106688E+03  0.00000000000E+00 0. -1.
         21    1    1    2  505  506 -0.31661694205E+02 -0.15483125551E+02  0.25881438029E+02  0.43726866927E+02  0.00000000000E+00 0. -1.
         21    1    1    2  506  503  0.31690833512E+01  0.66478017075E+02  0.83896488729E+02  0.10708870465E+03  0.00000000000E+00 0. -1.
<scales pt_clust_3="51.19402" pt_clust_4="111.48620" pt_clust_5="35.24472" pt_clust_6="51.19402"></scales>
<clustering>
<clus scale="   35.245">  1  5  2 -1</clus>
<clus scale="   51.194">  3  6 -1 -1</clus>
<clus scale="  111.486">  2  4  1 -1</clus>
<clus scale="   35.245">  1  3  2 -1</clus>
</clustering>
</event>
<event>
 6    0  0.5563122E+002  0.8319291E+02  0.7546771E-02  0.1320227E+00
         21   -1    0    0  505  501  0.00000000000E+00  0.00000000000E+00  0.29752510656E+03  0.29752510656E+03  0.00000000000E+00 0. -1.
         21   -1    0    0  504  502 -0.00000000000E+00 -0.00000000000E+00 -0.17844079100E+03  0.17844079100E+03  0.00000000000E+00 0. -1.
         21    1    1    2  503  502 -0.83895988045E+02 -0.19367053914E+02 -0.13680714253E+03  0.16164718938E+03  0.00000000000E+00 0. -1.
         21    1    1    2  504  506  0.66929469417E+02 -0.26324513096E+02  0.83900653402E+02  0.11050725545E+03  0.00000000000E+00 0. -1.
         21    1    1    2  505  503 -0.19687447486E+02 -0.23290955520E+02  0.38140594158E+02  0.48834097927E+02  0.00000000000E+00 0. -1.
         21    1    1    2  506  501  0.36653966115E+02  0.68982522529E+02  0.13385021052E+03  0.15497735481E+03  0.00000000000E+00 0. -1.
<scales pt_clust_3="83.19291" pt_clust_4="14000.00000" pt_clust_5="30.49695" pt_clust_6="61.28228"></scales>
<clustering>
<clus scale="   30.497">  1  5  2 -1</clus>
<clus scale="   61.282">  1  6  2 -1</clus>
<clus scale="   83.193">  2  3  1 -1</clus>
<clus scale="   30.497">  1  3  2 -1</clus>
</clustering>
</event>
<event>
 6    0  0.5563122E+002  0.8177094E+02  0.7546771E-02  0.1324100E+00
         21   -1    0    0  506  501  0.00000000000E+00  0.00000000000E+00  0.58807611358E+03  0.58807611358E+03  0.00000000000E+00 0.  1.
         21   -1    0    0  504  502 -0.00000000000E+00 -0.00000000000E+00 -0.32860835074E+03  0.32860835074E+03  0.00000000000E+00 0. -1.
         21    1    1    2  503  505  0.52297667623E+00 -0.11463531074E+03  0.18902928672E+03  0.22107374156E+03  0.00000000000E+00 0.  1.
         21    1    1    2  504  501  0.63860586945E+01  0.59889991430E+02  0.67508261927E+02  0.90470759075E+02  0.00000000000E+00 0.  1.
         21    1    1    2  505  502  0.39095478974E+02  0.18858889877E+02 -0.29671194419E+03  0.29987012527E+03  0.00000000000E+00 0. -1.
         21    1    1    2  506  503 -0.46004514345E+02  0.35886429430E+02  0.29964215839E+03  0.30526983841E+03  0.00000000000E+00 0.  1.
<scales pt_clust_3="14000.00000" pt_clust_4="81.77094" pt_clust_5="43.40638" pt_clust_6="56.67670"></scales>
<clustering>
<clus scale="   43.406">  2  5  1 -1</clus>
<clus scale="   56.677">  1  6  2 -1</clus>
<clus scale="   81.771">  2  4  1 -1</clus>
<clus scale="   56.677">  1  3  2 -1</clus>
</clustering>
</event>
<event>
 6    0  0.5563122E+002  0.6316938E+02  0.7546771E-02  0.1384993E+00
         21   -1    0    0  504  501  0.00000000000E+00  0.00000000000E+00  0.35461876017E+03  0.35461876017E+03  0.00000000000E+00 0.  1.
         21   -1    0    0  505  502 -0.00000000000E+00 -0.00000000000E+00 -0.16004609606E+03  0.16004609606E+03  0.00000000000E+00 0.  1.
         21    1    1    2  503  501  0.64097065117E+02  0.18591621908E+02  0.97521514789E+02  0.11817160407E+03  0.00000000000E+00 0.  1.
         21    1    1    2  504  506  0.25962933874E+01  0.35332393385E+02  0.44295358615E+02  0.56720345172E+02  0.00000000000E+00 0.  1.
         21    1    1    2  505  503 -0.54444709475E+02  0.31283659356E+02 -0.12632825038E+03  0.14107345809E+03  0.00000000000E+00 0.  1.
         21    1    1    2  506  502 -0.12248649030E+02 -0.85207674649E+02  0.17908404108E+03  0.19869944890E+03  0.00000000000E+00 0.  1.
<scales pt_clust_3="59.93732" pt_clust_4="35.42766" pt_clust_5="63.16938" pt_clust_6="14000.00000"></scales>
<clustering>
<clus scale="   35.428">  1  4  2 -1</clus>
<clus scale="   63.169">  2  5  1 -1</clus>
<clus scale="   59.937">  2  3  1 -1</clus>
<clus scale="   35.428">  1  3  2 -1</clus>
</clustering>
</event>
<event>
 6    0  0.5563122E+002  0.1176482E+03  0.7546771E-02  0.1247028E+00
         21   -1    0    0  505  501  0.00000000000E+00  0.00000000000E+00  0.20701714219E+03  0.20701714219E+03  0.00000000000E+00 0. -1.
         21   -1    0    0  506  502 -0.00000000000E+00 -0.00000000000E+00 -0.29434722215E+03  0.29434722215E+03  0.00000000000E+00 0.  1.
         21    1    1    2  503  501 -0.38998887365E+02  0.52056819069E+02  0.28450686088E+01  0.65106989200E+02  0.00000000000E+00 0. -1.
         21    1    1    2  504  502  0.43836735378E+02 -0.66911052526E+02 -0.16947363283E+03  0.18740346994E+03  0.00000000000E+00 0.  1.
         21    1    1    2  505  504  0.11208722814E+03  0.28059614813E+02  0.20639709986E+02  0.11737498168E+03  0.00000000000E+00 0.  1.
         21    1    1    2  506  503 -0.11692507615E+03 -0.13205381357E+02  0.58658774286E+02  0.13147892352E+03  0.00000000000E+00 0. -1.
<scales pt_clust_3="65.04480" pt_clust_4="76.62931" pt_clust_5="117.64816" pt_clust_6="14000.00000"></scales>
<clustering>
<clus scale="   65.045">  1  3  2 -1</clus>
<clus scale="   76.629">  2  4  1 -1</clus>
<clus scale="  117.648">  1  5  2 -1</clus>
<clus scale="   65.045">  1  3  2 -1</clus>
</clustering>
</event>
<event>
 6    0  0.5563122E+002  0.1661965E+03  0.7546771E-02  0.1181873E+00
         21   -1    0    0  504  501  0.00000000000E+00  0.00000000000E+00  0.24909540121E+03  0.24909540121E+03  0.00000000000E+00 0.  1.
         21   -1    0    0  503  502 -0.00000000000E+00 -0.00000000000E+00 -0.24864548140E+03  0.24864548140E+03  0.00000000000E+00 0.  1.
         21    1    1    2  503  505 -0.58014355515E+02  0.53066842513E+02 -0.63321995125E+02  0.10095261407E+03  0.00000000000E+00 0.  1.
         21    1    1    2  504  506  0.79206654299E+02 -0.12362458534E+03  0.14151075196E+03  0.20391671120E+03  0.00000000000E+00 0.  1.
         21    1    1    2  505  501 -0.69973209115E+02  0.76947380163E+02 -0.38177827741E+01  0.10407557241E+03  0.00000000000E+00 0.  1.
         21    1    1    2  506  502  0.48780910331E+02 -0.63896373313E+01 -0.73921054247E+02  0.88795984926E+02  0.00000000000E+00 0. -1.
<scales pt_clust_3="52.67174" pt_clust_4="152.89535" pt_clust_5="52.67174" pt_clust_6="49.19761"></scales>
<clustering>
<clus scale="   49.198">  2  6  1 -1</clus>
<clus scale="   52.672">  3  5 -1 -1</clus>
<clus scale="  152.895">  1  4  2 -1</clus>
<clus scale="  152.895">  1  3  2 -1</clus>
</clustering>
</event>
<event>
 6    0  0.5563122E+002  0.1926972E+03  0.7546771E-02  0.1156051E+00
         21   -1    0    0  503  501  0.00000000000E+00  0.00000000000E+00  0.17244122393E+04  0.17244122393E+04  0.00000000000E+00 0. -1.
         21   -1    0    0  504  502 -0.00000000000E+00 -0.00000000000E+00 -0.54487866630E+02  0.54487866630E+02  0.00000000000E+00 0. -1.
         21    1    1    2  503  506 -0.64317901742E+02 -0.13667207321E+03  0.90006435799E+03  0.91265102674E+03  0.00000000000E+00 0. -1.
         21    1    1    2  504  505  0.14876353430E+03  0.10577870007E+03  0.14524924798E+03  0.23327465907E+03  0.00000000000E+00 0. -1.
         21    1    1    2  505  501 -0.45013618703E+02  0.41594410954E+02  0.40198467247E+03  0.40663005028E+03  0.00000000000E+00 0. -1.
         21    1    1    2  506  502 -0.39432013857E+02 -0.10701037814E+02  0.22262609428E+03  0.22634436989E+03  0.00000000000E+00 0. -1.
<scales pt_clust_3="34.47458" pt_clust_4="180.93760" pt_clust_5="61.28883" pt_clust_6="34.47458"></scales>
<clustering>
<clus scale="   34.475">  3  6 -1 -1</clus>
<clus scale="   61.289">  1  5  2 -1</clus>
<clus scale="  180.938">  2  4  1 -1</clus>
<clus scale="   61.289">  1  3  2 -1</clus>
</clustering>
</event>
<event>
 6    0  0.5563122E+002  0.1239886E+03  0.7546771E-02  0.1236658E+00
         21   -1    0    0  506  501  0.00000000000E+00  0.00000000000E+00  0.71604327605E+03  0.71604327605E+03  0.00000000000E+00 0.  1.
         21   -1    0    0  503  502 -0.00000000000E+00 -0.00000000000E+00 -0.66231859534E+02  0.66231859534E+02  0.00000000000E+00 0.  1.
         21    1    1    2  503  504  0.55064073760E+01  0.11025079678E+03  0.67504398979E+01  0.11059442641E+03  0.00000000000E+00 0.  1.
         21    1    1    2  504  501 -0.18472712293E+02  0.31588638774E+02  0.69574982863E+02  0.78611458704E+02  0.00000000000E+00 0. -1.
         21    1    1    2  505  502 -0.11061235485E+02 -0.94035944911E+02  0.30716250427E+03  0.32142481842E+03  0.00000000000E+00 0.  1.
         21    1    1    2  506  505  0.24027540403E+02 -0.47803490645E+02  0.26632348949E+03  0.27164443206E+03  0.00000000000E+00 0.  1.
<scales pt_clust_3="113.20232" pt_clust_4="36.59349" pt_clust_5="34.71928" pt_clust_6="34.71928"></scales>
<clustering>
<clus scale="   36.593">  1  4  2 -1</clus>
<clus scale="   34.719">  5  6 -1 -1</clus>
<clus scale="  113.202">  2  3  1 -1</clus>
<clus scale="   36.593">  1  3  2 -1</clus>
</clustering>
</event>
<event>
 6    0  0.5563122E+002  0.1458883E+03  0.7546771E-02  0.1205618E+00
         21   -1    0    0  504  501  0.00000000000E+00  0.00000000000E+00  0.10277542568E+03  0.10277542568E+03  0.00000000000E+00 0. -1.
         21   -1    0    0  503  502 -0.00000000000E+00 -0.00000000000E+00 -0.62288808790E+03  0.62288808790E+03  0.00000000000E+00 0. -1.
         21    1    1    2  503  506 -0.13516617698E+02 -0.15618160757E+03 -0.15251876894E+03  0.21871755388E+03  0.00000000000E+00 0. -1.
         21    1    1    2  504  505  0.76189307069E+02  0.13408538952E+03 -0.15750989654E+03  0.22043835806E+03  0.00000000000E+00 0. -1.
         21    1    1    2  505  502  0.11685042166E+02  0.59579033145E+02 -0.19189862321E+03  0.20127414884E+03  0.00000000000E+00 0. -1.
         21    1    1    2  506  501 -0.74357731537E+02 -0.37482815094E+02 -0.18185373522E+02  0.85233452803E+02  0.00000000000E+00 0. -1.
<scales pt_clust_3="14000.00000" pt_clust_4="145.88833" pt_clust_5="60.71410" pt_clust_6="78.96659"></scales>
<clustering>
<clus scale="   60.714">  2  5  1 -1</clus>
<clus scale="   78.967">  1  6  2 -1</clus>
<clus scale="  145.888">  1  4  2 -1</clus>
<clus scale="   78.967">  1  3  2 -1</clus>
</clustering>
</event>
<event>
 6    0  0.5563122E+002  0.1931852E+03  0.7546771E-02  0.1155619E+00
         21   -1    0    0  505  501  0.00000000000E+00  0.00000000000E+00  0.10877662392E+03  0.10877662392E+03  0.00000000000E+00 0. -1.
         21   -1    0    0  503  502 -0.00000000000E+00 -0.00000000000E+00 -0.15396103384E+04  0.15396103384E+04  0.00000000000E+00 0. -1.
         21    1    1    2  503  504 -0.96477204745E+02  0.10631396497E+03 -0.96798399359E+03  0.97857218540E+03  0.00000000000E+00 0. -1.
         21    1    1    2  504  501 -0.78997128207E+01 -0.11264578408E+03 -0.15967700768E+03  0.19557153401E+03  0.00000000000E+00 0. -1.
         21    1    1    2  505  506  0.20870286045E+03  0.18615225319E+02 -0.74126005925E+02  0.22225677791E+03  0.00000000000E+00 0. -1.
         21    1    1    2  506  502 -0.10432594288E+03 -0.12283406209E+02 -0.22904670725E+03  0.25198646497E+03  0.00000000000E+00 0. -1.
<scales pt_clust_3="193.18521" pt_clust_4="116.45394" pt_clust_5="14000.00000" pt_clust_6="105.04658"></scales>
<clustering>
<clus scale="  105.047">  2  6  1 -1</clus>
<clus scale="  116.454">  1  4  2 -1</clus>
<clus scale="  193.185">  2  3  1 -1</clus>
<clus scale="  116.454">  1  3  2 -1</clus>
</clustering>
</event>
<event>
 6    0  0.5563122E+002  0.1077762E+03  0.7546771E-02  0.1264744E+00
         21   -1    0    0  505  501  0.00000000000E+00  0.00000000000E+00  0.88228615906E+02  0.88228615906E+02  0.00000000000E+00 0.  1.
         21   -1    0    0  504  502 -0.00000000000E+00 -0.00000000000E+00 -0.24596838931E+03  0.24596838931E+03  0.00000000000E+00 0.  1.
         21    1    1    2  503  501  0.58222814728E+02  0.57498755626E+02 -0.30705098185E+01  0.81886696624E+02  0.00000000000E+00 0.  1.
         21    1    1    2  504  503 -0.16166692834E+01  0.44062536426E+02 -0.51972333651E+01  0.44397432026E+02  0.00000000000E+00 0.  1.
         21    1    1    2  505  506 -0.99197673448E+00 -0.79282688493E+02 -0.56694259445E+02  0.97472907859E+02  0.00000000000E+00 0.  1.
         21    1    1    2  506  502 -0.55614168710E+02 -0.22278603559E+02 -0.92777770779E+02  0.11043996871E+03  0.00000000000E+00 0.  1.
<scales pt_clust_3="35.66295" pt_clust_4="35.66295" pt_clust_5="96.20467" pt_clust_6="59.91053"></scales>
<clustering>
<clus scale="   35.663">  3  4 -1 -1</clus>
<clus scale="   59.911">  2  6  1 -1</clus>
<clus scale="   96.205">  2  5  1 -1</clus>
<clus scale="  107.776">  1  3  2 -1</clus>
</clustering>
</event>
<event>
 6    0  0.5563122E+002  0.1369508E+03  0.7546771E-02  0.1217492E+00
         21   -1    0    0  506  501  0.00000000000E+00  0.00000000000E+00  0.20760553799E+04  0.20760553799E+04  0.00000000000E+00 0.  1.
         21   -1    0    0  503  502 -0.00000000000E+00 -0.00000000000E+00 -0.14567746754E+03  0.14567746754E+03  0.00000000000E+00 0.  1.
         21    1    1    2  503  504  0.21875164857E+02  0.66535744245E+02 -0.57788985506E+02  0.90802505172E+02  0.00000000000E+00 0.  1.
         21    1    1    2  504  501 -0.24215203160E+02  0.45676988365E+02 -0.13708459456E+02  0.53485373616E+02  0.00000000000E+00 0.  1.
         21    1    1    2  505  502  0.87462258579E+02 -0.19464875080E+02  0.20297459655E+02  0.91872274958E+02  0.00000000000E+00 0.  1.
         21    1    1    2  506  505 -0.85122220275E+02 -0.92747857530E+02  0.19815778976E+04  0.19855726937E+04  0.00000000000E+00 0.  1.
<scales pt_clust_3="47.91200" pt_clust_4="47.91200" pt_clust_5="89.60205" pt_clust_6="125.08235"></scales>
<clustering>
<clus scale="   47.912">  3  4 -1 -1</clus>
<clus scale="   89.602">  2  5  1 -1</clus>
<clus scale="  125.082">  1  6  2 -1</clus>
<clus scale="  125.082">  1  3  2 -1</clus>
</clustering>
</event>
<event>
 6    0  0.5563122E+002  0.8926020E+02  0.7546771E-02  0.1304653E+00
         21   -1    0    0  505  501  0.00000000000E+00  0.00000000000E+00  0.50302313621E+03  0.50302313621E+03  0.00000000000E+00 0. -1.
         21   -1    0    0  504  502 -0.00000000000E+00 -0.00000000000E+00 -0.12656778218E+03  0.12656778218E+03  0.00000000000E+00 0.  1.
         21    1    1    2  503  501  0.14794781841E+02  0.32379151521E+02  0.19869350527E+03  0.20185738544E+03  0.00000000000E+00 0. -1.
         21    1    1    2  504  506 -0.13355492118E+02  0.70807280624E+02 -0.29331221638E+02  0.77796919745E+02  0.00000000000E+00 0.  1.
         21    1    1    2  505  502  0.52988157222E+02  0.98218713367E+01 -0.43793925947E+02  0.69441499928E+02  0.00000000000E+00 0.  1.
         21    1    1    2  506  503 -0.54427446945E+02 -0.11300830348E+03  0.25088699635E+03  0.28049511328E+03  0.00000000000E+00 0. -1.
<scales pt_clust_3="35.59909" pt_clust_4="89.26020" pt_clust_5="54.77082" pt_clust_6="14000.00000"></scales>
<clustering>
<clus scale="   35.599">  1  3  2 -1</clus>
<clus scale="   54.771">  2  5  1 -1</clus>
<clus scale="   89.260">  2  4  1 -1</clus>
<clus scale="   35.599">  1  3  2 -1</clus>
</clustering>
</event>
<event>
 6    0  0.5563122E+002  0.1279030E+03  0.7546771E-02  0.1230601E+00
         21   -1    0    0  505  501  0.00000000000E+00  0.00000000000E+00  0.45381307218E+02  0.45381307218E+02  0.00000000000E+00 0. -1.
         21   -1    0    0  503  502 -0.00000000000E+00 -0.00000000000E+00 -0.96106158912E+03  0.96106158912E+03  0.00000000000E+00 0. -1.
         21    1    1    2  503  506  0.11861654178E+03  0.36127232170E+02 -0.76250157810E+03  0.77251777811E+03  0.00000000000E+00 0. -1.
         21    1    1    2  504  501 -0.46058641182E+02 -0.50178678615E+02 -0.44401642223E+02  0.81306851170E+02  0.00000000000E+00 0. -1.
         21    1    1    2  505  502 -0.27099565868E+02  0.41485516246E+02 -0.31013456930E+02  0.58457412183E+02  0.00000000000E+00 0. -1.
         21    1    1    2  506  504 -0.45458334734E+02 -0.27434069801E+02 -0.77763604644E+02  0.94160854870E+02  0.00000000000E+00 0. -1.
<scales pt_clust_3="122.03975" pt_clust_4="33.79893" pt_clust_5="49.55234" pt_clust_6="33.79893"></scales>
<clustering>
<clus scale="   33.799">  4  6 -1 -1</clus>
<clus scale="   49.552">  1  5  2 -1</clus>
<clus scale="  122.040">  2  3  1 -1</clus>
<clus scale="   49.552">  1  3  2 -1</clus>
</clustering>
</event>
<event>
 6    0  0.5563122E+002  0.8171239E+02  0.7546771E-02  0.1324261E+00
         21   -1    0    0  506  501  0.00000000000E+00  0.00000000000E+00  0.46513140831E+03  0.46513140831E+03  0.00000000000E+00 0. -1.
         21   -1    0    0  505  502 -0.00000000000E+00 -0.00000000000E+00 -0.28883586911E+03  0.28883586911E+03  0.00000000000E+00 0. -1.
         21    1    1    2  503  501 -0.13418474347E+02  0.34693222986E+02  0.49626122860E+01  0.37527359295E+02  0.00000000000E+00 0. -1.
         21    1    1    2  504  502 -0.96918403866E+02  0.63599266138E+01 -0.95384159952E+02  0.13613142049E+03  0.00000000000E+00 0. -1.
         21    1    1    2  505  503  0.35148345488E+02 -0.99789215964E+01 -0.15068507552E+03  0.15505153031E+03  0.00000000000E+00 0. -1.
         21    1    1    2  506  504  0.75188532725E+02 -0.31074228004E+02  0.41740216238E+03  0.42525696733E+03  0.00000000000E+00 0. -1.
<scales pt_clust_3="34.74110" pt_clust_4="14000.00000" pt_clust_5="36.53745" pt_clust_6="81.71239"></scales>
<clustering>
<clus scale="   36.537">  2  5  1 -1</clus>
<clus scale="   34.741">  2  3  1 -1</clus>
<clus scale="   81.712">  1  6  2 -1</clus>
<clus scale="   81.712">  1  3  2 -1</clus>
</clustering>
</event>
<event>
 6    0  0.5563122E+002  0.1156116E+03  0.7546771E-02  0.1250517E+00
         21   -1    0    0  503  501  0.00000000000E+00  0.00000000000E+00  0.22897364530E+03  0.22897364530E+03  0.00000000000E+00 0. -1.
         21   -1    0    0  506  502 -0.00000000000E+00 -0.00000000000E+00 -0.13373319308E+03  0.13373319308E+03  0.00000000000E+00 0. -1.
         21    1    1    2  503  505 -0.37325757335E+02  0.22954899404E+02  0.12410584857E+03  0.13161459348E+03  0.00000000000E+00 0. -1.
         21    1    1    2  504  501 -0.51181975717E+02 -0.34169606237E+02  0.82206306817E+01  0.62086515424E+02  0.00000000000E+00 0. -1.
         21    1    1    2  505  502  0.12442226839E+03  0.13001731394E+02 -0.13106126768E+02  0.12578440464E+03  0.00000000000E+00 0. -1.
         21    1    1    2  506  504 -0.35914535338E+02 -0.17870245608E+01 -0.23979900257E+02  0.43221324849E+02  0.00000000000E+00 0. -1.
<scales pt_clust_3="43.81940" pt_clust_4="33.86514" pt_clust_5="106.78636" pt_clust_6="33.86514"></scales>
<clustering>
<clus scale="   33.865">  4  6 -1 -1</clus>
<clus scale="   43.819">  1  3  2 -1</clus>
<clus scale="  106.786">  1  5  2 -1</clus>
<clus scale="   43.819">  1  3  2 -1</clus>
</clustering>
</event>
<event>
 6    0  0.5563122E+002  0.1657455E+03  0.7546771E-02  0.1182359E+00
         21   -1    0    0  504  501  0.00000000000E+00  0.00000000000E+00  0.79255303885E+03  0.79255303885E+03  0.00000000000E+00 0.  1.
         21   -1    0    0  503  502 -0.00000000000E+00 -0.00000000000E+00 -0.11913679180E+03  0.11913679180E+03  0.00000000000E+00 0.  1.
         21    1    1    2  503  501  0.11859285440E+03  0.12224146275E+03  0.25016080316E+03  0.30263454490E+03  0.00000000000E+00 0.  1.
         21    1    1    2  504  506 -0.10683002413E+03 -0.43623254990E+02  0.39906585614E+03  0.41541449176E+03  0.00000000000E+00 0.  1.
         21    1    1    2  505  502  0.57522316344E+01 -0.39779440948E+02 -0.75331465967E+02  0.85383381612E+02  0.00000000000E+00 0.  1.
         21    1    1    2  506  505 -0.17515061903E+02 -0.38838766813E+02  0.99521053724E+02  0.10825741238E+03  0.00000000000E+00 0.  1.
<scales pt_clust_3="155.20924" pt_clust_4="35.33523" pt_clust_5="40.19318" pt_clust_6="35.33523"></scales>
<clustering>
<clus scale="   35.335">  4  6 -1 -1</clus>
<clus scale="   40.193">  2  5  1 -1</clus>
<clus scale="  155.209">  2  3  1 -1</clus>
<clus scale="  165.746">  1  3  2 -1</clus>
</clustering>
</event>
<event>
 6    0  0.9965116E+002  0.7703991E+02  0.7546771E-02  0.1337668E+00
         21   -1    0    0  504  501  0.00000000000E+00  0.00000000000E+00  0.17079024831E+03  0.17079024831E+03  0.00000000000E+00 0. -1.
         21   -1    0    0  506  502 -0.00000000000E+00 -0.00000000000E+00 -0.15329175689E+04  0.15329175689E+04  0.00000000000E+00 0. -1.
         21    1    1    2  503  501 -0.94751603588E+02  0.75883551553E+02  0.80013796336E+02  0.14539046524E+03  0.00000000000E+00 0. -1.
         21    1    1    2  504  505  0.11883675144E+02 -0.35979887447E+02 -0.39517450902E+02  0.54748543007E+02  0.00000000000E+00 0.  1.
         21    1    1    2  505  502  0.38707599000E+02 -0.15295162390E+02 -0.14400608008E+04  0.14406621152E+04  0.00000000000E+00 0. -1.
         21    1    1    2  506  503  0.44160329443E+02 -0.24608501716E+02  0.37437134797E+02  0.62906693722E+02  0.00000000000E+00 0. -1.
<scales pt_clust_3="14000.00000" pt_clust_4="37.89161" pt_clust_5="41.66471" pt_clust_6="77.03991"></scales>
<clustering>
<clus scale="   37.892">  1  4  2 -1</clus>
<clus scale="   41.665">  2  5  1 -1</clus>
<clus scale="   77.040">  2  6  1 -1</clus>
<clus scale="   37.892">  1  3  2 -1</clus>
</clustering>
</event>
<event>
 6    0  0.5563122E+002  0.1398805E+03  0.7546771E-02  0.1213490E+00
         21   -1    0    0  506  501  0.00000000000E+00  0.00000000000E+00  0.43676406898E+02  0.43676406898E+02  0.00000000000E+00 0.  1.
         21   -1    0    0  501  502 -0.00000000000E+00 -0.00000000000E+00 -0.78884661553E+03  0.78884661553E+03  0.00000000000E+00 0.  1.
         21    1    1    2  503  502 -0.22105803853E+02 -0.83079487953E+02 -0.43305597435E+03  0.44150690233E+03  0.00000000000E+00 0.  1.
         21    1    1    2  504  505  0.26881883506E+02  0.11173782125E+03 -0.80901841277E+02  0.14054566618E+03  0.00000000000E+00 0.  1.
         21    1    1    2  505  503  0.22497878278E+02 -0.50499416545E+02 -0.18131021498E+03  0.18955141691E+03  0.00000000000E+00 0.  1.
         21    1    1    2  506  504 -0.27273957931E+02  0.21841083246E+02 -0.49902178027E+02  0.60919037012E+02  0.00000000000E+00 0. -1.
<scales pt_clust_3="42.56145" pt_clust_4="128.92345" pt_clust_5="42.56145" pt_clust_6="34.94140"></scales>
<clustering>
<clus scale="   34.941">  1  6  2 -1</clus>
<clus scale="   42.561">  3  5 -1 -1</clus>
<clus scale="  128.923">  1  4  2 -1</clus>
<clus scale="   34.941">  1  3  2 -1</clus>
</clustering>
</event>
<event>
 6    0  0.5563122E+002  0.1527504E+03  0.7546771E-02  0.1197133E+00
         21   -1    0    0  505  501  0.00000000000E+00  0.00000000000E+00  0.30505040565E+02  0.30505040565E+02  0.00000000000E+00 0. -1.
         21   -1    0    0  506  502 -0.00000000000E+00 -0.00000000000E+00 -0.14010635825E+04  0.14010635825E+04  0.00000000000E+00 0. -1.
         21    1    1    2  503  502 -0.32161671177E+02 -0.11100725542E+02 -0.31334413109E+03  0.31518588751E+03  0.00000000000E+00 0.  1.
         21    1    1    2  504  501  0.14942885256E+03 -0.79963832215E+02 -0.34097812240E+03  0.38077457425E+03  0.00000000000E+00 0. -1.
         21    1    1    2  505  503 -0.78082598439E+02  0.11473668334E+02 -0.32660478964E+03  0.33600480035E+03  0.00000000000E+00 0. -1.
         21    1    1    2  506  504 -0.39184582940E+02  0.79590889423E+02 -0.38963149877E+03  0.39960336092E+03  0.00000000000E+00 0. -1.
<scales pt_clust_3="31.90203" pt_clust_4="144.81691" pt_clust_5="31.90203" pt_clust_6="88.71382"></scales>
<clustering>
<clus scale="   31.902">  3  5 -1 -1</clus>
<clus scale="   88.714">  2  6  1 -1</clus>
<clus scale="  144.817">  1  4  2 -1</clus>
<clus scale="  144.817">  1  3  2 -1</clus>
</clustering>
</event>
<event>
 6    0  0.5563122E+002  0.1684328E+03  0.7546771E-02  0.1179492E+00
         21   -1    0    0  504  501  0.00000000000E+00  0.00000000000E+00  0.13360497862E+04  0.13360497862E+04  0.00000000000E+00 0.  1.
         21   -1    0    0  505  502 -0.00000000000E+00 -0.00000000000E+00 -0.66393404486E+03  0.66393404486E+03  0.00000000000E+00 0. -1.
         21    1    1    2  503  502 -0.28417140893E+02  0.29090291151E+02  0.45311210022E+01  0.40918333218E+02  0.00000000000E+00 0. -1.
         21    1    1    2  504  503 -0.97310009035E+02 -0.13806880853E+03  0.12942017838E+04  0.13051783368E+04  0.00000000000E+00 0.  1.
         21    1    1    2  505  506  0.53307008330E+02  0.10682209599E+02 -0.10580967262E+03  0.11895979808E+03  0.00000000000E+00 0. -1.
         21    1    1    2  506  501  0.72420141598E+02  0.98296307778E+02 -0.52080749088E+03  0.53492736291E+03  0.00000000000E+00 0. -1.
<scales pt_clust_3="40.66668" pt_clust_4="168.43280" pt_clust_5="50.85982" pt_clust_6="14000.00000"></scales>
<clustering>
<clus scale="   40.667">  2  3  1 -1</clus>
<clus scale="   50.860">  2  5  1 -1</clus>
<clus scale="  168.433">  1  4  2 -1</clus>
<clus scale="  168.433">  1  3  2 -1</clus>
</clustering>
</event>
<event>
 6    0  0.5563122E+002  0.8314465E+02  0.7546771E-02  0.1320357E+00
         21   -1    0    0  503  501  0.00000000000E+00  0.00000000000E+00  0.35956559106E+03  0.35956559106E+03  0.00000000000E+00 0.  1.
         21   -1    0    0  505  502 -0.00000000000E+00 -0.00000000000E+00 -0.28187122796E+03  0.28187122796E+03  0.00000000000E+00 0.  1.
         21    1    1    2  503  502  0.11496571496E+02  0.35243034899E+02  0.74795396527E+02  0.83478104954E+02  0.00000000000E+00 0. -1.
         21    1    1    2  504  501 -0.55907642569E+02 -0.98892054877E+02  0.23408440864E+03  0.26019379966E+03  0.00000000000E+00 0.  1.
         21    1    1    2  505  506  0.33984572018E+02 -0.35040460075E+02 -0.17921012197E+03  0.18573920640E+03  0.00000000000E+00 0.  1.
         21    1    1    2  506  504  0.10426499054E+02  0.98689480053E+02 -0.51975320091E+02  0.11202570801E+03  0.00000000000E+00 0.  1.
<scales pt_clust_3="37.07078" pt_clust_4="14000.00000" pt_clust_5="48.61394" pt_clust_6="83.14465"></scales>
<clustering>
<clus scale="   37.071">  1  3  2 -1</clus>
<clus scale="   48.614">  2  5  1 -1</clus>
<clus scale="   83.145">  2  6  1 -1</clus>
<clus scale="   37.071">  1  3  2 -1</clus>
</clustering>
</event>
<event>
 6    0  0.5563122E+002  0.1360916E+03  0.7546771E-02  0.1218687E+00
         21   -1    0    0  503  501  0.00000000000E+00  0.00000000000E+00  0.28135901446E+03  0.28135901446E+03  0.00000000000E+00 0.  1.
         21   -1    0    0  505  502 -0.00000000000E+00 -0.00000000000E+00 -0.11781640469E+04  0.11781640469E+04  0.00000000000E+00 0. -1.
         21    1    1    2  503  502 -0.47001820417E+02 -0.48902906032E+01 -0.19707718766E+02  0.51200393003E+02  0.00000000000E+00 0. -1.
         21    1    1    2  504  501 -0.20277000468E+02  0.27748774413E+02  0.17338185401E+03  0.17675525036E+03  0.00000000000E+00 0.  1.
         21    1    1    2  505  506 -0.59416370567E+01 -0.13687291552E+03 -0.10834786479E+04  0.10921059832E+04  0.00000000000E+00 0. -1.
         21    1    1    2  506  504  0.73220457942E+02  0.11401443171E+03  0.32999480237E+02  0.13946143479E+03  0.00000000000E+00 0. -1.
<scales pt_clust_3="50.01182" pt_clust_4="34.36788" pt_clust_5="136.09164" pt_clust_6="14000.00000"></scales>
<clustering>
<clus scale="   34.368">  1  4  2 -1</clus>
<clus scale="   50.012">  1  3  2 -1</clus>
<clus scale="  136.092">  2  5  1 -1</clus>
<clus scale="   34.368">  1  3  2 -1</clus>
</clustering>
</event>
<event>
 6    0  0.5563122E+002  0.7201611E+02  0.7546771E-02  0.1353368E+00
         21   -1    0    0  504  501  0.00000000000E+00  0.00000000000E+00  0.52755119448E+03  0.52755119448E+03  0.00000000000E+00 0.  1.
         21   -1    0    0  506  502 -0.00000000000E+00 -0.00000000000E+00 -0.44027231693E+02  0.44027231693E+02  0.00000000000E+00 0.  1.
         21    1    1    2  503  505 -0.44950960219E+01 -0.85554852807E+02  0.73866579367E+02  0.11311989336E+03  0.00000000000E+00 0.  1.
         21    1    1    2  504  502 -0.30882599733E+02  0.82660868177E+02  0.24318093440E+03  0.25869580775E+03  0.00000000000E+00 0.  1.
         21    1    1    2  505  501  0.45478937478E+02 -0.26360559182E+02  0.15963380862E+03  0.16806595636E+03  0.00000000000E+00 0.  1.
         21    1    1    2  506  503 -0.10101241724E+02  0.29254543812E+02  0.68426404058E+01  0.31696768695E+02  0.00000000000E+00 0. -1.
<scales pt_clust_3="14000.00000" pt_clust_4="72.01611" pt_clust_5="49.51669" pt_clust_6="30.94937"></scales>
<clustering>
<clus scale="   30.949">  2  6  1 -1</clus>
<clus scale="   49.517">  1  5  2 -1</clus>
<clus scale="   72.016">  1  4  2 -1</clus>
<clus scale="   49.517">  1  3  2 -1</clus>
</clustering>
</event>
<event>
 6    0  0.5563122E+002  0.1817385E+03  0.7546771E-02  0.1166131E+00
         21   -1    0    0  506  501  0.00000000000E+00  0.00000000000E+00  0.16013987163E+04  0.16013987163E+04  0.00000000000E+00 0. -1.
         21   -1    0    0  503  502 -0.00000000000E+00 -0.00000000000E+00 -0.21961333710E+03  0.21961333710E+03  0.00000000000E+00 0. -1.
         21    1    1    2  503  505 -0.90026585096E+02  0.89118374821E+02  0.38760282280E+02  0.13247350768E+03  0.00000000000E+00 0. -1.
         21    1    1    2  504  501 -0.10704620687E+03 -0.24765280718E+03  0.43939094338E+03  0.51561148594E+03  0.00000000000E+00 0. -1.
         21    1    1    2  505  504  0.91616316865E+02  0.91860839670E+02 -0.98601970943E+02  0.16295493872E+03  0.00000000000E+00 0. -1.
         21    1    1    2  506  502  0.10545647510E+03  0.66673592687E+02  0.10022361245E+04  0.10099721211E+04  0.00000000000E+00 0. -1.
<scales pt_clust_3="123.88355" pt_clust_4="181.73845" pt_clust_5="14000.00000" pt_clust_6="124.76552"></scales>
<clustering>
<clus scale="  124.766">  1  6  2 -1</clus>
<clus scale="  123.884">  2  3  1 -1</clus>
<clus scale="  181.738">  1  4  2 -1</clus>
<clus scale="  124.766">  1  3  2 -1</clus>
</clustering>
</event>
<event>
 6    0  0.5563122E+002  0.1995531E+03  0.7546771E-02  0.1150117E+00
         21   -1    0    0  506  501  0.00000000000E+00  0.00000000000E+00  0.70818180587E+02  0.70818180587E+02  0.00000000000E+00 0.  1.
         21   -1    0    0  505  502 -0.00000000000E+00 -0.00000000000E+00 -0.69072323668E+03  0.69072323668E+03  0.00000000000E+00 0.  1.
         21    1    1    2  503  501  0.57783400919E+02 -0.28125396906E+02 -0.47178977808E+02  0.79723367464E+02  0.00000000000E+00 0.  1.
         21    1    1    2  504  502 -0.18318219843E+03  0.74379899319E+02 -0.38069972913E+03  0.42897595620E+03  0.00000000000E+00 0.  1.
         21    1    1    2  505  503  0.12905667536E+03 -0.11608439187E+02 -0.15425724363E+03  0.20145887552E+03  0.00000000000E+00 0.  1.
         21    1    1    2  506  504 -0.36578778495E+01 -0.34646063226E+02 -0.37769105528E+02  0.51383218076E+02  0.00000000000E+00 0.  1.
<scales pt_clust_3="31.48604" pt_clust_4="194.48011" pt_clust_5="31.48604" pt_clust_6="34.83862"></scales>
<clustering>
<clus scale="   31.486">  3  5 -1 -1</clus>
<clus scale="   34.839">  1  6  2 -1</clus>
<clus scale="  194.480">  2  4  1 -1</clus>
<clus scale="   34.839">  1  3  2 -1</clus>
</clustering>
</event>
<event>
 6    0  0.5563122E+002  0.1167812E+03  0.7546771E-02  0.1248503E+00
         21   -1    0    0  505  501  0.00000000000E+00  0.00000000000E+00  0.35053450956E+04  0.35053450956E+04  0.00000000000E+00 0.  1.
         21   -1    0    0  503  502 -0.00000000000E+00 -0.00000000000E+00 -0.17337083625E+02  0.17337083625E+02  0.00000000000E+00 0.  1.
         21    1    1    2  503  504  0.75793959172E+02 -0.77260951903E+02  0.18470395951E+03  0.21407833051E+03  0.00000000000E+00 0.  1.
         21    1    1    2  504  501  0.23617198132E+02  0.49521497263E+02  0.49792978152E+03  0.50094332819E+03  0.00000000000E+00 0.  1.
         21    1    1    2  505  506 -0.37875715374E+02 -0.13435828207E+01  0.15318818890E+04  0.15323506442E+04  0.00000000000E+00 0.  1.
         21    1    1    2  506  502 -0.61535441930E+02  0.29083037461E+02  0.12734923819E+04  0.12753098763E+04  0.00000000000E+00 0.  1.
<scales pt_clust_3="107.03789" pt_clust_4="54.86484" pt_clust_5="34.84712" pt_clust_6="34.84712"></scales>
<clustering>
<clus scale="   34.847">  5  6 -1 -1</clus>
<clus scale="   54.865">  1  4  2 -1</clus>
<clus scale="  107.038">  2  3  1 -1</clus>
<clus scale="   54.865">  1  3  2 -1</clus>
</clustering>
</event>
<event>
 6    0  0.5563122E+002  0.7661200E+02  0.7546771E-02  0.1338951E+00
         21   -1    0    0  504  501  0.00000000000E+00  0.00000000000E+00  0.35157304520E+04  0.35157304520E+04  0.00000000000E+00 0. -1.
         21   -1    0    0  505  502 -0.00000000000E+00 -0.00000000000E+00 -0.11963018354E+02  0.11963018354E+02  0.00000000000E+00 0. -1.
         21    1    1    2  503  506  0.11409437216E+03 -0.32150208582E+02  0.72578132532E+03  0.73539764335E+03  0.00000000000E+00 0. -1.
         21    1    1    2  504  503 -0.43420362199E+02  0.34607368745E+01  0.23524198511E+04  0.23528230831E+04  0.00000000000E+00 0. -1.
         21    1    1    2  505  501 -0.30158853620E+02  0.37239325088E+02  0.95796142093E+02  0.10711313936E+03  0.00000000000E+00 0. -1.
         21    1    1    2  506  502 -0.40515156341E+02 -0.85498533808E+01  0.32977011519E+03  0.33235960458E+03  0.00000000000E+00 0. -1.
<scales pt_clust_3="76.61200" pt_clust_4="44.30904" pt_clust_5="14000.00000" pt_clust_6="41.40746"></scales>
<clustering>
<clus scale="   41.407">  2  6  1 -1</clus>
<clus scale="   44.309">  1  4  2 -1</clus>
<clus scale="   76.612">  1  3  2 -1</clus>
<clus scale="   44.309">  1  3  2 -1</clus>
</clustering>
</event>
<event>
 6    0  0.5563122E+002  0.9741155E+02  0.7546771E-02  0.1285835E+00
         21   -1    0    0  504  501  0.00000000000E+00  0.00000000000E+00  0.26158325263E+03  0.26158325263E+03  0.00000000000E+00 0. -1.
         21   -1    0    0  505  502 -0.00000000000E+00 -0.00000000000E+00 -0.13482555069E+03  0.13482555069E+03  0.00000000000E+00 0. -1.
         21    1    1    2  503  502 -0.34235607789E+02  0.72550787699E+02 -0.54530615486E+02  0.97001451854E+02  0.00000000000E+00 0. -1.
         21    1    1    2  504  503 -0.43691645498E+02  0.63178722602E+02  0.62692774791E+02  0.99150869320E+02  0.00000000000E+00 0. -1.
         21    1    1    2  505  506  0.47308354668E+02 -0.51244284772E+02  0.37364375619E+02  0.79121133135E+02  0.00000000000E+00 0. -1.
         21    1    1    2  506  501  0.30618898618E+02 -0.84485225530E+02  0.81231167019E+02  0.12113534901E+03  0.00000000000E+00 0. -1.
<scales pt_clust_3="89.14265" pt_clust_4="76.81478" pt_clust_5="34.60086" pt_clust_6="34.60086"></scales>
<clustering>
<clus scale="   34.601">  5  6 -1 -1</clus>
<clus scale="   76.815">  1  4  2 -1</clus>
<clus scale="   89.143">  2  3  1 -1</clus>
<clus scale="   76.815">  1  3  2 -1</clus>
</clustering>
</event>
<event>
 6    0  0.5563122E+002  0.2152941E+03  0.7546771E-02  0.1137441E+00
         21   -1    0    0  505  501  0.00000000000E+00  0.00000000000E+00  0.94363894272E+03  0.94363894272E+03  0.00000000000E+00 0. -1.
         21   -1    0    0  503  502 -0.00000000000E+00 -0.00000000000E+00 -0.41263359026E+03  0.41263359026E+03  0.00000000000E+00 0.  1.
         21    1    1    2  503  506  0.60718275989E+01  0.30795693034E+02 -0.33818890340E+03  0.33964242401E+03  0.00000000000E+00 0.  1.
         21    1    1    2  504  501 -0.42010667158E+02  0.79397864053E+02  0.39115233299E+03  0.40133410592E+03  0.00000000000E+00 0. -1.
         21    1    1    2  505  502  0.68900781318E+02 -0.22003871815E+03  0.16962411602E+03  0.28624586615E+03  0.00000000000E+00 0. -1.
         21    1    1    2  506  504 -0.32961941759E+02  0.10984516106E+03  0.30841780686E+03  0.32905013691E+03  0.00000000000E+00 0. -1.
<scales pt_clust_3="31.38856" pt_clust_4="45.04387" pt_clust_5="209.09954" pt_clust_6="45.04387"></scales>
<clustering>
<clus scale="   31.389">  2  3  1 -1</clus>
<clus scale="   45.044">  4  6 -1 -1</clus>
<clus scale="  209.100">  2  5  1 -1</clus>
<clus scale="  215.294">  1  3  2 -1</clus>
</clustering>
</event>
<event>
 6    0  0.5563122E+002  0.2027096E+03  0.7546771E-02  0.1147473E+00
         21   -1    0    0  504  501  0.00000000000E+00  0.00000000000E+00  0.78455301499E+02  0.78455301499E+02  0.00000000000E+00 0. -1.
         21   -1    0    0  501  502 -0.00000000000E+00 -0.00000000000E+00 -0.12364900027E+04  0.12364900027E+04  0.00000000000E+00 0. -1.
         21    1    1    2  503  502  0.76201640127E+02 -0.54620130542E+02 -0.63394631390E+03  0.64084161657E+03  0.00000000000E+00 0. -1.
         21    1    1    2  504  506 -0.50328390851E+02  0.44210761357E+02 -0.69867918154E+02  0.96793927147E+02  0.00000000000E+00 0.  1.
         21    1    1    2  505  503  0.63157486586E+02 -0.69506574183E+02 -0.44775493651E+03  0.45749810397E+03  0.00000000000E+00 0. -1.
         21    1    1    2  506  505 -0.89030735862E+02  0.79915943368E+02 -0.64655326732E+01  0.11981165655E+03  0.00000000000E+00 0. -1.
<scales pt_clust_3="37.96952" pt_clust_4="59.21785" pt_clust_5="190.45353" pt_clust_6="59.21785"></scales>
<clustering>
<clus scale="   37.970">  3  5 -1 -1</clus>
<clus scale="   59.218">  4  6 -1 -1</clus>
<clus scale="  190.454">  2  3  1 -1</clus>
<clus scale="  202.710">  1  3  2 -1</clus>
</clustering>
</event>
<event>
 6    0  0.5563122E+002  0.9260201E+02  0.7546771E-02  0.1296670E+00
         21   -1    0    0  506  501  0.00000000000E+00  0.00000000000E+00  0.71076949066E+03  0.71076949066E+03  0.00000000000E+00 0. -1.
         21   -1    0    0  504  502 -0.00000000000E+00 -0.00000000000E+00 -0.60408114304E+02  0.60408114304E+02  0.00000000000E+00 0. -1.
         21    1    1    2  503  501 -0.54204582866E+02 -0.25934182527E+02  0.35100198895E+03  0.35610829093E+03  0.00000000000E+00 0. -1.
         21    1    1    2  504  505  0.10240823849E+02 -0.36289426367E+02  0.22438491413E+02  0.43878045035E+02  0.00000000000E+00 0.  1.
         21    1    1    2  505  503  0.93733513998E+02  0.10748267320E+03  0.26766398122E+03  0.30328617431E+03  0.00000000000E+00 0. -1.
         21    1    1    2  506  502 -0.49769754981E+02 -0.45259064308E+02  0.92569147743E+01  0.67905094684E+02  0.00000000000E+00 0. -1.
<scales pt_clust_3="60.44952" pt_clust_4="37.70672" pt_clust_5="92.60201" pt_clust_6="14000.00000"></scales>
<clustering>
<clus scale="   37.707">  2  4  1 -1</clus>
<clus scale="   60.450">  1  3  2 -1</clus>
<clus scale="   92.602">  1  5  2 -1</clus>
<clus scale="   60.450">  1  3  2 -1</clus>
</clustering>
</event>
<event>
 6    0  0.5563122E+002  0.1805231E+03  0.7546771E-02  0.1167298E+00
         21   -1    0    0  503  501  0.00000000000E+00  0.00000000000E+00  0.13555447100E+04  0.13555447100E+04  0.00000000000E+00 0.  1.
         21   -1    0    0  504  502 -0.00000000000E+00 -0.00000000000E+00 -0.47123253595E+03  0.47123253595E+03  0.00000000000E+00 0. -1.
         21    1    1    2  503  506  0.20299642129E+02  0.95518936278E+02  0.12195145505E+04  0.12234180322E+04  0.00000000000E+00 0.  1.
         21    1    1    2  504  505  0.11859044538E+03  0.91050571584E+02 -0.47439157493E+02  0.15685781455E+03  0.00000000000E+00 0.  1.
         21    1    1    2  505  501 -0.10858848902E+03 -0.20856840215E+03 -0.10082101361E+03  0.25584588155E+03  0.00000000000E+00 0. -1.
         21    1    1    2  506  502 -0.30301598490E+02  0.21998894289E+02 -0.18694220541E+03  0.19065551758E+03  0.00000000000E+00 0. -1.
<scales pt_clust_3="97.75761" pt_clust_4="14000.00000" pt_clust_5="180.52315" pt_clust_6="37.44514"></scales>
<clustering>
<clus scale="   37.445">  2  6  1 -1</clus>
<clus scale="   97.758">  1  3  2 -1</clus>
<clus scale="  180.523">  1  5  2 -1</clus>
<clus scale="   97.758">  1  3  2 -1</clus>
</clustering>
</event>
<event>
 6    0  0.5563122E+002  0.1751852E+03  0.7546771E-02  0.1172546E+00
         21   -1    0    0  504  501  0.00000000000E+00  0.00000000000E+00  0.60383973599E+03  0.60383973599E+03  0.00000000000E+00 0.  1.
         21   -1    0    0  503  502 -0.00000000000E+00 -0.00000000000E+00 -0.13143352931E+03  0.13143352931E+03  0.00000000000E+00 0.  1.
         21    1    1    2  503  505 -0.12721632900E+03 -0.75494596937E+02  0.17033588794E+02  0.14890793020E+03  0.00000000000E+00 0.  1.
         21    1    1    2  504  506  0.76351395595E+02 -0.41481880893E+02  0.35541342954E+03  0.36588111177E+03  0.00000000000E+00 0.  1.
         21    1    1    2  505  501 -0.38231224815E+02 -0.88506166893E+01  0.37041644784E+02  0.53963352518E+02  0.00000000000E+00 0.  1.
         21    1    1    2  506  502  0.89096158218E+02  0.12582709452E+03  0.62917543564E+02  0.16652087080E+03  0.00000000000E+00 0.  1.
<scales pt_clust_3="31.52175" pt_clust_4="86.89236" pt_clust_5="31.52175" pt_clust_6="164.14695"></scales>
<clustering>
<clus scale="   31.522">  3  5 -1 -1</clus>
<clus scale="   86.892">  1  4  2 -1</clus>
<clus scale="  164.147">  2  6  1 -1</clus>
<clus scale="   86.892">  1  3  2 -1</clus>
</clustering>
</event>
<event>
 6    0  0.5563122E+002  0.3777586E+03  0.7546771E-02  0.1051765E+00
         21   -1    0    0  505  501  0.00000000000E+00  0.00000000000E+00  0.74935839364E+03  0.74935839364E+03  0.00000000000E+00 0.  1.
         21   -1    0    0  506  502 -0.00000000000E+00 -0.00000000000E+00 -0.42857240551E+03  0.42857240551E+03  0.00000000000E+00 0.  1.
         21    1    1    2  503  501 -0.21534928705E+03 -0.30988798512E+03  0.45055704767E+03  0.58771381808E+03  0.00000000000E+00 0.  1.
         21    1    1    2  504  503  0.12402313279E+03  0.15632509230E+03  0.63537411093E+02  0.20941889732E+03  0.00000000000E+00 0.  1.
         21    1    1    2  505  502 -0.27043452271E+02  0.30137790745E+02 -0.20540553797E+03  0.20935871075E+03  0.00000000000E+00 0. -1.
         21    1    1    2  506  504  0.11836960654E+03  0.12342510208E+03  0.12097067338E+02  0.17143937300E+03  0.00000000000E+00 0.  1.
<scales pt_clust_3="374.67793" pt_clust_4="44.49561" pt_clust_5="40.49240" pt_clust_6="44.49561"></scales>
<clustering>
<clus scale="   40.492">  2  5  1 -1</clus>
<clus scale="   44.496">  4  6 -1 -1</clus>
<clus scale="  374.678">  1  3  2 -1</clus>
<clus scale="  374.678">  1  3  2 -1</clus>
</clustering>
</event>
<event>
 6    0  0.5563122E+002  0.1204963E+03  0.7546771E-02  0.1242281E+00
         21   -1    0    0  506  501  0.00000000000E+00  0.00000000000E+00  0.60621552440E+02  0.60621552440E+02  0.00000000000E+00 0. -1.
         21   -1    0    0  505  502 -0.00000000000E+00 -0.00000000000E+00 -0.25384679903E+04  0.25384679903E+04  0.00000000000E+00 0.  1.
         21    1    1    2  503  501  0.79736040757E+02 -0.19206945037E+02 -0.49299444175E+02  0.95693145676E+02  0.00000000000E+00 0. -1.
         21    1    1    2  504  502 -0.10808255541E+03  0.35467343873E+02 -0.23699039322E+04  0.23726323818E+04  0.00000000000E+00 0.  1.
         21    1    1    2  505  503  0.65244423531E+02 -0.17315917943E+01 -0.69847047951E+01  0.65640073988E+02  0.00000000000E+00 0. -1.
         21    1    1    2  506  504 -0.36897908879E+02 -0.14528807042E+02 -0.51658356730E+02  0.65123941326E+02  0.00000000000E+00 0.  1.
<scales pt_clust_3="33.41076" pt_clust_4="114.52776" pt_clust_5="33.41076" pt_clust_6="39.65529"></scales>
<clustering>
<clus scale="   33.411">  3  5 -1 -1</clus>
<clus scale="   39.655">  1  6  2 -1</clus>
<clus scale="  114.528">  2  4  1 -1</clus>
<clus scale="   39.655">  1  3  2 -1</clus>
</clustering>
</event>
<event>
 6    0  0.5563122E+002  0.1521752E+03  0.7546771E-02  0.1197825E+00
         21   -1    0    0  503  501  0.00000000000E+00  0.00000000000E+00  0.28458900064E+03  0.28458900064E+03  0.00000000000E+00 0. -1.
         21   -1    0    0  501  502 -0.00000000000E+00 -0.00000000000E+00 -0.87449401066E+03  0.87449401066E+03  0.00000000000E+00 0.  1.
         21    1    1    2  503  506  0.28568137239E+02 -0.12334668680E+02  0.12969719960E+02  0.33711958599E+02  0.00000000000E+00 0. -1.
         21    1    1    2  504  502 -0.11896356537E+03 -0.62531541506E+02 -0.84024270310E+03  0.85092321844E+03  0.00000000000E+00 0.  1.
         21    1    1    2  505  504  0.57550940805E+02  0.56680022856E+01  0.13263413146E+03  0.14469295030E+03  0.00000000000E+00 0. -1.
         21    1    1    2  506  505  0.32844487327E+02  0.69198207900E+02  0.10473384166E+03  0.12975488396E+03  0.00000000000E+00 0. -1.
<scales pt_clust_3="31.11724" pt_clust_4="133.99820" pt_clust_5="69.48481" pt_clust_6="69.48481"></scales>
<clustering>
<clus scale="   31.117">  1  3  2 -1</clus>
<clus scale="   69.485">  5  6 -1 -1</clus>
<clus scale="  133.998">  2  4  1 -1</clus>
<clus scale="   31.117">  1  3  2 -1</clus>
</clustering>
</event>
<event>
 6    0  0.5563122E+002  0.5663275E+02  0.7546771E-02  0.1412532E+00
         21   -1    0    0  504  501  0.00000000000E+00  0.00000000000E+00  0.11919555415E+04  0.11919555415E+04  0.00000000000E+00 0.  1.
         21   -1    0    0  503  502 -0.00000000000E+00 -0.00000000000E+00 -0.10893909609E+03  0.10893909609E+03  0.00000000000E+00 0. -1.
         21    1    1    2  503  506 -0.88324617299E+02  0.48918472415E+02  0.39949245115E+03  0.41205396915E+03  0.00000000000E+00 0. -1.
         21    1    1    2  504  502  0.49988207592E+02 -0.24714682511E+02 -0.89579503652E+02  0.10551835814E+03  0.00000000000E+00 0. -1.
         21    1    1    2  505  501 -0.80103754159E+01 -0.49282568496E+02  0.15206736076E+03  0.16005442787E+03  0.00000000000E+00 0. -1.
         21    1    1    2  506  505  0.46346785123E+02  0.25078778592E+02  0.62103613713E+03  0.62326788242E+03  0.00000000000E+00 0.  1.
<scales pt_clust_3="56.63275" pt_clust_4="14000.00000" pt_clust_5="49.92933" pt_clust_6="41.78102"></scales>
<clustering>
<clus scale="   49.929">  1  5  2 -1</clus>
<clus scale="   41.781">  1  6  2 -1</clus>
<clus scale="   56.633">  1  3  2 -1</clus>
<clus scale="   49.929">  1  3  2 -1</clus>
</clustering>
</event>
<event>
 6    0  0.5563122E+002  0.1917541E+03  0.7546771E-02  0.1156889E+00
         21   -1    0    0  504  501  0.00000000000E+00  0.00000000000E+00  0.25757761717E+03  0.25757761717E+03  0.00000000000E+00 0. -1.
         21   -1    0    0  505  502 -0.00000000000E+00 -0.00000000000E+00 -0.14598217289E+04  0.14598217289E+04  0.00000000000E+00 0. -1.
         21    1    1    2  503  506  0.48663363395E+02 -0.12365376767E+03 -0.17452118909E+03  0.21935364742E+03  0.00000000000E+00 0.  1.
         21    1    1    2  504  503 -0.83471087993E+02 -0.14273347809E+02  0.21261782517E+03  0.22886129111E+03  0.00000000000E+00 0. -1.
         21    1    1    2  505  501 -0.47770712347E+01  0.18628355324E+03 -0.10984158889E+04  0.11141103391E+04  0.00000000000E+00 0. -1.
         21    1    1    2  506  502  0.39584795833E+02 -0.48356437760E+02 -0.14192485884E+03  0.15507406840E+03  0.00000000000E+00 0. -1.
<scales pt_clust_3="35.51953" pt_clust_4="84.68265" pt_clust_5="184.62633" pt_clust_6="35.51953"></scales>
<clustering>
<clus scale="   35.520">  3  6 -1 -1</clus>
<clus scale="   84.683">  1  4  2 -1</clus>
<clus scale="  184.626">  2  5  1 -1</clus>
<clus scale="   84.683">  1  3  2 -1</clus>
</clustering>
</event>
<event>
 6    0  0.5563122E+002  0.1324452E+03  0.7546771E-02  0.1223872E+00
         21   -1    0    0  503  501  0.00000000000E+00  0.00000000000E+00  0.57069628464E+03  0.57069628464E+03  0.00000000000E+00 0. -1.
         21   -1    0    0  504  502 -0.00000000000E+00 -0.00000000000E+00 -0.18327861239E+04  0.18327861239E+04  0.00000000000E+00 0.  1.
         21    1    1    2  503  506 -0.56369300161E+02 -0.15160196616E+01  0.53917593199E+03  0.54211666821E+03  0.00000000000E+00 0. -1.
         21    1    1    2  504  501 -0.87977936266E+02  0.78205029931E+02 -0.15626113563E+04  0.15670387343E+04  0.00000000000E+00 0.  1.
         21    1    1    2  505  502  0.54025521550E+02 -0.59293547551E+02 -0.11505816383E+03  0.14025998297E+03  0.00000000000E+00 0. -1.
         21    1    1    2  506  505  0.90321714878E+02 -0.17395462719E+02 -0.12359625108E+03  0.15406702302E+03  0.00000000000E+00 0. -1.
<scales pt_clust_3="56.38968" pt_clust_4="120.77499" pt_clust_5="50.76519" pt_clust_6="50.76519"></scales>
<clustering>
<clus scale="   50.765">  5  6 -1 -1</clus>
<clus scale="   56.390">  1  3  2 -1</clus>
<clus scale="  120.775">  2  4  1 -1</clus>
<clus scale="   56.390">  1  3  2 -1</clus>
</clustering>
</event>
<event>
 6    0  0.5563122E+002  0.9485495E+02  0.7546771E-02  0.1291503E+00
         21   -1    0    0  505  501  0.00000000000E+00  0.00000000000E+00  0.10106664777E+04  0.10106664777E+04  0.00000000000E+00 0. -1.
         21   -1    0    0  503  502 -0.00000000000E+00 -0.00000000000E+00 -0.40813242931E+03  0.40813242931E+03  0.00000000000E+00 0.  1.
         21    1    1    2  503  506  0.43440544339E+02 -0.80467369276E+02 -0.23735044752E+03  0.25435666563E+03  0.00000000000E+00 0.  1.
         21    1    1    2  504  501 -0.57719607130E+02 -0.75510258138E+02  0.94156414819E+03  0.94634898282E+03  0.00000000000E+00 0. -1.
         21    1    1    2  505  502  0.68315729903E+01  0.56514317847E+02  0.20380118943E+02  0.60463937677E+02  0.00000000000E+00 0. -1.
         21    1    1    2  506  504  0.74474898005E+01  0.99463309567E+02 -0.12205977122E+03  0.15762932089E+03  0.00000000000E+00 0. -1.
<scales pt_clust_3="65.39760" pt_clust_4="94.85495" pt_clust_5="56.92573" pt_clust_6="14000.00000"></scales>
<clustering>
<clus scale="   56.926">  2  5  1 -1</clus>
<clus scale="   65.398">  2  3  1 -1</clus>
<clus scale="   94.855">  1  4  2 -1</clus>
<clus scale="   94.855">  1  3  2 -1</clus>
</clustering>
</event>
<event>
 6    0  0.5563122E+002  0.1582227E+03  0.7546771E-02  0.1190718E+00
         21   -1    0    0  503  501  0.00000000000E+00  0.00000000000E+00  0.31277147360E+02  0.31277147360E+02  0.00000000000E+00 0. -1.
         21   -1    0    0  504  502 -0.00000000000E+00 -0.00000000000E+00 -0.16471971645E+04  0.16471971645E+04  0.00000000000E+00 0. -1.
         21    1    1    2  503  506 -0.17601131449E+02  0.34344707142E+02 -0.84812970799E+02  0.93180463364E+02  0.00000000000E+00 0.  1.
         21    1    1    2  504  505  0.16095207660E+02 -0.34428972719E+02 -0.36695282140E+03  0.36891568550E+03  0.00000000000E+00 0. -1.
         21    1    1    2  505  501  0.16492750901E+03 -0.70566100985E+01 -0.36412579176E+03  0.39979803801E+03  0.00000000000E+00 0. -1.
         21    1    1    2  506  502 -0.16342158522E+03  0.71408756755E+01 -0.80002843318E+03  0.81658012498E+03  0.00000000000E+00 0. -1.
<scales pt_clust_3="35.95009" pt_clust_4="38.00539" pt_clust_5="158.22270" pt_clust_6="14000.00000"></scales>
<clustering>
<clus scale="   38.005">  2  4  1 -1</clus>
<clus scale="   35.950">  1  3  2 -1</clus>
<clus scale="  158.223">  1  5  2 -1</clus>
<clus scale="   35.950">  1  3  2 -1</clus>
</clustering>
</event>
<event>
 6    0  0.5563122E+002  0.1903423E+03  0.7546771E-02  0.1158153E+00
         21   -1    0    0  506  501  0.00000000000E+00  0.00000000000E+00  0.44859136945E+03  0.44859136945E+03  0.00000000000E+00 0. -1.
         21   -1    0    0  505  502 -0.00000000000E+00 -0.00000000000E+00 -0.72351287506E+03  0.72351287506E+03  0.00000000000E+00 0. -1.
         21    1    1    2  503  501 -0.89486802155E+02 -0.93436776284E+00  0.16903903032E+03  0.19126671057E+03  0.00000000000E+00 0. -1.
         21    1    1    2  504  502  0.40341861029E+02 -0.13135626087E+02 -0.60292132534E+03  0.60441222272E+03  0.00000000000E+00 0. -1.
         21    1    1    2  505  503 -0.10056519525E+03  0.43515823771E+02  0.19129739608E+03  0.22045788523E+03  0.00000000000E+00 0. -1.
         21    1    1    2  506  504  0.14971013638E+03 -0.29445829922E+02 -0.32336606665E+02  0.15596742597E+03  0.00000000000E+00 0. -1.
<scales pt_clust_3="37.71721" pt_clust_4="42.42653" pt_clust_5="37.71721" pt_clust_6="185.71034"></scales>
<clustering>
<clus scale="   37.717">  3  5 -1 -1</clus>
<clus scale="   42.427">  2  4  1 -1</clus>
<clus scale="  185.710">  2  6  1 -1</clus>
<clus scale="  190.342">  1  3  2 -1</clus>
</clustering>
</event>
<event>
 6    0  0.5563122E+002  0.1089342E+03  0.7546771E-02  0.1262556E+00
         21   -1    0    0  506  501  0.00000000000E+00  0.00000000000E+00  0.99238399009E+03  0.99238399009E+03  0.00000000000E+00 0.  1.
         21   -1    0    0  505  502 -0.00000000000E+00 -0.00000000000E+00 -0.17316898973E+03  0.17316898973E+03  0.00000000000E+00 0. -1.
         21    1    1    2  503  502  0.36965987293E+02 -0.29168906747E+02  0.37634108194E+02  0.60279643636E+02  0.00000000000E+00 0. -1.
         21    1    1    2  504  501 -0.85096522385E+02  0.10316209853E+02  0.17777599680E+03  0.19736298373E+03  0.00000000000E+00 0. -1.
         21    1    1    2  505  504 -0.71218653838E+02 -0.11883294480E+02 -0.13810132637E+03  0.15583736935E+03  0.00000000000E+00 0. -1.
         21    1    1    2  506  503  0.11934918893E+03  0.30735991373E+02  0.74190622173E+03  0.75207298310E+03  0.00000000000E+00 0.  1.
<scales pt_clust_3="47.08831" pt_clust_4="108.93419" pt_clust_5="53.75778" pt_clust_6="14000.00000"></scales>
<clustering>
<clus scale="   47.088">  2  3  1 -1</clus>
<clus scale="   53.758">  2  5  1 -1</clus>
<clus scale="  108.934">  2  4  1 -1</clus>
<clus scale="  108.934">  1  3  2 -1</clus>
</clustering>
</event>
<event>
 6    0  0.5563122E+002  0.9246966E+02  0.7546771E-02  0.1296979E+00
         21   -1    0    0  506  501  0.00000000000E+00  0.00000000000E+00  0.31223235975E+03  0.31223235975E+03  0.00000000000E+00 0. -1.
         21   -1    0    0  505  502 -0.00000000000E+00 -0.00000000000E+00 -0.10333634257E+03  0.10333634257E+03  0.00000000000E+00 0. -1.
         21    1    1    2  503  501  0.32834800646E+02  0.19621443696E+02  0.88908689460E+02  0.96787810429E+02  0.00000000000E+00 0. -1.
         21    1    1    2  504  502  0.14301188679E+02 -0.39419157493E+02 -0.47786002164E+02  0.63575907213E+02  0.00000000000E+00 0. -1.
         21    1    1    2  505  503  0.80412875446E+01  0.91151273359E+02  0.12620719304E+03  0.15588929570E+03  0.00000000000E+00 0. -1.
         21    1    1    2  506  504 -0.55177276870E+02 -0.71353559562E+02  0.41566136842E+02  0.99315688976E+02  0.00000000000E+00 0.  1.
<scales pt_clust_3="38.25082" pt_clust_4="41.69433" pt_clust_5="92.46966" pt_clust_6="14000.00000"></scales>
<clustering>
<clus scale="   38.251">  1  3  2 -1</clus>
<clus scale="   41.694">  2  4  1 -1</clus>
<clus scale="   92.470">  1  5  2 -1</clus>
<clus scale="   38.251">  1  3  2 -1</clus>
</clustering>
</event>
<event>
 6    0  0.5563122E+002  0.2022048E+03  0.7546771E-02  0.1147892E+00
         21   -1    0    0  505  501  0.00000000000E+00  0.00000000000E+00  0.90110681989E+02  0.90110681989E+02  0.00000000000E+00 0.  1.
         21   -1    0    0  504  502 -0.00000000000E+00 -0.00000000000E+00 -0.15608582801E+04  0.15608582801E+04  0.00000000000E+00 0.  1.
         21    1    1    2  503  502  0.34965110965E+02  0.48508299038E+00 -0.22036017846E+03  0.22311746355E+03  0.00000000000E+00 0.  1.
         21    1    1    2  504  501 -0.17689675079E+03  0.11694539123E+03 -0.90148592625E+03  0.92609155066E+03  0.00000000000E+00 0.  1.
         21    1    1    2  505  506 -0.20635887073E+02  0.31675669751E+02  0.39758241994E+02  0.54862607447E+02  0.00000000000E+00 0.  1.
         21    1    1    2  506  503  0.16256752690E+03 -0.14910614397E+03 -0.38865973543E+03  0.44689734047E+03  0.00000000000E+00 0.  1.
<scales pt_clust_3="34.96848" pt_clust_4="202.20477" pt_clust_5="37.69962" pt_clust_6="14000.00000"></scales>
<clustering>
<clus scale="   34.968">  2  3  1 -1</clus>
<clus scale="   37.700">  1  5  2 -1</clus>
<clus scale="  202.205">  2  4  1 -1</clus>
<clus scale="   37.700">  1  3  2 -1</clus>
</clustering>
</event>
<event>
 6    0  0.7190113E+002  0.1070365E+03  0.7546771E-02  0.1266158E+00
         21   -1    0    0  505  501  0.00000000000E+00  0.00000000000E+00  0.27324088972E+03  0.27324088972E+03  0.00000000000E+00 0. -1.
         21   -1    0    0  504  502 -0.00000000000E+00 -0.00000000000E+00 -0.13451621038E+04  0.13451621038E+04  0.00000000000E+00 0. -1.
         21    1    1    2  503  506  0.76315944528E+02 -0.24730208135E+02  0.95958094248E+02  0.12507462746E+03  0.00000000000E+00 0. -1.
         21    1    1    2  504  501 -0.71152053222E+02 -0.59256066100E+01 -0.12195568788E+04  0.12216450827E+04  0.00000000000E+00 0. -1.
         21    1    1    2  505  503  0.27082644665E+02  0.65566002685E+02  0.14808440642E+03  0.16419915278E+03  0.00000000000E+00 0. -1.
         21    1    1    2  506  502 -0.32246535971E+02 -0.34910187940E+02 -0.96406835974E+02  0.10748413058E+03  0.00000000000E+00 0. -1.
<scales pt_clust_3="14000.00000" pt_clust_4="107.03653" pt_clust_5="70.65038" pt_clust_6="47.52431"></scales>
<clustering>
<clus scale="   47.524">  2  6  1 -1</clus>
<clus scale="   70.650">  1  5  2 -1</clus>
<clus scale="  107.037">  2  4  1 -1</clus>
<clus scale="   70.650">  1  3  2 -1</clus>
</clustering>
</event>
<event>
 6    0  0.5563122E+002  0.9449384E+02  0.7546771E-02  0.1292320E+00
         21   -1    0    0  505  501  0.00000000000E+00  0.00000000000E+00  0.32100013993E+03  0.32100013993E+03  0.00000000000E+00 0. -1.
         21   -1    0    0  506  502 -0.00000000000E+00 -0.00000000000E+00 -0.54600573091E+03  0.54600573091E+03  0.00000000000E+00 0. -1.
         21    1    1    2  503  502  0.24364069870E+02 -0.53852893507E+02 -0.53159312303E+02  0.79496254781E+02  0.00000000000E+00 0. -1.
         21    1    1    2  504  501 -0.64239300541E+02 -0.14514296957E+02  0.34736042007E+02  0.74457673644E+02  0.00000000000E+00 0. -1.
         21    1    1    2  505  503  0.24041813170E+02  0.98872030743E+02  0.24232992376E+03  0.26282594848E+03  0.00000000000E+00 0. -1.
         21    1    1    2  506  504  0.15833417501E+02 -0.30504840278E+02 -0.44891224445E+03  0.45022599393E+03  0.00000000000E+00 0. -1.
<scales pt_clust_3="94.49384" pt_clust_4="64.42728" pt_clust_5="14000.00000" pt_clust_6="34.36921"></scales>
<clustering>
<clus scale="   34.369">  2  6  1 -1</clus>
<clus scale="   64.427">  2  4  1 -1</clus>
<clus scale="   94.494">  2  3  1 -1</clus>
<clus scale="   94.494">  1  3  2 -1</clus>
</clustering>
</event>
<event>
 6    0  0.5563122E+002  0.1053649E+03  0.7546771E-02  0.1269402E+00
         21   -1    0    0  503  501  0.00000000000E+00  0.00000000000E+00  0.71831995252E+03  0.71831995252E+03  0.00000000000E+00 0. -1.
         21   -1    0    0  506  502 -0.00000000000E+00 -0.00000000000E+00 -0.47539922771E+02  0.47539922771E+02  0.00000000000E+00 0. -1.
         21    1    1    2  503  504 -0.68193628060E+02  0.48010037896E+01  0.34037458434E+03  0.34717182808E+03  0.00000000000E+00 0. -1.
         21    1    1    2  504  502 -0.32386729435E+02 -0.36309373667E+01  0.26566757362E+02  0.42046124035E+02  0.00000000000E+00 0. -1.
         21    1    1    2  505  501 -0.31003721796E+02  0.52095924535E+02  0.17401580624E+03  0.18427348410E+03  0.00000000000E+00 0. -1.
         21    1    1    2  506  505  0.13158407929E+03 -0.53265990958E+02  0.12982288180E+03  0.19236843908E+03  0.00000000000E+00 0. -1.
<scales pt_clust_3="105.36492" pt_clust_4="32.58963" pt_clust_5="62.47311" pt_clust_6="14000.00000"></scales>
<clustering>
<clus scale="   32.590">  2  4  1 -1</clus>
<clus scale="   62.473">  1  5  2 -1</clus>
<clus scale="  105.365">  1  3  2 -1</clus>
<clus scale="   62.473">  1  3  2 -1</clus>
</clustering>
</event>
<event>
 6    0  0.5563122E+002  0.1343605E+03  0.7546771E-02  0.1221125E+00
         21   -1    0    0  503  501  0.00000000000E+00  0.00000000000E+00  0.14183647608E+04  0.14183647608E+04  0.00000000000E+00 0.  1.
         21   -1    0    0  505  502 -0.00000000000E+00 -0.00000000000E+00 -0.11747640284E+03  0.11747640284E+03  0.00000000000E+00 0.  1.
         21    1    1    2  503  506 -0.17972700114E+01 -0.30082006421E+02  0.15680525981E+03  0.15967481578E+03  0.00000000000E+00 0.  1.
         21    1    1    2  504  502 -0.12391269472E+03  0.51692157746E+02 -0.59275326950E+02  0.14676511667E+03  0.00000000000E+00 0.  1.
         21    1    1    2  505  501 -0.26465821365E+02 -0.39163458865E+02  0.73730423536E+03  0.73881780683E+03  0.00000000000E+00 0.  1.
         21    1    1    2  506  504  0.15217578610E+03  0.17553307540E+02  0.46605418972E+03  0.49058342434E+03  0.00000000000E+00 0. -1.
<scales pt_clust_3="30.13565" pt_clust_4="14000.00000" pt_clust_5="63.09940" pt_clust_6="134.36055"></scales>
<clustering>
<clus scale="   30.136">  1  3  2 -1</clus>
<clus scale="   63.099">  1  5  2 -1</clus>
<clus scale="  134.361">  1  6  2 -1</clus>
<clus scale="   30.136">  1  3  2 -1</clus>
</clustering>
</event>
<event>
 6    0  0.5563122E+002  0.1621309E+03  0.7546771E-02  0.1186312E+00
         21   -1    0    0  506  501  0.00000000000E+00  0.00000000000E+00  0.92426687695E+03  0.92426687695E+03  0.00000000000E+00 0.  1.
         21   -1    0    0  503  502 -0.00000000000E+00 -0.00000000000E+00 -0.63284668503E+03  0.63284668503E+03  0.00000000000E+00 0. -1.
         21    1    1    2  503  501  0.12786745234E+03 -0.91751998464E+02  0.90329940283E+03  0.91690693407E+03  0.00000000000E+00 0.  1.
         21    1    1    2  504  505 -0.45058086693E+02  0.23717917041E+02 -0.11158866028E+03  0.12265724548E+03  0.00000000000E+00 0. -1.
         21    1    1    2  505  502 -0.48477686139E+02 -0.13070735094E+01 -0.27748954915E+03  0.28169530415E+03  0.00000000000E+00 0. -1.
         21    1    1    2  506  504 -0.34331679511E+02  0.69341154932E+02 -0.22280100147E+03  0.23585407828E+03  0.00000000000E+00 0. -1.
<scales pt_clust_3="156.63725" pt_clust_4="33.94758" pt_clust_5="48.49530" pt_clust_6="33.94758"></scales>
<clustering>
<clus scale="   33.948">  4  6 -1 -1</clus>
<clus scale="   48.495">  2  5  1 -1</clus>
<clus scale="  156.637">  1  3  2 -1</clus>
<clus scale="  156.637">  1  3  2 -1</clus>
</clustering>
</event>
<event>
 6    0  0.5563122E+002  0.1054407E+03  0.7546771E-02  0.1269254E+00
         21   -1    0    0  506  501  0.00000000000E+00  0.00000000000E+00  0.23089413790E+03  0.23089413790E+03  0.00000000000E+00 0.  1.
         21   -1    0    0  503  502 -0.00000000000E+00 -0.00000000000E+00 -0.13381732003E+03  0.13381732003E+03  0.00000000000E+00 0.  1.
         21    1    1    2  503  505  0.91810081859E+02 -0.20420649171E+02  0.45414432873E+02  0.10444407478E+03  0.00000000000E+00 0.  1.
         21    1    1    2  504  501  0.11521620272E+02  0.28968606459E+02  0.83341924961E+02  0.88982045099E+02  0.00000000000E+00 0.  1.
         21    1    1    2  505  504  0.25000952577E+00 -0.50494975759E+02  0.10964825344E+02  0.51672356986E+02  0.00000000000E+00 0.  1.
         21    1    1    2  506  502 -0.10358171166E+03  0.41947018471E+02 -0.42644365305E+02  0.11961298107E+03  0.00000000000E+00 0.  1.
<scales pt_clust_3="105.44065" pt_clust_4="31.17576" pt_clust_5="44.31145" pt_clust_6="14000.00000"></scales>
<clustering>
<clus scale="   31.176">  1  4  2 -1</clus>
<clus scale="   44.311">  1  5  2 -1</clus>
<clus scale="  105.441">  1  3  2 -1</clus>
<clus scale="   31.176">  1  3  2 -1</clus>
</clustering>
</event>
<event>
 6    0  0.5563122E+002  0.1187285E+03  0.7546771E-02  0.1245209E+00
         21   -1    0    0  506  501  0.00000000000E+00  0.00000000000E+00  0.14612789536E+04  0.14612789536E+04  0.00000000000E+00 0. -1.
         21   -1    0    0  503  502 -0.00000000000E+00 -0.00000000000E+00 -0.32974349150E+02  0.32974349150E+02  0.00000000000E+00 0.  1.
         21    1    1    2  503  504  0.46265733261E+02  0.18030000975E+02  0.53384069696E+03  0.53614502585E+03  0.00000000000E+00 0. -1.
         21    1    1    2  504  501  0.16759434462E+02  0.39244783764E+02  0.56033022530E+03  0.56195283884E+03  0.00000000000E+00 0. -1.
         21    1    1    2  505  502 -0.26726463297E+02 -0.11489158316E+03  0.10779342749E+03  0.15979299963E+03  0.00000000000E+00 0.  1.
         21    1    1    2  506  505 -0.36298704425E+02  0.57616798421E+02  0.22634025473E+03  0.23636243846E+03  0.00000000000E+00 0.  1.
<scales pt_clust_3="34.14154" pt_clust_4="34.14154" pt_clust_5="112.87215" pt_clust_6="68.09766"></scales>
<clustering>
<clus scale="   34.142">  3  4 -1 -1</clus>
<clus scale="   68.098">  1  6  2 -1</clus>
<clus scale="  112.872">  2  5  1 -1</clus>
<clus scale="   68.098">  1  3  2 -1</clus>
</clustering>
</event>
<event>
 6    0  0.5563122E+002  0.9067753E+02  0.7546771E-02  0.1301219E+00
         21   -1    0    0  502  501  0.00000000000E+00  0.00000000000E+00  0.18696787224E+03  0.18696787224E+03  0.00000000000E+00 0.  1.
         21   -1    0    0  505  502 -0.00000000000E+00 -0.00000000000E+00 -0.36285911107E+03  0.36285911107E+03  0.00000000000E+00 0.  1.
         21    1    1    2  503  506 -0.67158861026E+02  0.48699200131E+02  0.16524777067E+02  0.84587191493E+02  0.00000000000E+00 0.  1.
         21    1    1    2  504  503  0.81706562875E+02 -0.19912751962E+02 -0.72851366165E+02  0.11126455707E+03  0.00000000000E+00 0.  1.
         21    1    1    2  505  504  0.70263484179E+01 -0.51489483458E+02 -0.23174758247E+03  0.23750258622E+03  0.00000000000E+00 0.  1.
         21    1    1    2  506  501 -0.21574050267E+02  0.22703035290E+02  0.11218293274E+03  0.11647264853E+03  0.00000000000E+00 0.  1.
<scales pt_clust_3="90.67753" pt_clust_4="14000.00000" pt_clust_5="50.96521" pt_clust_6="31.31880"></scales>
<clustering>
<clus scale="   31.319">  1  6  2 -1</clus>
<clus scale="   50.965">  2  5  1 -1</clus>
<clus scale="   90.678">  1  3  2 -1</clus>
<clus scale="   31.319">  1  3  2 -1</clus>
</clustering>
</event>
<event>
 6    0  0.5563122E+002  0.3617928E+03  0.7546771E-02  0.1057876E+00
         21   -1    0    0  505  501  0.00000000000E+00  0.00000000000E+00  0.58156506426E+03  0.58156506426E+03  0.00000000000E+00 0. -1.
         21   -1    0    0  503  502 -0.00000000000E+00 -0.00000000000E+00 -0.10656104531E+04  0.10656104531E+04  0.00000000000E+00 0. -1.
         21    1    1    2  503  506 -0.21413408083E+02  0.26370719853E+03  0.35534507989E+03  0.44302386663E+03  0.00000000000E+00 0. -1.
         21    1    1    2  504  502  0.75589662559E+02 -0.36275550986E+03 -0.93856568247E+03  0.10090643673E+04  0.00000000000E+00 0. -1.
         21    1    1    2  505  504 -0.33293548741E+02  0.76112530687E+02 -0.80507842502E+01  0.83464919830E+02  0.00000000000E+00 0.  1.
         21    1    1    2  506  501 -0.20882705735E+02  0.22935780647E+02  0.10722599795E+03  0.11162236366E+03  0.00000000000E+00 0. -1.
<scales pt_clust_3="14000.00000" pt_clust_4="361.79282" pt_clust_5="85.42602" pt_clust_6="31.01834"></scales>
<clustering>
<clus scale="   31.018">  1  6  2 -1</clus>
<clus scale="   85.426">  1  5  2 -1</clus>
<clus scale="  361.793">  2  4  1 -1</clus>
<clus scale="   31.018">  1  3  2 -1</clus>
</clustering>
</event>
<event>
 6    0  0.5563122E+002  0.2310261E+03  0.7546771E-02  0.1125920E+00
         21   -1    0    0  504  501  0.00000000000E+00  0.00000000000E+00  0.19364302311E+04  0.19364302311E+04  0.00000000000E+00 0. -1.
         21   -1    0    0  503  502 -0.00000000000E+00 -0.00000000000E+00 -0.47288790874E+02  0.47288790874E+02  0.00000000000E+00 0.  1.
         21    1    1    2  503  501 -0.34723651653E+02 -0.39565896273E+01  0.27240815200E+02  0.44310818074E+02  0.00000000000E+00 0. -1.
         21    1    1    2  504  506  0.61370856945E+02  0.15375640849E+03  0.10068645646E+04  0.10203840781E+04  0.00000000000E+00 0. -1.
         21    1    1    2  505  502 -0.76057699593E+02 -0.19832147764E+03  0.35108740599E+03  0.41033955306E+03  0.00000000000E+00 0.  1.
         21    1    1    2  506  505  0.49410494301E+02  0.48521658772E+02  0.50394865441E+03  0.50868457279E+03  0.00000000000E+00 0. -1.
<scales pt_clust_3="34.94834" pt_clust_4="31.05441" pt_clust_5="225.98147" pt_clust_6="31.05441"></scales>
<clustering>
<clus scale="   31.054">  4  6 -1 -1</clus>
<clus scale="   34.948">  2  3  1 -1</clus>
<clus scale="  225.981">  2  5  1 -1</clus>
<clus scale="  231.026">  1  3  2 -1</clus>
</clustering>
</event>
<event>
 6    0  0.5563122E+002  0.1362606E+03  0.7546771E-02  0.1218451E+00
         21   -1    0    0  506  501  0.00000000000E+00  0.00000000000E+00  0.25502884555E+03  0.25502884555E+03  0.00000000000E+00 0. -1.
         21   -1    0    0  505  502 -0.00000000000E+00 -0.00000000000E+00 -0.29025046793E+03  0.29025046793E+03  0.00000000000E+00 0. -1.
         21    1    1    2  503  501  0.14218655826E+03  0.87638231437E+01 -0.35442880504E+02  0.14679924974E+03  0.00000000000E+00 0. -1.
         21    1    1    2  504  502 -0.30714666326E+02  0.12171730423E+02 -0.65475843464E+02  0.73339128890E+02  0.00000000000E+00 0. -1.
         21    1    1    2  505  503  0.12218838829E+02 -0.84423976131E+02 -0.84779059669E+02  0.12026718890E+03  0.00000000000E+00 0. -1.
         21    1    1    2  506  504 -0.12369073076E+03  0.63488422564E+02  0.15047616126E+03  0.20487374596E+03  0.00000000000E+00 0. -1.
<scales pt_clust_3="136.26061" pt_clust_4="33.03849" pt_clust_5="78.79984" pt_clust_6="14000.00000"></scales>
<clustering>
<clus scale="   33.038">  2  4  1 -1</clus>
<clus scale="   78.800">  2  5  1 -1</clus>
<clus scale="  136.261">  2  3  1 -1</clus>
<clus scale="  136.261">  1  3  2 -1</clus>
</clustering>
</event>
<event>
 6    0  0.5563122E+002  0.7479254E+02  0.7546771E-02  0.1344515E+00
         21   -1    0    0  506  501  0.00000000000E+00  0.00000000000E+00  0.19275448441E+04  0.19275448441E+04  0.00000000000E+00 0.  1.
         21   -1    0    0  504  502 -0.00000000000E+00 -0.00000000000E+00 -0.87455588475E+03  0.87455588475E+03  0.00000000000E+00 0.  1.
         21    1    1    2  503  501 -0.55613179208E+02 -0.38485202014E+02  0.11129603175E+04  0.11150132756E+04  0.00000000000E+00 0.  1.
         21    1    1    2  504  503  0.12700515379E+03  0.10782338861E+02  0.70471284900E+03  0.71614716886E+03  0.00000000000E+00 0.  1.
         21    1    1    2  505  502 -0.37731797617E+02 -0.14590467261E+01 -0.86257170229E+03  0.86339779879E+03  0.00000000000E+00 0.  1.
         21    1    1    2  506  505 -0.33660176969E+02  0.29161909879E+02  0.97887495101E+02  0.10754248555E+03  0.00000000000E+00 0.  1.
<scales pt_clust_3="14000.00000" pt_clust_4="74.79254" pt_clust_5="37.76000" pt_clust_6="57.05994"></scales>
<clustering>
<clus scale="   37.760">  2  5  1 -1</clus>
<clus scale="   57.060">  2  6  1 -1</clus>
<clus scale="   74.793">  2  4  1 -1</clus>
<clus scale="   74.793">  1  3  2 -1</clus>
</clustering>
</event>
<event>
 6    0  0.5563122E+002  0.1477028E+03  0.7546771E-02  0.1203324E+00
         21   -1    0    0  504  501  0.00000000000E+00  0.00000000000E+00  0.68935748459E+02  0.68935748459E+02  0.00000000000E+00 0. -1.
         21   -1    0    0  505  502 -0.00000000000E+00 -0.00000000000E+00 -0.83568961878E+03  0.83568961878E+03  0.00000000000E+00 0. -1.
         21    1    1    2  503  506 -0.30780617275E+02 -0.49896381889E+02 -0.90712243697E+02  0.10800836302E+03  0.00000000000E+00 0.  1.
         21    1    1    2  504  502 -0.52001314112E+02  0.15861314400E+03 -0.50989717040E+03  0.53652342959E+03  0.00000000000E+00 0. -1.
         21    1    1    2  505  503  0.11124283160E+02 -0.63675615905E+02 -0.16305421931E+03  0.17539957859E+03  0.00000000000E+00 0. -1.
         21    1    1    2  506  501  0.71657648227E+02 -0.45041146205E+02 -0.30902369189E+01  0.84693996039E+02  0.00000000000E+00 0. -1.
<scales pt_clust_3="48.91112" pt_clust_4="138.48631" pt_clust_5="48.91112" pt_clust_6="84.63760"></scales>
<clustering>
<clus scale="   48.911">  3  5 -1 -1</clus>
<clus scale="   84.638">  1  6  2 -1</clus>
<clus scale="  138.486">  2  4  1 -1</clus>
<clus scale="   84.638">  1  3  2 -1</clus>
</clustering>
</event>
<event>
 6    0  0.5563122E+002  0.2974350E+03  0.7546771E-02  0.1086530E+00
         21   -1    0    0  503  501  0.00000000000E+00  0.00000000000E+00  0.14060136884E+04  0.14060136884E+04  0.00000000000E+00 0.  1.
         21   -1    0    0  506  502 -0.00000000000E+00 -0.00000000000E+00 -0.11609728683E+04  0.11609728683E+04  0.00000000000E+00 0.  1.
         21    1    1    2  503  504  0.61163759597E+02  0.27219919311E+03  0.13559098246E+04  0.13843138584E+04  0.00000000000E+00 0.  1.
         21    1    1    2  504  502  0.33126901636E+02 -0.19094148406E+02 -0.55209081507E+03  0.55341326891E+03  0.00000000000E+00 0.  1.
         21    1    1    2  505  501 -0.23663770702E+02 -0.83975533636E+02 -0.87360735849E+02  0.12346563271E+03  0.00000000000E+00 0.  1.
         21    1    1    2  506  505 -0.70626890532E+02 -0.16912951106E+03 -0.47141745360E+03  0.50579379666E+03  0.00000000000E+00 0.  1.
<scales pt_clust_3="278.72227" pt_clust_4="38.23582" pt_clust_5="71.17365" pt_clust_6="71.17365"></scales>
<clustering>
<clus scale="   38.236">  2  4  1 -1</clus>
<clus scale="   71.174">  5  6 -1 -1</clus>
<clus scale="  278.722">  1  3  2 -1</clus>
<clus scale="  278.722">  1  3  2 -1</clus>
</clustering>
</event>
<event>
 6    0  0.5563122E+002  0.8192243E+02  0.7546771E-02  0.1323683E+00
         21   -1    0    0  506  501  0.00000000000E+00  0.00000000000E+00  0.21506286795E+03  0.21506286795E+03  0.00000000000E+00 0.  1.
         21   -1    0    0  505  502 -0.00000000000E+00 -0.00000000000E+00 -0.26416536471E+03  0.26416536471E+03  0.00000000000E+00 0.  1.
         21    1    1    2  503  502 -0.65069412503E+02  0.33985119242E+02 -0.10574469175E+03  0.12872822770E+03  0.00000000000E+00 0.  1.
         21    1    1    2  504  501 -0.36642882893E+02  0.32280325543E+02  0.20944964391E+02  0.53135786596E+02  0.00000000000E+00 0.  1.
         21    1    1    2  505  504  0.69549562636E+02 -0.69375013605E+02 -0.11037608965E+03  0.14775965397E+03  0.00000000000E+00 0.  1.
         21    1    1    2  506  503  0.32162732760E+02  0.31095688196E+01  0.14607332025E+03  0.14960456439E+03  0.00000000000E+00 0.  1.
<scales pt_clust_3="81.92243" pt_clust_4="38.90481" pt_clust_5="14000.00000" pt_clust_6="32.31270"></scales>
<clustering>
<clus scale="   32.313">  1  6  2 -1</clus>
<clus scale="   38.905">  1  4  2 -1</clus>
<clus scale="   81.922">  2  3  1 -1</clus>
<clus scale="   32.313">  1  3  2 -1</clus>
</clustering>
</event>
<event>
 6    0  0.7637031E+002  0.1439044E+03  0.7546771E-02  0.1208170E+00
         21   -1    0    0  505  501  0.00000000000E+00  0.00000000000E+00  0.12256991077E+04  0.12256991077E+04  0.00000000000E+00 0.  1.
         21   -1    0    0  503  502 -0.00000000000E+00 -0.00000000000E+00 -0.17711617660E+04  0.17711617660E+04  0.00000000000E+00 0.  1.
         21    1    1    2  503  506 -0.14574383692E+01 -0.31447412284E+02 -0.51399194618E+03  0.51495512873E+03  0.00000000000E+00 0.  1.
         21    1    1    2  504  502  0.89261693238E+02  0.53029563977E+02  0.44153054032E+02  0.11282409634E+03  0.00000000000E+00 0.  1.
         21    1    1    2  505  504  0.24314315253E+02  0.40595031555E+02  0.11428763318E+04  0.11438555207E+04  0.00000000000E+00 0.  1.
         21    1    1    2  506  501 -0.11211857012E+03 -0.62177183249E+02 -0.12185000979E+04  0.12252261279E+04  0.00000000000E+00 0.  1.
<scales pt_clust_3="31.48117" pt_clust_4="143.90440" pt_clust_5="47.30878" pt_clust_6="14000.00000"></scales>
<clustering>
<clus scale="   31.481">  2  3  1 -1</clus>
<clus scale="   47.309">  1  5  2 -1</clus>
<clus scale="  143.904">  1  4  2 -1</clus>
<clus scale="   47.309">  1  3  2 -1</clus>
</clustering>
</event>
<event>
 6    0  0.5563122E+002  0.7732750E+02  0.7546771E-02  0.1336811E+00
         21   -1    0    0  503  501  0.00000000000E+00  0.00000000000E+00  0.55212115794E+02  0.55212115794E+02  0.00000000000E+00 0.  1.
         21   -1    0    0  506  502 -0.00000000000E+00 -0.00000000000E+00 -0.62394879169E+03  0.62394879169E+03  0.00000000000E+00 0.  1.
         21    1    1    2  503  505  0.36217012771E+02  0.42795760261E+02  0.10316213438E+02  0.57005029340E+02  0.00000000000E+00 0.  1.
         21    1    1    2  504  501 -0.49720915322E+02  0.85470477048E+00 -0.64774521248E+02  0.81661732431E+02  0.00000000000E+00 0. -1.
         21    1    1    2  505  502 -0.63833571025E+01 -0.10325147397E+03 -0.31738149386E+03  0.33381525844E+03  0.00000000000E+00 0.  1.
         21    1    1    2  506  504  0.19887259654E+02  0.59601008937E+02 -0.19689687422E+03  0.20667888727E+03  0.00000000000E+00 0.  1.
<scales pt_clust_3="43.41306" pt_clust_4="49.72826" pt_clust_5="14000.00000" pt_clust_6="77.32750"></scales>
<clustering>
<clus scale="   49.728">  1  4  2 -1</clus>
<clus scale="   43.413">  1  3  2 -1</clus>
<clus scale="   77.328">  2  6  1 -1</clus>
<clus scale="   49.728">  1  3  2 -1</clus>
</clustering>
</event>
<event>
 6    0  0.5563122E+002  0.2223711E+03  0.7546771E-02  0.1132128E+00
         21   -1    0    0  502  501  0.00000000000E+00  0.00000000000E+00  0.18548244928E+04  0.18548244928E+04  0.00000000000E+00 0.  1.
         21   -1    0    0  504  502 -0.00000000000E+00 -0.00000000000E+00 -0.11216469048E+03  0.11216469048E+03  0.00000000000E+00 0. -1.
         21    1    1    2  503  501 -0.41101835392E+02 -0.61471846537E+02  0.52581459691E+03  0.53098883143E+03  0.00000000000E+00 0.  1.
         21    1    1    2  504  505  0.26224946640E+02  0.12106065359E+03 -0.25836069064E+02  0.12653431210E+03  0.00000000000E+00 0. -1.
         21    1    1    2  505  506  0.46125547738E+02  0.75642010565E+02  0.37312516813E+02  0.96132740663E+02  0.00000000000E+00 0. -1.
         21    1    1    2  506  503 -0.31248658986E+02 -0.13523081761E+03  0.12053687577E+04  0.12133332991E+04  0.00000000000E+00 0.  1.
<scales pt_clust_3="30.42417" pt_clust_4="62.84776" pt_clust_5="62.84776" pt_clust_6="213.69110"></scales>
<clustering>
<clus scale="   30.424">  3  6 -1 -1</clus>
<clus scale="   62.848">  4  5 -1 -1</clus>
<clus scale="  213.691">  1  3  2 -1</clus>
<clus scale="  213.691">  1  3  2 -1</clus>
</clustering>
</event>
<event>
 6    0  0.5563122E+002  0.2413363E+03  0.7546771E-02  0.1118906E+00
         21   -1    0    0  505  501  0.00000000000E+00  0.00000000000E+00  0.38711769073E+03  0.38711769073E+03  0.00000000000E+00 0. -1.
         21   -1    0    0  503  502 -0.00000000000E+00 -0.00000000000E+00 -0.10696089971E+04  0.10696089971E+04  0.00000000000E+00 0.  1.
         21    1    1    2  503  504 -0.82096620144E+02  0.17680292886E+03 -0.21536412605E+03  0.29048379900E+03  0.00000000000E+00 0.  1.
         21    1    1    2  504  501  0.26849373919E+02 -0.23000012577E+02  0.54197647587E+01  0.35766790581E+02  0.00000000000E+00 0. -1.
         21    1    1    2  505  506  0.11185106161E+03 -0.19444454560E+03  0.28894722934E+03  0.36580027698E+03  0.00000000000E+00 0. -1.
         21    1    1    2  506  502 -0.56603815390E+02  0.40641629309E+02 -0.76149417441E+03  0.76467582125E+03  0.00000000000E+00 0.  1.
<scales pt_clust_3="14000.00000" pt_clust_4="35.35378" pt_clust_5="241.33628" pt_clust_6="69.53021"></scales>
<clustering>
<clus scale="   35.354">  1  4  2 -1</clus>
<clus scale="   69.530">  2  6  1 -1</clus>
<clus scale="  241.336">  1  5  2 -1</clus>
<clus scale="   35.354">  1  3  2 -1</clus>
</clustering>
</event>
<event>
 6    0  0.5563122E+002  0.1923805E+03  0.7546771E-02  0.1156332E+00
         21   -1    0    0  506  501  0.00000000000E+00  0.00000000000E+00  0.74705662531E+03  0.74705662531E+03  0.00000000000E+00 0.  1.
         21   -1    0    0  504  502 -0.00000000000E+00 -0.00000000000E+00 -0.19408174993E+03  0.19408174993E+03  0.00000000000E+00 0.  1.
         21    1    1    2  503  501  0.55186943181E+01  0.33077610193E+02  0.25554289148E+03  0.25773388149E+03  0.00000000000E+00 0. -1.
         21    1    1    2  504  503  0.19292082055E+03  0.11918823843E+02 -0.99894021057E+02  0.21757600237E+03  0.00000000000E+00 0.  1.
         21    1    1    2  505  502 -0.18794829366E+03  0.89833407565E+01  0.30925169256E+03  0.36199705917E+03  0.00000000000E+00 0.  1.
         21    1    1    2  506  505 -0.10491221210E+02 -0.53979774792E+02  0.88074312399E+02  0.10383143220E+03  0.00000000000E+00 0.  1.
<scales pt_clust_3="33.53482" pt_clust_4="192.38050" pt_clust_5="14000.00000" pt_clust_6="48.43122"></scales>
<clustering>
<clus scale="   33.535">  1  3  2 -1</clus>
<clus scale="   48.431">  1  6  2 -1</clus>
<clus scale="  192.381">  2  4  1 -1</clus>
<clus scale="   33.535">  1  3  2 -1</clus>
</clustering>
</event>
<event>
 6    0  0.5563122E+002  0.8476586E+02  0.7546771E-02  0.1316046E+00
         21   -1    0    0  504  501  0.00000000000E+00  0.00000000000E+00  0.42185681590E+03  0.42185681590E+03  0.00000000000E+00 0.  1.
         21   -1    0    0  506  502 -0.00000000000E+00 -0.00000000000E+00 -0.24829252688E+03  0.24829252688E+03  0.00000000000E+00 0. -1.
         21    1    1    2  503  502 -0.37834958082E+02  0.35485706158E+02 -0.99605781560E+02  0.11230329966E+03  0.00000000000E+00 0. -1.
         21    1    1    2  504  505  0.25073050824E+02 -0.28146369892E+02  0.36243896096E+03  0.36439384797E+03  0.00000000000E+00 0.  1.
         21    1    1    2  505  503  0.69345235655E+02  0.52337629149E+02 -0.29356513575E+02  0.91704929106E+02  0.00000000000E+00 0. -1.
         21    1    1    2  506  501 -0.56583328397E+02 -0.59676965415E+02 -0.59912376807E+02  0.10174726605E+03  0.00000000000E+00 0. -1.
<scales pt_clust_3="47.79502" pt_clust_4="37.69451" pt_clust_5="84.76586" pt_clust_6="14000.00000"></scales>
<clustering>
<clus scale="   37.695">  1  4  2 -1</clus>
<clus scale="   47.795">  2  3  1 -1</clus>
<clus scale="   84.766">  1  5  2 -1</clus>
<clus scale="   37.695">  1  3  2 -1</clus>
</clustering>
</event>
<event>
 6    0  0.5563122E+002  0.1063912E+03  0.7546771E-02  0.1267403E+00
         21   -1    0    0  504  501  0.00000000000E+00  0.00000000000E+00  0.22302951430E+03  0.22302951430E+03  0.00000000000E+00 0.  1.
         21   -1    0    0  505  502 -0.00000000000E+00 -0.00000000000E+00 -0.27450230619E+03  0.27450230619E+03  0.00000000000E+00 0.  1.
         21    1    1    2  503  506  0.47363531133E+02  0.28133547557E+02  0.28125450130E+01  0.55160774006E+02  0.00000000000E+00 0.  1.
         21    1    1    2  504  502  0.64615226060E+02 -0.69340902359E+02  0.12633586353E+02  0.95618490277E+02  0.00000000000E+00 0.  1.
         21    1    1    2  505  503 -0.21886642600E+02 -0.27679037984E+02 -0.18187669641E+03  0.18526814882E+03  0.00000000000E+00 0. -1.
         21    1    1    2  506  501 -0.90092114592E+02  0.68886392786E+02  0.11495777315E+03  0.16148440739E+03  0.00000000000E+00 0.  1.
<scales pt_clust_3="45.74803" pt_clust_4="14000.00000" pt_clust_5="35.28674" pt_clust_6="106.39116"></scales>
<clustering>
<clus scale="   35.287">  2  5  1 -1</clus>
<clus scale="   45.748">  2  3  1 -1</clus>
<clus scale="  106.391">  1  6  2 -1</clus>
<clus scale="  106.391">  1  3  2 -1</clus>
</clustering>
</event>
<event>
 6    0  0.5563122E+002  0.6425368E+02  0.7546771E-02  0.1380801E+00
         21   -1    0    0  504  501  0.00000000000E+00  0.00000000000E+00  0.94124011085E+03  0.94124011085E+03  0.00000000000E+00 0.  1.
         21   -1    0    0  503  502 -0.00000000000E+00 -0.00000000000E+00 -0.86768829312E+02  0.86768829312E+02  0.00000000000E+00 0.  1.
         21    1    1    2  503  505 -0.50672314651E+02  0.17929816901E+02  0.69271035374E+02  0.87679177391E+02  0.00000000000E+00 0.  1.
         21    1    1    2  504  506  0.41732425046E+02 -0.48341048761E+02  0.76086074622E+03  0.76353619917E+03  0.00000000000E+00 0.  1.
         21    1    1    2  505  501  0.75680946887E+02 -0.17796495065E+02  0.47701132463E+02  0.91212493643E+02  0.00000000000E+00 0.  1.
         21    1    1    2  506  502 -0.66741057281E+02  0.48207726925E+02 -0.23361632519E+02  0.85581069965E+02  0.00000000000E+00 0.  1.
<scales pt_clust_3="53.75092" pt_clust_4="14000.00000" pt_clust_5="62.78012" pt_clust_6="64.25368"></scales>
<clustering>
<clus scale="   53.751">  2  3  1 -1</clus>
<clus scale="   62.780">  2  5  1 -1</clus>
<clus scale="   64.254">  2  6  1 -1</clus>
<clus scale="   64.254">  1  3  2 -1</clus>
</clustering>
</event>
<event>
 6    0  0.5563122E+002  0.1106037E+03  0.7546771E-02  0.1259456E+00
         21   -1    0    0  503  501  0.00000000000E+00  0.00000000000E+00  0.10674834145E+02  0.10674834145E+02  0.00000000000E+00 0.  1.
         21   -1    0    0  505  502 -0.00000000000E+00 -0.00000000000E+00 -0.22909512147E+04  0.22909512147E+04  0.00000000000E+00 0.  1.
         21    1    1    2  503  504  0.29253488934E+02 -0.53888254138E+02 -0.52619551213E+03  0.52975600755E+03  0.00000000000E+00 0.  1.
         21    1    1    2  504  506  0.49526346611E+02 -0.32575295424E+02 -0.43388441156E+03  0.43791516470E+03  0.00000000000E+00 0.  1.
         21    1    1    2  505  501  0.16586236718E+02  0.45828749655E+02 -0.12338015886E+03  0.13265760869E+03  0.00000000000E+00 0.  1.
         21    1    1    2  506  502 -0.95366072263E+02  0.40634799908E+02 -0.11968162980E+04  0.12012972679E+04  0.00000000000E+00 0.  1.
<scales pt_clust_3="30.33484" pt_clust_4="30.33484" pt_clust_5="48.73785" pt_clust_6="106.21374"></scales>
<clustering>
<clus scale="   30.335">  3  4 -1 -1</clus>
<clus scale="   48.738">  1  5  2 -1</clus>
<clus scale="  106.214">  2  6  1 -1</clus>
<clus scale="   48.738">  1  3  2 -1</clus>
</clustering>
</event>
<event>
 6    0  0.5563122E+002  0.1158171E+03  0.7546771E-02  0.1250161E+00
         21   -1    0    0  505  501  0.00000000000E+00  0.00000000000E+00  0.20644603810E+04  0.20644603810E+04  0.00000000000E+00 0.  1.
         21   -1    0    0  503  502 -0.00000000000E+00 -0.00000000000E+00 -0.31125067086E+03  0.31125067086E+03  0.00000000000E+00 0.  1.
         21    1    1    2  503  501 -0.15832609759E+02  0.37615242019E+02 -0.36022484040E+02  0.54435258063E+02  0.00000000000E+00 0. -1.
         21    1    1    2  504  506  0.77131715583E+02  0.20783039377E+02  0.21182913689E+03  0.22639085563E+03  0.00000000000E+00 0.  1.
         21    1    1    2  505  504  0.39468105563E+02  0.73531277037E+01  0.18219226928E+04  0.18223649740E+04  0.00000000000E+00 0.  1.
         21    1    1    2  506  502 -0.10076721139E+03 -0.65751409100E+02 -0.24451963555E+03  0.27251996415E+03  0.00000000000E+00 0.  1.
<scales pt_clust_3="40.51468" pt_clust_4="115.81712" pt_clust_5="40.14723" pt_clust_6="14000.00000"></scales>
<clustering>
<clus scale="   40.147">  1  5  2 -1</clus>
<clus scale="   40.515">  2  3  1 -1</clus>
<clus scale="  115.817">  1  4  2 -1</clus>
<clus scale="   40.147">  1  3  2 -1</clus>
</clustering>
</event>
<event>
 6    0  0.5563122E+002  0.1159126E+03  0.7546771E-02  0.1249996E+00
         21   -1    0    0  503  501  0.00000000000E+00  0.00000000000E+00  0.30016747115E+03  0.30016747115E+03  0.00000000000E+00 0.  1.
         21   -1    0    0  504  502 -0.00000000000E+00 -0.00000000000E+00 -0.10084762046E+03  0.10084762046E+03  0.00000000000E+00 0. -1.
         21    1    1    2  503  505  0.21376166992E+02 -0.21202132986E+02  0.21990170770E+02  0.37283221010E+02  0.00000000000E+00 0. -1.
         21    1    1    2  504  501  0.49942316710E+02  0.98202000096E+02 -0.41581962222E+02  0.11775791864E+03  0.00000000000E+00 0. -1.
         21    1    1    2  505  506 -0.56567387446E+02 -0.33729200713E+02  0.11663090016E+03  0.13394138709E+03  0.00000000000E+00 0.  1.
         21    1    1    2  506  502 -0.14751096256E+02 -0.43270666397E+02  0.10228074198E+03  0.11203256487E+03  0.00000000000E+00 0.  1.
<scales pt_clust_3="30.10766" pt_clust_4="108.95030" pt_clust_5="35.72983" pt_clust_6="35.72983"></scales>
<clustering>
<clus scale="   30.108">  1  3  2 -1</clus>
<clus scale="   35.730">  5  6 -1 -1</clus>
<clus scale="  108.950">  2  4  1 -1</clus>
<clus scale="   30.108">  1  3  2 -1</clus>
</clustering>
</event>
<event>
 6    0  0.5563122E+002  0.9012962E+02  0.7546771E-02  0.1302538E+00
         21   -1    0    0  504  501  0.00000000000E+00  0.00000000000E+00  0.31661961553E+03  0.31661961553E+03  0.00000000000E+00 0. -1.
         21   -1    0    0  506  502 -0.00000000000E+00 -0.00000000000E+00 -0.15515651765E+03  0.15515651765E+03  0.00000000000E+00 0. -1.
         21    1    1    2  503  502 -0.75205022242E+02 -0.14746137520E+02 -0.40988759739E+02  0.86909851957E+02  0.00000000000E+00 0. -1.
         21    1    1    2  504  503 -0.84629073119E+02  0.37545377397E+01  0.18508996537E+03  0.20355459182E+03  0.00000000000E+00 0. -1.
         21    1    1    2  505  501  0.42142389282E+02 -0.24804403989E+02  0.30444440291E+02  0.57602980620E+02  0.00000000000E+00 0. -1.
         21    1    1    2  506  505  0.11769170608E+03  0.35796003770E+02 -0.13082548050E+02  0.12370870878E+03  0.00000000000E+00 0. -1.
<scales pt_clust_3="90.12962" pt_clust_4="56.33624" pt_clust_5="48.90030" pt_clust_6="14000.00000"></scales>
<clustering>
<clus scale="   48.900">  1  5  2 -1</clus>
<clus scale="   56.336">  1  4  2 -1</clus>
<clus scale="   90.130">  2  3  1 -1</clus>
<clus scale="   48.900">  1  3  2 -1</clus>
</clustering>
</event>
<event>
 6    0  0.5563122E+002  0.1478105E+03  0.7546771E-02  0.1203190E+00
         21   -1    0    0  503  501  0.00000000000E+00  0.00000000000E+00  0.16809973992E+04  0.16809973992E+04  0.00000000000E+00 0. -1.
         21   -1    0    0  504  502 -0.00000000000E+00 -0.00000000000E+00 -0.27603611845E+03  0.27603611845E+03  0.00000000000E+00 0. -1.
         21    1    1    2  503  505 -0.44547905449E+02  0.16023914461E+02  0.14226903866E+04  0.14234778600E+04  0.00000000000E+00 0. -1.
         21    1    1    2  504  506  0.63229106934E+02 -0.56591465251E+02 -0.17333536332E+03  0.19299135235E+03  0.00000000000E+00 0. -1.
         21    1    1    2  505  502 -0.79337453716E+02  0.54919604651E+02  0.22648144860E+03  0.24617969270E+03  0.00000000000E+00 0. -1.
         21    1    1    2  506  501  0.60656252231E+02 -0.14352053861E+02 -0.70875191130E+02  0.94384612636E+02  0.00000000000E+00 0. -1.
<scales pt_clust_3="47.34218" pt_clust_4="43.41149" pt_clust_5="138.86089" pt_clust_6="43.41149"></scales>
<clustering>
<clus scale="   43.411">  4  6 -1 -1</clus>
<clus scale="   47.342">  1  3  2 -1</clus>
<clus scale="  138.861">  1  5  2 -1</clus>
<clus scale="   47.342">  1  3  2 -1</clus>
</clustering>
</event>
<event>
 6    0  0.5563122E+002  0.1216511E+03  0.7546771E-02  0.1240398E+00
         21   -1    0    0  505  501  0.00000000000E+00  0.00000000000E+00  0.81123875918E+03  0.81123875918E+03  0.00000000000E+00 0.  1.
         21   -1    0    0  504  502 -0.00000000000E+00 -0.00000000000E+00 -0.22557488519E+03  0.22557488519E+03  0.00000000000E+00 0.  1.
         21    1    1    2  503  506 -0.65203526481E+01  0.86376191201E+02 -0.33773490515E+02  0.92973168530E+02  0.00000000000E+00 0.  1.
         21    1    1    2  504  501  0.99987675784E+02  0.50561913777E+02  0.35737014925E+02  0.11760602310E+03  0.00000000000E+00 0.  1.
         21    1    1    2  505  503 -0.58414106915E+02 -0.11111452552E+03  0.69524847601E+03  0.70649068575E+03  0.00000000000E+00 0.  1.
         21    1    1    2  506  502 -0.35053216221E+02 -0.25823579463E+02 -0.11154812642E+03  0.11974376698E+03  0.00000000000E+00 0.  1.
<scales pt_clust_3="76.32227" pt_clust_4="121.65107" pt_clust_5="14000.00000" pt_clust_6="43.53832"></scales>
<clustering>
<clus scale="   43.538">  2  6  1 -1</clus>
<clus scale="   76.322">  2  3  1 -1</clus>
<clus scale="  121.651">  2  4  1 -1</clus>
<clus scale="  121.651">  1  3  2 -1</clus>
</clustering>
</event>
<event>
 6    0  0.5563122E+002  0.9696117E+02  0.7546771E-02  0.1286819E+00
         21   -1    0    0  505  501  0.00000000000E+00  0.00000000000E+00  0.29894482987E+03  0.29894482987E+03  0.00000000000E+00 0. -1.
         21   -1    0    0  504  502 -0.00000000000E+00 -0.00000000000E+00 -0.14532463602E+03  0.14532463602E+03  0.00000000000E+00 0. -1.
         21    1    1    2  503  501  0.41639635587E+01  0.33853089435E+02  0.36367146870E+02  0.49859198031E+02  0.00000000000E+00 0. -1.
         21    1    1    2  504  506 -0.12498436982E+02  0.36556704091E+02 -0.50370578419E+02  0.63480695579E+02  0.00000000000E+00 0. -1.
         21    1    1    2  505  502  0.62033396652E+02 -0.11910978253E+03 -0.14338222029E+02  0.13505875464E+03  0.00000000000E+00 0. -1.
         21    1    1    2  506  503 -0.53698923229E+02  0.48699989006E+02  0.18196184742E+03  0.19587081764E+03  0.00000000000E+00 0. -1.
<scales pt_clust_3="34.10821" pt_clust_4="39.42232" pt_clust_5="14000.00000" pt_clust_6="96.96117"></scales>
<clustering>
<clus scale="   34.108">  1  3  2 -1</clus>
<clus scale="   39.422">  2  4  1 -1</clus>
<clus scale="   96.961">  1  6  2 -1</clus>
<clus scale="   34.108">  1  3  2 -1</clus>
</clustering>
</event>
<event>
 6    0  0.5563122E+002  0.1157346E+03  0.7546771E-02  0.1250304E+00
         21   -1    0    0  505  501  0.00000000000E+00  0.00000000000E+00  0.43403627460E+03  0.43403627460E+03  0.00000000000E+00 0.  1.
         21   -1    0    0  504  502 -0.00000000000E+00 -0.00000000000E+00 -0.46145644029E+02  0.46145644029E+02  0.00000000000E+00 0.  1.
         21    1    1    2  503  506  0.43652458899E+02  0.65019681757E+01  0.74314296348E+02  0.86431634254E+02  0.00000000000E+00 0.  1.
         21    1    1    2  504  501 -0.17909347473E+02 -0.26267526496E+02 -0.56336508663E-01  0.31791993472E+02  0.00000000000E+00 0.  1.
         21    1    1    2  505  503 -0.72047446927E+02 -0.56128823469E+02  0.17172572987E+03  0.19450194274E+03  0.00000000000E+00 0.  1.
         21    1    1    2  506  502  0.46304335501E+02  0.75894381789E+02  0.14190694087E+03  0.16745634816E+03  0.00000000000E+00 0.  1.
<scales pt_clust_3="38.73730" pt_clust_4="31.79194" pt_clust_5="102.80265" pt_clust_6="38.73730"></scales>
<clustering>
<clus scale="   31.792">  2  4  1 -1</clus>
<clus scale="   38.737">  3  6 -1 -1</clus>
<clus scale="  102.803">  1  5  2 -1</clus>
<clus scale="  102.803">  1  3  2 -1</clus>
</clustering>
</event>
<event>
 6    0  0.5563122E+002  0.1681868E+03  0.7546771E-02  0.1179752E+00
         21   -1    0    0  506  501  0.00000000000E+00  0.00000000000E+00  0.33875211021E+03  0.33875211021E+03  0.00000000000E+00 0. -1.
         21   -1    0    0  503  502 -0.00000000000E+00 -0.00000000000E+00 -0.29592234668E+03  0.29592234668E+03  0.00000000000E+00 0. -1.
         21    1    1    2  503  504  0.41325360171E+02 -0.19873885759E+02 -0.46543595121E+02  0.65338066816E+02  0.00000000000E+00 0. -1.
         21    1    1    2  504  505 -0.12507497504E+03  0.41153118341E+02 -0.15276255753E+03  0.20167728557E+03  0.00000000000E+00 0. -1.
         21    1    1    2  505  501 -0.49023990382E+02  0.42109184211E+02 -0.19489714340E+02  0.67500992533E+02  0.00000000000E+00 0.  1.
         21    1    1    2  506  502  0.13277360525E+03 -0.63388416793E+02  0.26162563053E+03  0.30015811197E+03  0.00000000000E+00 0. -1.
<scales pt_clust_3="45.85583" pt_clust_4="56.54384" pt_clust_5="56.54384" pt_clust_6="150.81032"></scales>
<clustering>
<clus scale="   45.856">  2  3  1 -1</clus>
<clus scale="   56.544">  4  5 -1 -1</clus>
<clus scale="  150.810">  1  6  2 -1</clus>
<clus scale="  150.810">  1  3  2 -1</clus>
</clustering>
</event>
<event>
 6    0  0.5563122E+002  0.1135875E+03  0.7546771E-02  0.1254067E+00
         21   -1    0    0  504  501  0.00000000000E+00  0.00000000000E+00  0.26733749677E+03  0.26733749677E+03  0.00000000000E+00 0. -1.
         21   -1    0    0  503  502 -0.00000000000E+00 -0.00000000000E+00 -0.66306469048E+03  0.66306469048E+03  0.00000000000E+00 0.  1.
         21    1    1    2  503  506  0.25597634048E+01  0.70282101555E+02 -0.15368255802E+03  0.16901022107E+03  0.00000000000E+00 0.  1.
         21    1    1    2  504  502 -0.17240107950E+02 -0.30417826921E+02  0.22133051392E+03  0.22407512559E+03  0.00000000000E+00 0. -1.
         21    1    1    2  505  501 -0.94861477822E+02  0.45885323002E+02 -0.89002967587E+02  0.13793364739E+03  0.00000000000E+00 0.  1.
         21    1    1    2  506  505  0.10954182237E+03 -0.85749597636E+02 -0.37437218202E+03  0.39938319320E+03  0.00000000000E+00 0.  1.
<scales pt_clust_3="65.06055" pt_clust_4="34.96377" pt_clust_5="113.58751" pt_clust_6="14000.00000"></scales>
<clustering>
<clus scale="   34.964">  1  4  2 -1</clus>
<clus scale="   65.061">  2  3  1 -1</clus>
<clus scale="  113.588">  1  5  2 -1</clus>
<clus scale="   34.964">  1  3  2 -1</clus>
</clustering>
</event>
<event>
 6    0  0.5563122E+002  0.2077670E+03  0.7546771E-02  0.1143347E+00
         21   -1    0    0  505  501  0.00000000000E+00  0.00000000000E+00  0.43937507776E+03  0.43937507776E+03  0.00000000000E+00 0. -1.
         21   -1    0    0  504  502 -0.00000000000E+00 -0.00000000000E+00 -0.11362381106E+04  0.11362381106E+04  0.00000000000E+00 0. -1.
         21    1    1    2  503  506  0.10782534945E+03 -0.44680091420E+02 -0.67847372765E+02  0.13500326865E+03  0.00000000000E+00 0. -1.
         21    1    1    2  504  503 -0.19350030409E+03  0.48882017700E+02 -0.99450539309E+03  0.10143336710E+04  0.00000000000E+00 0. -1.
         21    1    1    2  505  502  0.26847056693E+02 -0.17607390456E+02  0.36452136200E+03  0.36593251838E+03  0.00000000000E+00 0. -1.
         21    1    1    2  506  501  0.58827897947E+02  0.13405464175E+02  0.96837098520E+00  0.60343730321E+02  0.00000000000E+00 0. -1.
<scales pt_clust_3="51.42457" pt_clust_4="195.52722" pt_clust_5="32.10584" pt_clust_6="51.42457"></scales>
<clustering>
<clus scale="   32.106">  1  5  2 -1</clus>
<clus scale="   51.425">  3  6 -1 -1</clus>
<clus scale="  195.527">  2  4  1 -1</clus>
<clus scale="   32.106">  1  3  2 -1</clus>
</clustering>
</event>
<event>
 6    0  0.5563122E+002  0.7500772E+02  0.7546771E-02  0.1343847E+00
         21   -1    0    0  505  501  0.00000000000E+00  0.00000000000E+00  0.21910697575E+02  0.21910697575E+02  0.00000000000E+00 0. -1.
         21   -1    0    0  506  502 -0.00000000000E+00 -0.00000000000E+00 -0.32100607096E+04  0.32100607096E+04  0.00000000000E+00 0. -1.
         21    1    1    2  503  501  0.13792696354E+02 -0.45098635548E+02 -0.42345353369E+03  0.42607161440E+03  0.00000000000E+00 0. -1.
         21    1    1    2  504  502  0.24424473866E+02  0.66672694123E+02 -0.93561753807E+03  0.93830804143E+03  0.00000000000E+00 0. -1.
         21    1    1    2  505  504  0.41756227671E+02  0.16323894289E+02 -0.94584782952E+01  0.45820463613E+02  0.00000000000E+00 0. -1.
         21    1    1    2  506  503 -0.79973397891E+02 -0.37897952865E+02 -0.18196204620E+04  0.18217712878E+04  0.00000000000E+00 0. -1.
<scales pt_clust_3="48.57203" pt_clust_4="14000.00000" pt_clust_5="44.83360" pt_clust_6="75.00772"></scales>
<clustering>
<clus scale="   44.834">  1  5  2 -1</clus>
<clus scale="   48.572">  1  3  2 -1</clus>
<clus scale="   75.008">  2  6  1 -1</clus>
<clus scale="   44.834">  1  3  2 -1</clus>
</clustering>
</event>
<event>
 6    0  0.5563122E+002  0.1193063E+03  0.7546771E-02  0.1244246E+00
         21   -1    0    0  503  501  0.00000000000E+00  0.00000000000E+00  0.23426567674E+03  0.23426567674E+03  0.00000000000E+00 0.  1.
         21   -1    0    0  505  502 -0.00000000000E+00 -0.00000000000E+00 -0.32343676282E+03  0.32343676282E+03  0.00000000000E+00 0. -1.
         21    1    1    2  503  506 -0.39631257547E+02 -0.32386017778E+02  0.24520673118E+01  0.51239665849E+02  0.00000000000E+00 0. -1.
         21    1    1    2  504  501  0.28303814831E+02  0.49807608071E+02  0.86076506242E+02  0.10339762416E+03  0.00000000000E+00 0.  1.
         21    1    1    2  505  504  0.18371511794E+02  0.92838194088E+02  0.79205580972E+02  0.12340975158E+03  0.00000000000E+00 0.  1.
         21    1    1    2  506  502 -0.70440690779E+01 -0.11025978438E+03 -0.25690524061E+03  0.27965539797E+03  0.00000000000E+00 0. -1.
<scales pt_clust_3="51.18096" pt_clust_4="31.09216" pt_clust_5="31.09216" pt_clust_6="112.41439"></scales>
<clustering>
<clus scale="   31.092">  4  5 -1 -1</clus>
<clus scale="   51.181">  1  3  2 -1</clus>
<clus scale="  112.414">  2  6  1 -1</clus>
<clus scale="   51.181">  1  3  2 -1</clus>
</clustering>
</event>
<event>
 6    0  0.5563122E+002  0.1309429E+03  0.7546771E-02  0.1226063E+00
         21   -1    0    0  502  501  0.00000000000E+00  0.00000000000E+00  0.32513844980E+03  0.32513844980E+03  0.00000000000E+00 0.  1.
         21   -1    0    0  504  502 -0.00000000000E+00 -0.00000000000E+00 -0.21467579529E+03  0.21467579529E+03  0.00000000000E+00 0.  1.
         21    1    1    2  503  501 -0.13420307414E+02 -0.44643432997E+02  0.19135479136E+03  0.19695125524E+03  0.00000000000E+00 0.  1.
         21    1    1    2  504  506  0.56821155785E+02  0.68070755270E+02 -0.13951213967E+03  0.16530550076E+03  0.00000000000E+00 0.  1.
         21    1    1    2  505  503 -0.85630881570E+02 -0.31642880356E+02  0.86928583205E+02  0.12605751994E+03  0.00000000000E+00 0.  1.
         21    1    1    2  506  505  0.42230033198E+02  0.82155580836E+01 -0.28308580392E+02  0.51499969149E+02  0.00000000000E+00 0.  1.
<scales pt_clust_3="46.61696" pt_clust_4="39.46525" pt_clust_5="118.05073" pt_clust_6="39.46525"></scales>
<clustering>
<clus scale="   39.465">  4  6 -1 -1</clus>
<clus scale="   46.617">  1  3  2 -1</clus>
<clus scale="  118.051">  1  5  2 -1</clus>
<clus scale="   46.617">  1  3  2 -1</clus>
</clustering>
</event>
<event>
 6    0  0.5563122E+002  0.8169667E+02  0.7546771E-02  0.1324304E+00
         21   -1    0    0  502  501  0.00000000000E+00  0.00000000000E+00  0.15050512695E+03  0.15050512695E+03  0.00000000000E+00 0.  1.
         21   -1    0    0  505  502 -0.00000000000E+00 -0.00000000000E+00 -0.56877655157E+03  0.56877655157E+03  0.00000000000E+00 0. -1.
         21    1    1    2  503  501 -0.46966630774E+02  0.84183576646E+02  0.86900492336E+02  0.12978611078E+03  0.00000000000E+00 0.  1.
         21    1    1    2  504  506  0.56005388580E+02  0.61047501123E+01 -0.77446545537E+02  0.95769718281E+02  0.00000000000E+00 0. -1.
         21    1    1    2  505  504  0.48001717392E+02 -0.24837420916E+02 -0.39845835012E+03  0.40210709908E+03  0.00000000000E+00 0. -1.
         21    1    1    2  506  503 -0.57040475198E+02 -0.65450905843E+02 -0.29267021293E+02  0.91618750384E+02  0.00000000000E+00 0.  1.
<scales pt_clust_3="14000.00000" pt_clust_4="80.95352" pt_clust_5="54.04685" pt_clust_6="81.69667"></scales>
<clustering>
<clus scale="   54.047">  2  5  1 -1</clus>
<clus scale="   80.954">  2  4  1 -1</clus>
<clus scale="   81.697">  2  6  1 -1</clus>
<clus scale="   81.697">  1  3  2 -1</clus>
</clustering>
</event>
<event>
 6    0  0.5563122E+002  0.1145056E+03  0.7546771E-02  0.1252447E+00
         21   -1    0    0  506  501  0.00000000000E+00  0.00000000000E+00  0.39501394897E+03  0.39501394897E+03  0.00000000000E+00 0. -1.
         21   -1    0    0  503  502 -0.00000000000E+00 -0.00000000000E+00 -0.43741672889E+03  0.43741672889E+03  0.00000000000E+00 0. -1.
         21    1    1    2  503  504 -0.32380960794E+02  0.22763720858E+02 -0.34119397189E+03  0.34348222670E+03  0.00000000000E+00 0. -1.
         21    1    1    2  504  501  0.38039061178E+02  0.56140579892E+02 -0.32376118979E+02  0.75146177321E+02  0.00000000000E+00 0. -1.
         21    1    1    2  505  502 -0.28052873003E+02  0.63417591295E+02  0.22062465665E+02  0.72770234029E+02  0.00000000000E+00 0. -1.
         21    1    1    2  506  505  0.22394772619E+02 -0.14232189205E+03  0.30910484528E+03  0.34103203980E+03  0.00000000000E+00 0. -1.
<scales pt_clust_3="39.58173" pt_clust_4="71.77690" pt_clust_5="114.50559" pt_clust_6="14000.00000"></scales>
<clustering>
<clus scale="   39.582">  2  3  1 -1</clus>
<clus scale="   71.777">  2  4  1 -1</clus>
<clus scale="  114.506">  2  5  1 -1</clus>
<clus scale="  114.506">  1  3  2 -1</clus>
</clustering>
</event>
<event>
 6    0  0.5563122E+002  0.1552206E+03  0.7546771E-02  0.1194201E+00
         21   -1    0    0  505  501  0.00000000000E+00  0.00000000000E+00  0.28354648109E+03  0.28354648109E+03  0.00000000000E+00 0.  1.
         21   -1    0    0  506  502 -0.00000000000E+00 -0.00000000000E+00 -0.28955336272E+03  0.28955336272E+03  0.00000000000E+00 0. -1.
         21    1    1    2  503  501  0.31983739480E+02  0.11650932488E+02  0.59218294948E+01  0.34551004088E+02  0.00000000000E+00 0.  1.
         21    1    1    2  504  502 -0.54464350868E+02  0.82036300072E+02  0.11978374055E+03  0.15506277615E+03  0.00000000000E+00 0.  1.
         21    1    1    2  505  504 -0.63328265886E+02  0.24603327914E+02  0.93159081189E+02  0.11530137646E+03  0.00000000000E+00 0.  1.
         21    1    1    2  506  503  0.85808877275E+02 -0.11829056047E+03 -0.22487153287E+03  0.26818468713E+03  0.00000000000E+00 0. -1.
<scales pt_clust_3="34.03974" pt_clust_4="39.09230" pt_clust_5="39.09230" pt_clust_6="146.92994"></scales>
<clustering>
<clus scale="   34.040">  1  3  2 -1</clus>
<clus scale="   39.092">  4  5 -1 -1</clus>
<clus scale="  146.930">  2  6  1 -1</clus>
<clus scale="   34.040">  1  3  2 -1</clus>
</clustering>
</event>
<event>
 6    0  0.5563122E+002  0.7810795E+02  0.7546771E-02  0.1334508E+00
         21   -1    0    0  506  501  0.00000000000E+00  0.00000000000E+00  0.25396782534E+03  0.25396782534E+03  0.00000000000E+00 0. -1.
         21   -1    0    0  504  502 -0.00000000000E+00 -0.00000000000E+00 -0.84831307399E+03  0.84831307399E+03  0.00000000000E+00 0. -1.
         21    1    1    2  503  501 -0.96727888168E+02  0.40357575293E+02 -0.65349357007E+02  0.12351338670E+03  0.00000000000E+00 0. -1.
         21    1    1    2  504  503 -0.14338512741E+02 -0.80964300865E+02 -0.22109164430E+03  0.23588625679E+03  0.00000000000E+00 0. -1.
         21    1    1    2  505  502  0.72810118319E+02  0.44762888396E+02 -0.52017536575E+03  0.52715030175E+03  0.00000000000E+00 0. -1.
         21    1    1    2  506  505  0.38256282590E+02 -0.41561628234E+01  0.21227111840E+03  0.21573095410E+03  0.00000000000E+00 0. -1.
<scales pt_clust_3="78.35613" pt_clust_4="14000.00000" pt_clust_5="78.10795" pt_clust_6="38.48138"></scales>
<clustering>
<clus scale="   38.481">  1  6  2 -1</clus>
<clus scale="   78.356">  1  3  2 -1</clus>
<clus scale="   78.108">  2  5  1 -1</clus>
<clus scale="   38.481">  1  3  2 -1</clus>
</clustering>
</event>
<event>
 6    0  0.5563122E+002  0.1318702E+03  0.7546771E-02  0.1224707E+00
         21   -1    0    0  506  501  0.00000000000E+00  0.00000000000E+00  0.43819528703E+03  0.43819528703E+03  0.00000000000E+00 0.  1.
         21   -1    0    0  503  502 -0.00000000000E+00 -0.00000000000E+00 -0.31455321672E+03  0.31455321672E+03  0.00000000000E+00 0.  1.
         21    1    1    2  503  505  0.29354968385E+02 -0.52853839554E+02 -0.30404541297E+02  0.67673323075E+02  0.00000000000E+00 0. -1.
         21    1    1    2  504  502 -0.91992195413E+02  0.75517320889E+02 -0.19276922275E+03  0.22655110463E+03  0.00000000000E+00 0.  1.
         21    1    1    2  505  501  0.10872173472E+03 -0.10193695312E+03  0.33425100767E+03  0.36597171222E+03  0.00000000000E+00 0.  1.
         21    1    1    2  506  504 -0.46084507695E+02  0.79273471789E+02  0.12564826687E+02  0.92552363821E+02  0.00000000000E+00 0.  1.
<scales pt_clust_3="60.45860" pt_clust_4="76.65745" pt_clust_5="131.87017" pt_clust_6="14000.00000"></scales>
<clustering>
<clus scale="   60.459">  2  3  1 -1</clus>
<clus scale="   76.657">  2  4  1 -1</clus>
<clus scale="  131.870">  1  5  2 -1</clus>
<clus scale="  131.870">  1  3  2 -1</clus>
</clustering>
</event>
<event>
 6    0  0.5563122E+002  0.1527341E+03  0.7546771E-02  0.1197153E+00
         21   -1    0    0  506  501  0.00000000000E+00  0.00000000000E+00  0.15670064147E+04  0.15670064147E+04  0.00000000000E+00 0. -1.
         21   -1    0    0  504  502 -0.00000000000E+00 -0.00000000000E+00 -0.82267043490E+03  0.82267043490E+03  0.00000000000E+00 0.  1.
         21    1    1    2  503  501  0.12267502427E+03 -0.18762099529E+03 -0.57391095975E+03  0.61613682667E+03  0.00000000000E+00 0.  1.
         21    1    1    2  504  503 -0.22724767882E+02  0.19875429879E+02 -0.19868999585E+03  0.20097055068E+03  0.00000000000E+00 0.  1.
         21    1    1    2  505  502 -0.61883862461E+01  0.47752480472E+02  0.14460977054E+00  0.48152013744E+02  0.00000000000E+00 0.  1.
         21    1    1    2  506  505 -0.93761870145E+02  0.11999308494E+03  0.15167923256E+04  0.15244174585E+04  0.00000000000E+00 0. -1.
<scales pt_clust_3="14000.00000" pt_clust_4="30.19019" pt_clust_5="49.03003" pt_clust_6="152.73407"></scales>
<clustering>
<clus scale="   30.190">  2  4  1 -1</clus>
<clus scale="   49.030">  2  5  1 -1</clus>
<clus scale="  152.734">  1  6  2 -1</clus>
<clus scale="  152.734">  1  3  2 -1</clus>
</clustering>
</event>
<event>
 6    0  0.5563122E+002  0.1094655E+03  0.7546771E-02  0.1261563E+00
         21   -1    0    0  506  501  0.00000000000E+00  0.00000000000E+00  0.22549354916E+03  0.22549354916E+03  0.00000000000E+00 0. -1.
         21   -1    0    0  503  502 -0.00000000000E+00 -0.00000000000E+00 -0.11237700117E+04  0.11237700117E+04  0.00000000000E+00 0. -1.
         21    1    1    2  503  504 -0.70497220864E+02  0.84895529910E+02 -0.25015865025E+03  0.27341627502E+03  0.00000000000E+00 0. -1.
         21    1    1    2  504  501  0.29025808849E+02  0.42435362307E+02  0.19464810766E+03  0.20132347943E+03  0.00000000000E+00 0. -1.
         21    1    1    2  505  502  0.20388633795E+01 -0.11562231858E+03 -0.81878267991E+03  0.82690855265E+03  0.00000000000E+00 0. -1.
         21    1    1    2  506  505  0.39432548636E+02 -0.11708573635E+02 -0.23983240056E+02  0.47615253775E+02  0.00000000000E+00 0. -1.
<scales pt_clust_3="14000.00000" pt_clust_4="72.77476" pt_clust_5="109.46550" pt_clust_6="41.13413"></scales>
<clustering>
<clus scale="   41.134">  1  6  2 -1</clus>
<clus scale="   72.775">  1  4  2 -1</clus>
<clus scale="  109.466">  2  5  1 -1</clus>
<clus scale="   41.134">  1  3  2 -1</clus>
</clustering>
</event>
<event>
 6    0  0.5563122E+002  0.9306565E+02  0.7546771E-02  0.1295593E+00
         21   -1    0    0  504  501  0.00000000000E+00  0.00000000000E+00  0.37761438581E+03  0.37761438581E+03  0.00000000000E+00 0.  1.
         21   -1    0    0  505  502 -0.00000000000E+00 -0.00000000000E+00 -0.13471081586E+03  0.13471081586E+03  0.00000000000E+00 0.  1.
         21    1    1    2  503  502 -0.30555343166E+02  0.21981350914E+02 -0.30069221733E+02  0.48176414143E+02  0.00000000000E+00 0.  1.
         21    1    1    2  504  506 -0.57184511352E+02 -0.88634405823E+02  0.29570025291E+03  0.31395026008E+03  0.00000000000E+00 0.  1.
         21    1    1    2  505  501  0.77954320172E+02  0.45759747238E+01 -0.35970112868E+02  0.85974790479E+02  0.00000000000E+00 0.  1.
         21    1    1    2  506  503  0.97855343456E+01  0.62077080185E+02  0.13242651639E+02  0.64223736960E+02  0.00000000000E+00 0.  1.
<scales pt_clust_3="37.64052" pt_clust_4="14000.00000" pt_clust_5="61.35064" pt_clust_6="93.06565"></scales>
<clustering>
<clus scale="   37.641">  2  3  1 -1</clus>
<clus scale="   61.351">  2  5  1 -1</clus>
<clus scale="   93.066">  2  6  1 -1</clus>
<clus scale="   93.066">  1  3  2 -1</clus>
</clustering>
</event>
<event>
 6    0  0.5563122E+002  0.9251136E+02  0.7546771E-02  0.1296882E+00
         21   -1    0    0  504  501  0.00000000000E+00  0.00000000000E+00  0.10563850051E+03  0.10563850051E+03  0.00000000000E+00 0. -1.
         21   -1    0    0  505  502 -0.00000000000E+00 -0.00000000000E+00 -0.37138399196E+03  0.37138399196E+03  0.00000000000E+00 0. -1.
         21    1    1    2  503  506  0.23191432431E+02  0.78518549642E+02 -0.71182506174E+02  0.10848942050E+03  0.00000000000E+00 0. -1.
         21    1    1    2  504  502 -0.63731934726E+02 -0.11029544317E+03 -0.73991884509E+02  0.14731477611E+03  0.00000000000E+00 0. -1.
         21    1    1    2  505  503  0.77901041461E+02  0.37373914723E+02 -0.15015237505E+03  0.17323717123E+03  0.00000000000E+00 0. -1.
         21    1    1    2  506  501 -0.37360539166E+02 -0.55970211951E+01  0.29581274273E+02  0.47981124629E+02  0.00000000000E+00 0. -1.
<scales pt_clust_3="78.00889" pt_clust_4="14000.00000" pt_clust_5="92.51136" pt_clust_6="37.77746"></scales>
<clustering>
<clus scale="   37.777">  1  6  2 -1</clus>
<clus scale="   78.009">  1  3  2 -1</clus>
<clus scale="   92.511">  2  5  1 -1</clus>
<clus scale="   37.777">  1  3  2 -1</clus>
</clustering>
</event>
<event>
 6    0  0.5563122E+002  0.1159882E+03  0.7546771E-02  0.1249866E+00
         21   -1    0    0  505  501  0.00000000000E+00  0.00000000000E+00  0.39159433275E+03  0.39159433275E+03  0.00000000000E+00 0. -1.
         21   -1    0    0  504  502 -0.00000000000E+00 -0.00000000000E+00 -0.23071718379E+03  0.23071718379E+03  0.00000000000E+00 0.  1.
         21    1    1    2  503  501  0.72726090775E+02 -0.88769438054E+02  0.20426327106E+03  0.23429165865E+03  0.00000000000E+00 0. -1.
         21    1    1    2  504  503  0.74544314662E+02  0.31016261255E+02 -0.90868344354E+02  0.12155623931E+03  0.00000000000E+00 0.  1.
         21    1    1    2  505  506 -0.10634457269E+03 -0.45708145945E+02  0.90750046382E+02  0.14708491991E+03  0.00000000000E+00 0.  1.
         21    1    1    2  506  502 -0.40925832746E+02  0.10346132274E+03 -0.43267824118E+02  0.11937869866E+03  0.00000000000E+00 0.  1.
<scales pt_clust_3="14000.00000" pt_clust_4="80.73948" pt_clust_5="97.48680" pt_clust_6="115.98818"></scales>
<clustering>
<clus scale="   80.739">  2  4  1 -1</clus>
<clus scale="   97.487">  1  5  2 -1</clus>
<clus scale="  115.988">  2  6  1 -1</clus>
<clus scale="   97.487">  1  3  2 -1</clus>
</clustering>
</event>
<event>
 6    0  0.5563122E+002  0.1387350E+03  0.7546771E-02  0.1215041E+00
         21   -1    0    0  502  501  0.00000000000E+00  0.00000000000E+00  0.21577382892E+04  0.21577382892E+04  0.00000000000E+00 0. -1.
         21   -1    0    0  504  502 -0.00000000000E+00 -0.00000000000E+00 -0.49453907138E+02  0.49453907138E+02  0.00000000000E+00 0.  1.
         21    1    1    2  503  505 -0.41244650543E+02 -0.93773847861E+02  0.64269784377E+03  0.65081116626E+03  0.00000000000E+00 0. -1.
         21    1    1    2  504  506  0.95803090636E+01  0.31167013272E+02 -0.70468328866E+01  0.33359000162E+02  0.00000000000E+00 0.  1.
         21    1    1    2  505  501 -0.75667942842E+01 -0.29236327468E+02  0.13980467105E+04  0.13983728487E+04  0.00000000000E+00 0. -1.
         21    1    1    2  506  503  0.39231135764E+02  0.91843162057E+02  0.74586660692E+02  0.12464918124E+03  0.00000000000E+00 0.  1.
<scales pt_clust_3="127.89260" pt_clust_4="31.08997" pt_clust_5="30.19966" pt_clust_6="31.08997"></scales>
<clustering>
<clus scale="   30.200">  1  5  2 -1</clus>
<clus scale="   31.090">  4  6 -1 -1</clus>
<clus scale="  127.893">  1  3  2 -1</clus>
<clus scale="   30.200">  1  3  2 -1</clus>
</clustering>
</event>
<event>
 6    0  0.5563122E+002  0.8020473E+02  0.7546771E-02  0.1328471E+00
         21   -1    0    0  506  501  0.00000000000E+00  0.00000000000E+00  0.14931348341E+04  0.14931348341E+04  0.00000000000E+00 0. -1.
         21   -1    0    0  505  502 -0.00000000000E+00 -0.00000000000E+00 -0.38409587352E+03  0.38409587352E+03  0.00000000000E+00 0.  1.
         21    1    1    2  503  504  0.57908068830E+02 -0.27289031977E+02 -0.55614892308E+00  0.64018317718E+02  0.00000000000E+00 0. -1.
         21    1    1    2  504  502 -0.41926927557E+02 -0.32166549935E+02 -0.27113231827E+03  0.27623411846E+03  0.00000000000E+00 0.  1.
         21    1    1    2  505  501 -0.43187293669E+02  0.10657504596E+03 -0.35003298749E+02  0.12020238633E+03  0.00000000000E+00 0. -1.
         21    1    1    2  506  503  0.27206152395E+02 -0.47119464044E+02  0.14157307265E+04  0.14167758851E+04  0.00000000000E+00 0. -1.
<scales pt_clust_3="14000.00000" pt_clust_4="52.84462" pt_clust_5="80.20473" pt_clust_6="54.44291"></scales>
<clustering>
<clus scale="   52.845">  2  4  1 -1</clus>
<clus scale="   54.443">  1  6  2 -1</clus>
<clus scale="   80.205">  1  5  2 -1</clus>
<clus scale="   54.443">  1  3  2 -1</clus>
</clustering>
</event>
<event>
 6    0  0.5563122E+002  0.1395221E+03  0.7546771E-02  0.1213973E+00
         21   -1    0    0  506  501  0.00000000000E+00  0.00000000000E+00  0.26699752134E+03  0.26699752134E+03  0.00000000000E+00 0. -1.
         21   -1    0    0  501  502 -0.00000000000E+00 -0.00000000000E+00 -0.46248367006E+03  0.46248367006E+03  0.00000000000E+00 0. -1.
         21    1    1    2  503  504 -0.37796711896E+02  0.37876948671E+02  0.12061055837E+02  0.54851834415E+02  0.00000000000E+00 0. -1.
         21    1    1    2  504  502 -0.11807902820E+02 -0.51886648287E+02 -0.33284620556E+03  0.33707305943E+03  0.00000000000E+00 0. -1.
         21    1    1    2  505  503 -0.24382109696E+02  0.10327723438E+03 -0.57798954291E+02  0.12083622607E+03  0.00000000000E+00 0. -1.
         21    1    1    2  506  505  0.73986724412E+02 -0.89267534765E+02  0.18309795529E+03  0.21672007149E+03  0.00000000000E+00 0. -1.
<scales pt_clust_3="50.12989" pt_clust_4="53.21326" pt_clust_5="50.12989" pt_clust_6="120.34446"></scales>
<clustering>
<clus scale="   50.130">  3  5 -1 -1</clus>
<clus scale="   53.213">  2  4  1 -1</clus>
<clus scale="  120.344">  1  6  2 -1</clus>
<clus scale="  120.344">  1  3  2 -1</clus>
</clustering>
</event>
<event>
 6    0  0.5563122E+002  0.1010119E+03  0.7546771E-02  0.1278182E+00
         21   -1    0    0  505  501  0.00000000000E+00  0.00000000000E+00  0.54099838538E+03  0.54099838538E+03  0.00000000000E+00 0.  1.
         21   -1    0    0  506  502 -0.00000000000E+00 -0.00000000000E+00 -0.24095717482E+03  0.24095717482E+03  0.00000000000E+00 0. -1.
         21    1    1    2  503  501  0.28079995071E+02 -0.11787582635E+02  0.46982903841E+03  0.47081499398E+03  0.00000000000E+00 0.  1.
         21    1    1    2  504  502  0.19813208323E+02  0.31562934297E+02 -0.44231223384E+02  0.57837558450E+02  0.00000000000E+00 0.  1.
         21    1    1    2  505  504 -0.47798460254E+02  0.80077649136E+02 -0.12176919673E+03  0.15337816000E+03  0.00000000000E+00 0. -1.
         21    1    1    2  506  503 -0.94743140104E-01 -0.99853000797E+02 -0.37874077291E+01  0.99924847770E+02  0.00000000000E+00 0.  1.
<scales pt_clust_3="30.45379" pt_clust_4="37.85309" pt_clust_5="101.01193" pt_clust_6="14000.00000"></scales>
<clustering>
<clus scale="   30.454">  1  3  2 -1</clus>
<clus scale="   37.853">  2  4  1 -1</clus>
<clus scale="  101.012">  2  5  1 -1</clus>
<clus scale="   30.454">  1  3  2 -1</clus>
</clustering>
</event>
<event>
 6    0  0.5563122E+002  0.2830360E+03  0.7546771E-02  0.1094042E+00
         21   -1    0    0  502  501  0.00000000000E+00  0.00000000000E+00  0.82432634470E+03  0.82432634470E+03  0.00000000000E+00 0. -1.
         21   -1    0    0  505  502 -0.00000000000E+00 -0.00000000000E+00 -0.33457789489E+03  0.33457789489E+03  0.00000000000E+00 0. -1.
         21    1    1    2  503  504  0.92372894861E+02 -0.12391306419E+03  0.24355035479E+03  0.28845099150E+03  0.00000000000E+00 0. -1.
         21    1    1    2  504  506  0.41343114287E+02 -0.12770658300E+03  0.17317201015E+03  0.21910447175E+03  0.00000000000E+00 0. -1.
         21    1    1    2  505  503 -0.10178485494E+03  0.25800231333E+03 -0.22154991590E+03  0.35497847205E+03  0.00000000000E+00 0. -1.
         21    1    1    2  506  501 -0.31931154209E+02 -0.63826661419E+01  0.29457600077E+03  0.29637030430E+03  0.00000000000E+00 0. -1.
<scales pt_clust_3="49.85096" pt_clust_4="49.85096" pt_clust_5="278.11284" pt_clust_6="32.56282"></scales>
<clustering>
<clus scale="   32.563">  1  6  2 -1</clus>
<clus scale="   49.851">  3  4 -1 -1</clus>
<clus scale="  278.113">  2  5  1 -1</clus>
<clus scale="   32.563">  1  3  2 -1</clus>
</clustering>
</event>
<event>
 6    0  0.5563122E+002  0.8625884E+02  0.7546771E-02  0.1312173E+00
         21   -1    0    0  503  501  0.00000000000E+00  0.00000000000E+00  0.17560009582E+03  0.17560009582E+03  0.00000000000E+00 0. -1.
         21   -1    0    0  505  502 -0.00000000000E+00 -0.00000000000E+00 -0.32949435164E+03  0.32949435164E+03  0.00000000000E+00 0. -1.
         21    1    1    2  503  506  0.20844855349E+02  0.35515164530E+02  0.10469809093E+03  0.11250566719E+03  0.00000000000E+00 0. -1.
         21    1    1    2  504  501  0.45172637429E+02 -0.52293867143E+02 -0.55729227802E+02  0.88774785522E+02  0.00000000000E+00 0. -1.
         21    1    1    2  505  504 -0.40583702019E+02 -0.78442069642E+02 -0.18310793517E+03  0.20329464106E+03  0.00000000000E+00 0. -1.
         21    1    1    2  506  502 -0.25433790760E+02  0.95220772255E+02 -0.19755183771E+02  0.10051935369E+03  0.00000000000E+00 0. -1.
<scales pt_clust_3="41.18052" pt_clust_4="66.53382" pt_clust_5="14000.00000" pt_clust_6="86.25884"></scales>
<clustering>
<clus scale="   41.181">  1  3  2 -1</clus>
<clus scale="   66.534">  1  4  2 -1</clus>
<clus scale="   86.259">  1  6  2 -1</clus>
<clus scale="   41.181">  1  3  2 -1</clus>
</clustering>
</event>
<event>
 6    0  0.5563122E+002  0.1167794E+03  0.7546771E-02  0.1248507E+00
         21   -1    0    0  502  501  0.00000000000E+00  0.00000000000E+00  0.66970617285E+02  0.66970617285E+02  0.00000000000E+00 0. -1.
         21   -1    0    0  506  502 -0.00000000000E+00 -0.00000000000E+00 -0.32607537950E+03  0.32607537950E+03  0.00000000000E+00 0. -1.
         21    1    1    2  503  505  0.68301936339E+02 -0.11271992144E+03 -0.85405536098E+02  0.15705107702E+03  0.00000000000E+00 0. -1.
         21    1    1    2  504  501 -0.33066320483E+02  0.13438265723E+02 -0.23742832244E+02  0.42868293865E+02  0.00000000000E+00 0. -1.
         21    1    1    2  505  504 -0.93584038898E+01  0.63219739682E+02 -0.42193327379E+02  0.76580624731E+02  0.00000000000E+00 0. -1.
         21    1    1    2  506  503 -0.25877211966E+02  0.36061916039E+02 -0.10776306649E+03  0.11654600116E+03  0.00000000000E+00 0. -1.
<scales pt_clust_3="106.73921" pt_clust_4="35.40273" pt_clust_5="35.40273" pt_clust_6="44.38572"></scales>
<clustering>
<clus scale="   35.403">  4  5 -1 -1</clus>
<clus scale="   44.386">  2  6  1 -1</clus>
<clus scale="  106.739">  2  3  1 -1</clus>
<clus scale="  116.779">  1  3  2 -1</clus>
</clustering>
</event>
<event>
 6    0  0.5563122E+002  0.1371573E+03  0.7546771E-02  0.1217206E+00
         21   -1    0    0  503  501  0.00000000000E+00  0.00000000000E+00  0.16440013469E+03  0.16440013469E+03  0.00000000000E+00 0. -1.
         21   -1    0    0  505  502 -0.00000000000E+00 -0.00000000000E+00 -0.41132708502E+03  0.41132708502E+03  0.00000000000E+00 0. -1.
         21    1    1    2  503  502 -0.31695485083E+02  0.13436019923E+03 -0.32691567873E+02  0.14186615355E+03  0.00000000000E+00 0. -1.
         21    1    1    2  504  506  0.31832331476E+02 -0.25045771804E+02 -0.28716443056E+02  0.49651003155E+02  0.00000000000E+00 0. -1.
         21    1    1    2  505  504  0.24066818671E+02  0.29389145208E+02 -0.23265074918E+03  0.23573142496E+03  0.00000000000E+00 0. -1.
         21    1    1    2  506  501 -0.24203665065E+02 -0.13870357264E+03  0.47131809783E+02  0.14847863805E+03  0.00000000000E+00 0. -1.
<scales pt_clust_3="137.15726" pt_clust_4="41.52686" pt_clust_5="37.98597" pt_clust_6="14000.00000"></scales>
<clustering>
<clus scale="   37.986">  2  5  1 -1</clus>
<clus scale="   41.527">  2  4  1 -1</clus>
<clus scale="  137.157">  2  3  1 -1</clus>
<clus scale="  137.157">  1  3  2 -1</clus>
</clustering>
</event>
<event>
 6    0  0.5563122E+002  0.1322778E+03  0.7546771E-02  0.1224114E+00
         21   -1    0    0  506  501  0.00000000000E+00  0.00000000000E+00  0.81690097058E+02  0.81690097058E+02  0.00000000000E+00 0. -1.
         21   -1    0    0  504  502 -0.00000000000E+00 -0.00000000000E+00 -0.61402412952E+03  0.61402412952E+03  0.00000000000E+00 0.  1.
         21    1    1    2  503  502  0.70323757822E+02 -0.10416712931E+03 -0.21837827656E+03  0.25196288103E+03  0.00000000000E+00 0.  1.
         21    1    1    2  504  505 -0.13234751525E+03  0.75186658657E+02 -0.18462920610E+03  0.23928401989E+03  0.00000000000E+00 0. -1.
         21    1    1    2  505  501 -0.34026922685E+02  0.10595746773E+02  0.73683888351E+01  0.36392230917E+02  0.00000000000E+00 0. -1.
         21    1    1    2  506  503  0.96050680109E+02  0.18384723884E+02 -0.13669493864E+03  0.16807509474E+03  0.00000000000E+00 0. -1.
<scales pt_clust_3="14000.00000" pt_clust_4="132.27783" pt_clust_5="35.63848" pt_clust_6="89.65809"></scales>
<clustering>
<clus scale="   35.638">  1  5  2 -1</clus>
<clus scale="   89.658">  1  6  2 -1</clus>
<clus scale="  132.278">  1  4  2 -1</clus>
<clus scale="   35.638">  1  3  2 -1</clus>
</clustering>
</event>
<event>
 6    0  0.5563122E+002  0.1202132E+03  0.7546771E-02  0.1242746E+00
         21   -1    0    0  506  501  0.00000000000E+00  0.00000000000E+00  0.18542284824E+04  0.18542284824E+04  0.00000000000E+00 0. -1.
         21   -1    0    0  503  502 -0.00000000000E+00 -0.00000000000E+00 -0.25576972001E+02  0.25576972001E+02  0.00000000000E+00 0. -1.
         21    1    1    2  503  505 -0.43516884314E+02  0.18060238032E+02  0.59103090042E+03  0.59290590878E+03  0.00000000000E+00 0.  1.
         21    1    1    2  504  501 -0.21136595125E+02  0.33334785243E+02  0.20027615076E+03  0.20412863621E+03  0.00000000000E+00 0. -1.
         21    1    1    2  505  504 -0.43330054350E+02 -0.35591852943E+02  0.92301184641E+03  0.92471354603E+03  0.00000000000E+00 0. -1.
         21    1    1    2  506  502  0.10798353379E+03 -0.15803170333E+02  0.11433261280E+03  0.15805736336E+03  0.00000000000E+00 0. -1.
<scales pt_clust_3="53.99182" pt_clust_4="39.47105" pt_clust_5="53.99182" pt_clust_6="107.04011"></scales>
<clustering>
<clus scale="   39.471">  1  4  2 -1</clus>
<clus scale="   53.992">  3  5 -1 -1</clus>
<clus scale="  107.040">  2  6  1 -1</clus>
<clus scale="   39.471">  1  3  2 -1</clus>
</clustering>
</event>
<event>
 6    0  0.5563122E+002  0.1174106E+03  0.7546771E-02  0.1247431E+00
         21   -1    0    0  503  501  0.00000000000E+00  0.00000000000E+00  0.10506037372E+04  0.10506037372E+04  0.00000000000E+00 0.  1.
         21   -1    0    0  506  502 -0.00000000000E+00 -0.00000000000E+00 -0.23991806319E+03  0.23991806319E+03  0.00000000000E+00 0. -1.
         21    1    1    2  503  504  0.10775869814E+03  0.53494025022E+02  0.99901251854E+03  0.10062303712E+04  0.00000000000E+00 0.  1.
         21    1    1    2  504  502  0.42539909480E+00  0.41350365196E+02 -0.17540076545E+02  0.44918681541E+02  0.00000000000E+00 0. -1.
         21    1    1    2  505  501 -0.57510670487E+02 -0.49936799950E+02 -0.27649159466E+02  0.81028619810E+02  0.00000000000E+00 0. -1.
         21    1    1    2  506  505 -0.50673426745E+02 -0.44907590268E+02 -0.14313760853E+03  0.15834412783E+03  0.00000000000E+00 0. -1.
<scales pt_clust_3="14000.00000" pt_clust_4="41.35255" pt_clust_5="117.41060" pt_clust_6="52.56356"></scales>
<clustering>
<clus scale="   41.353">  2  4  1 -1</clus>
<clus scale="   52.564">  2  6  1 -1</clus>
<clus scale="  117.411">  2  5  1 -1</clus>
<clus scale="  117.411">  1  3  2 -1</clus>
</clustering>
</event>
<event>
 6    0  0.5563122E+002  0.1678404E+03  0.7546771E-02  0.1180119E+00
         21   -1    0    0  504  501  0.00000000000E+00  0.00000000000E+00  0.29031820321E+03  0.29031820321E+03  0.00000000000E+00 0.  1.
         21   -1    0    0  505  502 -0.00000000000E+00 -0.00000000000E+00 -0.12195457393E+03  0.12195457393E+03  0.00000000000E+00 0.  1.
         21    1    1    2  503  501  0.43051271420E+02 -0.31100278564E+02  0.34813141623E+02  0.63502709606E+02  0.00000000000E+00 0.  1.
         21    1    1    2  504  502 -0.17149414855E+03  0.12066121323E+02  0.10823697614E+03  0.20315284215E+03  0.00000000000E+00 0.  1.
         21    1    1    2  505  506  0.26763449989E+02  0.30217211900E+02  0.54638555120E+00  0.40369056064E+02  0.00000000000E+00 0. -1.
         21    1    1    2  506  503  0.10167942714E+03 -0.11183054659E+02  0.24767125966E+02  0.10524816932E+03  0.00000000000E+00 0.  1.
<scales pt_clust_3="33.73685" pt_clust_4="161.17755" pt_clust_5="40.36536" pt_clust_6="33.73685"></scales>
<clustering>
<clus scale="   33.737">  3  6 -1 -1</clus>
<clus scale="   40.365">  2  5  1 -1</clus>
<clus scale="  161.178">  1  4  2 -1</clus>
<clus scale="  161.178">  1  3  2 -1</clus>
</clustering>
</event>
<event>
 6    0  0.5563122E+002  0.3424898E+03  0.7546771E-02  0.1065740E+00
         21   -1    0    0  505  501  0.00000000000E+00  0.00000000000E+00  0.11317311994E+04  0.11317311994E+04  0.00000000000E+00 0.  1.
         21   -1    0    0  503  502 -0.00000000000E+00 -0.00000000000E+00 -0.17468368122E+04  0.17468368122E+04  0.00000000000E+00 0. -1.
         21    1    1    2  503  504 -0.85651916025E+01  0.71697444961E+02 -0.53409678529E+03  0.53895571449E+03  0.00000000000E+00 0.  1.
         21    1    1    2  504  501 -0.14114800462E+03  0.22152649783E+03 -0.10447358629E+04  0.10772510254E+04  0.00000000000E+00 0. -1.
         21    1    1    2  505  506 -0.44274359167E+01 -0.35301509074E+02  0.96122078924E+03  0.96187899675E+03  0.00000000000E+00 0.  1.
         21    1    1    2  506  502  0.15414063214E+03 -0.25792243372E+03  0.25062462564E+01  0.30048227495E+03  0.00000000000E+00 0.  1.
<scales pt_clust_3="55.11906" pt_clust_4="55.11906" pt_clust_5="35.57807" pt_clust_6="326.00902"></scales>
<clustering>
<clus scale="   35.578">  1  5  2 -1</clus>
<clus scale="   55.119">  3  4 -1 -1</clus>
<clus scale="  326.009">  1  6  2 -1</clus>
<clus scale="   35.578">  1  3  2 -1</clus>
</clustering>
</event>
<event>
 6    0  0.5563122E+002  0.8353558E+02  0.7546771E-02  0.1319307E+00
         21   -1    0    0  505  501  0.00000000000E+00  0.00000000000E+00  0.89890126868E+03  0.89890126868E+03  0.00000000000E+00 0. -1.
         21   -1    0    0  506  502 -0.00000000000E+00 -0.00000000000E+00 -0.75030075835E+03  0.75030075835E+03  0.00000000000E+00 0.  1.
         21    1    1    2  503  502  0.25679411044E+02 -0.43252470941E+02 -0.11553842919E+02  0.51611042232E+02  0.00000000000E+00 0.  1.
         21    1    1    2  504  501 -0.31436078558E+02  0.85181368035E+02 -0.29667630731E+03  0.31025944597E+03  0.00000000000E+00 0.  1.
         21    1    1    2  505  503 -0.40651174159E+02 -0.73160555785E+02  0.86817556777E+03  0.87220055111E+03  0.00000000000E+00 0. -1.
         21    1    1    2  506  504  0.46407841673E+02  0.31231658691E+02 -0.41134490722E+03  0.41513098772E+03  0.00000000000E+00 0.  1.
<scales pt_clust_3="50.30118" pt_clust_4="83.53558" pt_clust_5="14000.00000" pt_clust_6="61.50265"></scales>
<clustering>
<clus scale="   50.301">  2  3  1 -1</clus>
<clus scale="   61.503">  2  6  1 -1</clus>
<clus scale="   83.536">  2  4  1 -1</clus>
<clus scale="   83.536">  1  3  2 -1</clus>
</clustering>
</event>
<event>
 6    0  0.5563122E+002  0.1046141E+03  0.7546771E-02  0.1270882E+00
         21   -1    0    0  506  501  0.00000000000E+00  0.00000000000E+00  0.20889167158E+03  0.20889167158E+03  0.00000000000E+00 0.  1.
         21   -1    0    0  504  502 -0.00000000000E+00 -0.00000000000E+00 -0.72727295098E+03  0.72727295098E+03  0.00000000000E+00 0.  1.
         21    1    1    2  503  502 -0.12129001234E+03  0.16899801457E+02 -0.93621890711E+02  0.15414904736E+03  0.00000000000E+00 0.  1.
         21    1    1    2  504  505  0.66107052213E+01  0.40115827672E+02 -0.51989118744E+03  0.52147850180E+03  0.00000000000E+00 0.  1.
         21    1    1    2  505  501  0.72835796767E+02  0.45246725903E+02 -0.32521874215E+02  0.91706007426E+02  0.00000000000E+00 0.  1.
         21    1    1    2  506  503  0.41843510352E+02 -0.10226235503E+03  0.12765367297E+03  0.16883106598E+03  0.00000000000E+00 0.  1.
<scales pt_clust_3="14000.00000" pt_clust_4="40.65687" pt_clust_5="94.24845" pt_clust_6="104.61409"></scales>
<clustering>
<clus scale="   40.657">  2  4  1 -1</clus>
<clus scale="   94.248">  2  5  1 -1</clus>
<clus scale="  104.614">  1  6  2 -1</clus>
<clus scale="  104.614">  1  3  2 -1</clus>
</clustering>
</event>
<event>
 6    0  0.5563122E+002  0.1774450E+03  0.7546771E-02  0.1170299E+00
         21   -1    0    0  506  501  0.00000000000E+00  0.00000000000E+00  0.34857114647E+03  0.34857114647E+03  0.00000000000E+00 0. -1.
         21   -1    0    0  503  502 -0.00000000000E+00 -0.00000000000E+00 -0.44770805858E+03  0.44770805858E+03  0.00000000000E+00 0.  1.
         21    1    1    2  503  505 -0.24113659499E+02 -0.28834856389E+02 -0.24819911601E+03  0.25102931842E+03  0.00000000000E+00 0.  1.
         21    1    1    2  504  501  0.21679684739E+02  0.11468904347E+03 -0.66288390586E+02  0.13423016110E+03  0.00000000000E+00 0.  1.
         21    1    1    2  505  504 -0.18905357225E+02  0.82271814742E+02 -0.48554355484E+02  0.97383722815E+02  0.00000000000E+00 0.  1.
         21    1    1    2  506  502  0.21339331985E+02 -0.16812600182E+03  0.26390494997E+03  0.31363600271E+03  0.00000000000E+00 0. -1.
<scales pt_clust_3="37.58880" pt_clust_4="34.59553" pt_clust_5="34.59553" pt_clust_6="172.71900"></scales>
<clustering>
<clus scale="   34.596">  4  5 -1 -1</clus>
<clus scale="   37.589">  2  3  1 -1</clus>
<clus scale="  172.719">  1  6  2 -1</clus>
<clus scale="  172.719">  1  3  2 -1</clus>
</clustering>
</event>
<event>
 6    0  0.5563122E+002  0.1856511E+03  0.7546771E-02  0.1162443E+00
         21   -1    0    0  506  501  0.00000000000E+00  0.00000000000E+00  0.98546332414E+02  0.98546332414E+02  0.00000000000E+00 0.  1.
         21   -1    0    0  505  502 -0.00000000000E+00 -0.00000000000E+00 -0.10495030535E+04  0.10495030535E+04  0.00000000000E+00 0.  1.
         21    1    1    2  503  502  0.13860303401E+03  0.99033393737E+02 -0.18881863518E+03  0.25430472096E+03  0.00000000000E+00 0.  1.
         21    1    1    2  504  501 -0.14088847241E+03 -0.10637723930E+03 -0.70649343278E+03  0.72821607320E+03  0.00000000000E+00 0.  1.
         21    1    1    2  505  504 -0.46311894676E+02  0.17322328303E+02 -0.91712383867E+02  0.10419220701E+03  0.00000000000E+00 0.  1.
         21    1    1    2  506  503  0.48597333068E+02 -0.99784827363E+01  0.36067730713E+02  0.61336384779E+02  0.00000000000E+00 0.  1.
<scales pt_clust_3="185.65112" pt_clust_4="14000.00000" pt_clust_5="49.44547" pt_clust_6="48.96270"></scales>
<clustering>
<clus scale="   49.445">  2  5  1 -1</clus>
<clus scale="   48.963">  1  6  2 -1</clus>
<clus scale="  185.651">  1  3  2 -1</clus>
<clus scale="   48.963">  1  3  2 -1</clus>
</clustering>
</event>
<event>
 6    0  0.5563122E+002  0.1165823E+03  0.7546771E-02  0.1248844E+00
         21   -1    0    0  505  501  0.00000000000E+00  0.00000000000E+00  0.20070612681E+03  0.20070612681E+03  0.00000000000E+00 0.  1.
         21   -1    0    0  506  502 -0.00000000000E+00 -0.00000000000E+00 -0.19224735291E+03  0.19224735291E+03  0.00000000000E+00 0.  1.
         21    1    1    2  503  501  0.10472444666E+03 -0.25405351398E+02  0.72874293338E+02  0.13008960080E+03  0.00000000000E+00 0.  1.
         21    1    1    2  504  502 -0.23853225250E+02  0.47361683463E+02 -0.19238925543E+02  0.56411361190E+02  0.00000000000E+00 0.  1.
         21    1    1    2  505  504  0.25564010023E+02  0.25350884024E+02  0.46086193779E+02  0.58481819280E+02  0.00000000000E+00 0.  1.
         21    1    1    2  506  503 -0.10643523143E+03 -0.47307216088E+02 -0.91262787677E+02  0.14797069844E+03  0.00000000000E+00 0.  1.
<scales pt_clust_3="116.58230" pt_clust_4="54.59319" pt_clust_5="36.00258" pt_clust_6="14000.00000"></scales>
<clustering>
<clus scale="   36.003">  1  5  2 -1</clus>
<clus scale="   54.593">  2  4  1 -1</clus>
<clus scale="  116.582">  1  3  2 -1</clus>
<clus scale="   36.003">  1  3  2 -1</clus>
</clustering>
</event>
<event>
 6    0  0.5563122E+002  0.1289957E+03  0.7546771E-02  0.1228954E+00
         21   -1    0    0  506  501  0.00000000000E+00  0.00000000000E+00  0.25642904934E+03  0.25642904934E+03  0.00000000000E+00 0.  1.
         21   -1    0    0  504  502 -0.00000000000E+00 -0.00000000000E+00 -0.95969323210E+03  0.95969323210E+03  0.00000000000E+00 0.  1.
         21    1    1    2  503  501  0.11193985265E+03  0.20857483303E+02 -0.26539391056E+02  0.11691836681E+03  0.00000000000E+00 0.  1.
         21    1    1    2  504  505 -0.33300276753E+02 -0.57756010719E+02 -0.51641086276E+03  0.52069649930E+03  0.00000000000E+00 0.  1.
         21    1    1    2  505  503 -0.10559037354E+03  0.12010441286E+02 -0.36006263565E+03  0.37541800606E+03  0.00000000000E+00 0.  1.
         21    1    1    2  506  502  0.26950797644E+02  0.24888086129E+02  0.19974870670E+03  0.20308940926E+03  0.00000000000E+00 0.  1.
<scales pt_clust_3="14000.00000" pt_clust_4="65.30546" pt_clust_5="128.99569" pt_clust_6="36.68463"></scales>
<clustering>
<clus scale="   36.685">  1  6  2 -1</clus>
<clus scale="   65.305">  2  4  1 -1</clus>
<clus scale="  128.996">  2  5  1 -1</clus>
<clus scale="   36.685">  1  3  2 -1</clus>
</clustering>
</event>
<event>
 6    0  0.5563122E+002  0.1164851E+03  0.7546771E-02  0.1249011E+00
         21   -1    0    0  502  501  0.00000000000E+00  0.00000000000E+00  0.49765578798E+03  0.49765578798E+03  0.00000000000E+00 0. -1.
         21   -1    0    0  506  502 -0.00000000000E+00 -0.00000000000E+00 -0.18742423349E+03  0.18742423349E+03  0.00000000000E+00 0. -1.
         21    1    1    2  503  505  0.18847799125E+02  0.48152889050E+02 -0.11168398745E+02  0.52902489415E+02  0.00000000000E+00 0. -1.
         21    1    1    2  504  503 -0.72072963019E+02  0.92925810199E+02  0.39392366967E+02  0.12402208180E+03  0.00000000000E+00 0. -1.
         21    1    1    2  505  501 -0.15170827062E+02 -0.47280883173E+02  0.36314525583E+03  0.36652436855E+03  0.00000000000E+00 0. -1.
         21    1    1    2  506  504  0.68395990955E+02 -0.93797816076E+02 -0.81137669565E+02  0.14163108169E+03  0.00000000000E+00 0. -1.
<scales pt_clust_3="43.92699" pt_clust_4="116.48510" pt_clust_5="49.65517" pt_clust_6="14000.00000"></scales>
<clustering>
<clus scale="   49.655">  1  5  2 -1</clus>
<clus scale="   43.927">  1  3  2 -1</clus>
<clus scale="  116.485">  1  4  2 -1</clus>
<clus scale="   49.655">  1  3  2 -1</clus>
</clustering>
</event>
<event>
 6    0  0.5563122E+002  0.2737982E+03  0.7546771E-02  0.1099125E+00
         21   -1    0    0  504  501  0.00000000000E+00  0.00000000000E+00  0.37778918930E+03  0.37778918930E+03  0.00000000000E+00 0.  1.
         21   -1    0    0  506  502 -0.00000000000E+00 -0.00000000000E+00 -0.26984890798E+03  0.26984890798E+03  0.00000000000E+00 0.  1.
         21    1    1    2  503  501 -0.21688551032E+01 -0.54795366468E+02  0.11266113863E+03  0.12529871618E+03  0.00000000000E+00 0.  1.
         21    1    1    2  504  502 -0.15967261579E+03 -0.16046031405E+03  0.58546250994E+01  0.22644454785E+03  0.00000000000E+00 0.  1.
         21    1    1    2  505  503  0.12500476318E+03  0.65666202706E+02  0.30445849511E+01  0.14123565588E+03  0.00000000000E+00 0.  1.
         21    1    1    2  506  505  0.36836707715E+02  0.14958947781E+03 -0.13620067368E+02  0.15465917736E+03  0.00000000000E+00 0.  1.
<scales pt_clust_3="54.83827" pt_clust_4="245.05352" pt_clust_5="119.81083" pt_clust_6="119.81083"></scales>
<clustering>
<clus scale="   54.838">  1  3  2 -1</clus>
<clus scale="  119.811">  5  6 -1 -1</clus>
<clus scale="  245.054">  2  4  1 -1</clus>
<clus scale="   54.838">  1  3  2 -1</clus>
</clustering>
</event>
<event>
 6    0  0.5563122E+002  0.9429901E+02  0.7546771E-02  0.1292763E+00
         21   -1    0    0  505  501  0.00000000000E+00  0.00000000000E+00  0.13242622040E+03  0.13242622040E+03  0.00000000000E+00 0. -1.
         21   -1    0    0  503  502 -0.00000000000E+00 -0.00000000000E+00 -0.67814224604E+03  0.67814224604E+03  0.00000000000E+00 0. -1.
         21    1    1    2  503  506 -0.81293114247E+02  0.61307434884E+02 -0.51796405986E+03  0.52787682209E+03  0.00000000000E+00 0. -1.
         21    1    1    2  504  502  0.33858001082E+02  0.10219194717E+02 -0.40880192945E+02  0.54055400777E+02  0.00000000000E+00 0.  1.
         21    1    1    2  505  504 -0.19115861566E+02  0.68830485619E+02 -0.79516007563E+01  0.71876838192E+02  0.00000000000E+00 0. -1.
         21    1    1    2  506  501  0.66550974732E+02 -0.14035711522E+03  0.21079827921E+02  0.15675940538E+03  0.00000000000E+00 0. -1.
<scales pt_clust_3="14000.00000" pt_clust_4="35.36660" pt_clust_5="71.52043" pt_clust_6="94.29901"></scales>
<clustering>
<clus scale="   35.367">  2  4  1 -1</clus>
<clus scale="   71.520">  1  5  2 -1</clus>
<clus scale="   94.299">  1  6  2 -1</clus>
<clus scale="   71.520">  1  3  2 -1</clus>
</clustering>
</event>
<event>
 6    0  0.5563122E+002  0.2748552E+03  0.7546771E-02  0.1098533E+00
         21   -1    0    0  505  501  0.00000000000E+00  0.00000000000E+00  0.96559724746E+03  0.96559724746E+03  0.00000000000E+00 0. -1.
         21   -1    0    0  506  502 -0.00000000000E+00 -0.00000000000E+00 -0.27920352177E+03  0.27920352177E+03  0.00000000000E+00 0.  1.
         21    1    1    2  503  501 -0.63299877329E+02 -0.28805521200E+01  0.68201235550E+03  0.68494965151E+03  0.00000000000E+00 0. -1.
         21    1    1    2  504  503 -0.56294812424E+02 -0.67557212050E+02 -0.30079728949E+02  0.92940157625E+02  0.00000000000E+00 0.  1.
         21    1    1    2  505  502  0.19214797476E+03  0.22365686988E+03  0.38300765238E+02  0.29733850787E+03  0.00000000000E+00 0.  1.
         21    1    1    2  506  504 -0.72553285008E+02 -0.15321910571E+03 -0.38396660982E+01  0.16957245223E+03  0.00000000000E+00 0. -1.
<scales pt_clust_3="63.36539" pt_clust_4="35.41800" pt_clust_5="270.42016" pt_clust_6="35.41800"></scales>
<clustering>
<clus scale="   35.418">  4  6 -1 -1</clus>
<clus scale="   63.365">  1  3  2 -1</clus>
<clus scale="  270.420">  1  5  2 -1</clus>
<clus scale="   63.365">  1  3  2 -1</clus>
</clustering>
</event>
<event>
 6    0  0.5563122E+002  0.1211419E+03  0.7546771E-02  0.1241225E+00
         21   -1    0    0  503  501  0.00000000000E+00  0.00000000000E+00  0.14218706319E+04  0.14218706319E+04  0.00000000000E+00 0.  1.
         21   -1    0    0  504  502 -0.00000000000E+00 -0.00000000000E+00 -0.50897239568E+02  0.50897239568E+02  0.00000000000E+00 0.  1.
         21    1    1    2  503  502 -0.36648503113E+02  0.68723952957E+02  0.27112837688E+03  0.28209340872E+03  0.00000000000E+00 0.  1.
         21    1    1    2  504  505 -0.14759938477E+02 -0.82687884638E+02  0.17410220919E+02  0.85780288191E+02  0.00000000000E+00 0.  1.
         21    1    1    2  505  506  0.15292630974E+02 -0.42842072304E+02  0.40859002699E+02  0.61145448097E+02  0.00000000000E+00 0. -1.
         21    1    1    2  506  501  0.36115810615E+02  0.56806003985E+02  0.10415757919E+04  0.10437487265E+04  0.00000000000E+00 0.  1.
<scales pt_clust_3="110.64155" pt_clust_4="36.30560" pt_clust_5="36.30560" pt_clust_6="67.31474"></scales>
<clustering>
<clus scale="   36.306">  4  5 -1 -1</clus>
<clus scale="   67.315">  1  6  2 -1</clus>
<clus scale="  110.642">  1  3  2 -1</clus>
<clus scale="   67.315">  1  3  2 -1</clus>
</clustering>
</event>
<event>
 6    0  0.5563122E+002  0.1856804E+03  0.7546771E-02  0.1162416E+00
         21   -1    0    0  503  501  0.00000000000E+00  0.00000000000E+00  0.36521415415E+04  0.36521415415E+04  0.00000000000E+00 0.  1.
         21   -1    0    0  504  502 -0.00000000000E+00 -0.00000000000E+00 -0.44161987465E+02  0.44161987465E+02  0.00000000000E+00 0. -1.
         21    1    1    2  503  502  0.23772854666E+02  0.62543346874E+02  0.25521864547E+01  0.66957691962E+02  0.00000000000E+00 0. -1.
         21    1    1    2  504  505  0.15219779972E+03 -0.88454839583E+02  0.88167199985E+03  0.89907393700E+03  0.00000000000E+00 0. -1.
         21    1    1    2  505  506 -0.98892089740E+02  0.30347979210E+02  0.19301133977E+04  0.19328834350E+04  0.00000000000E+00 0.  1.
         21    1    1    2  506  501 -0.77078564645E+02 -0.44364865008E+01  0.79364196998E+03  0.79738846496E+03  0.00000000000E+00 0. -1.
<scales pt_clust_3="66.90903" pt_clust_4="174.85125" pt_clust_5="53.98129" pt_clust_6="53.98129"></scales>
<clustering>
<clus scale="   53.981">  5  6 -1 -1</clus>
<clus scale="   66.909">  2  3  1 -1</clus>
<clus scale="  174.851">  2  4  1 -1</clus>
<clus scale="  185.680">  1  3  2 -1</clus>
</clustering>
</event>
<event>
 6    0  0.5563122E+002  0.1051497E+03  0.7546771E-02  0.1269825E+00
         21   -1    0    0  506  501  0.00000000000E+00  0.00000000000E+00  0.41200701075E+03  0.41200701075E+03  0.00000000000E+00 0. -1.
         21   -1    0    0  503  502 -0.00000000000E+00 -0.00000000000E+00 -0.17709716800E+03  0.17709716800E+03  0.00000000000E+00 0.  1.
         21    1    1    2  503  501  0.89170774125E+01 -0.10056758759E+03 -0.15781056840E+02  0.10218804088E+03  0.00000000000E+00 0. -1.
         21    1    1    2  504  505 -0.31424578280E+02 -0.36168879617E+02  0.39050067409E+02  0.61811000133E+02  0.00000000000E+00 0.  1.
         21    1    1    2  505  502  0.37115634620E+02  0.10555698193E+03 -0.76095602442E+02  0.13531588037E+03  0.00000000000E+00 0.  1.
         21    1    1    2  506  504 -0.14608133753E+02  0.31179485278E+02  0.28773643463E+03  0.28978925737E+03  0.00000000000E+00 0. -1.
<scales pt_clust_3="105.14974" pt_clust_4="44.12447" pt_clust_5="14000.00000" pt_clust_6="34.43193"></scales>
<clustering>
<clus scale="   34.432">  1  6  2 -1</clus>
<clus scale="   44.124">  1  4  2 -1</clus>
<clus scale="  105.150">  1  3  2 -1</clus>
<clus scale="   34.432">  1  3  2 -1</clus>
</clustering>
</event>
<event>
 6    0  0.5563122E+002  0.1604816E+03  0.7546771E-02  0.1188154E+00
         21   -1    0    0  505  501  0.00000000000E+00  0.00000000000E+00  0.75254478953E+02  0.75254478953E+02  0.00000000000E+00 0.  1.
         21   -1    0    0  504  502 -0.00000000000E+00 -0.00000000000E+00 -0.22777602058E+04  0.22777602058E+04  0.00000000000E+00 0. -1.
         21    1    1    2  503  502 -0.37513139942E+02  0.89953441913E+01 -0.34392048282E+03  0.34607723182E+03  0.00000000000E+00 0. -1.
         21    1    1    2  504  506  0.79671426702E+02 -0.15878552248E+03 -0.16784785389E+04  0.16878538396E+04  0.00000000000E+00 0. -1.
         21    1    1    2  505  503 -0.12269454192E+02 -0.41242635294E+02 -0.10171141599E+03  0.11043870071E+03  0.00000000000E+00 0.  1.
         21    1    1    2  506  501 -0.29888832568E+02  0.19103281358E+03 -0.78395289074E+02  0.20864491253E+03  0.00000000000E+00 0.  1.
<scales pt_clust_3="38.57657" pt_clust_4="14000.00000" pt_clust_5="43.19463" pt_clust_6="160.48159"></scales>
<clustering>
<clus scale="   38.577">  2  3  1 -1</clus>
<clus scale="   43.195">  1  5  2 -1</clus>
<clus scale="  160.482">  1  6  2 -1</clus>
<clus scale="   43.195">  1  3  2 -1</clus>
</clustering>
</event>
<event>
 6    0  0.5563122E+002  0.1299542E+03  0.7546771E-02  0.1227524E+00
         21   -1    0    0  503  501  0.00000000000E+00  0.00000000000E+00  0.27180063690E+03  0.27180063690E+03  0.00000000000E+00 0.  1.
         21   -1    0    0  505  502 -0.00000000000E+00 -0.00000000000E+00 -0.43237743648E+03  0.43237743648E+03  0.00000000000E+00 0.  1.
         21    1    1    2  503  502  0.70064868849E+02  0.14421035567E+03 -0.61140665646E+02  0.17159223037E+03  0.00000000000E+00 0.  1.
         21    1    1    2  504  506 -0.50842525863E+02 -0.10855946815E+03 -0.25848545421E+02  0.12263061551E+03  0.00000000000E+00 0.  1.
         21    1    1    2  505  504  0.26200776818E+02 -0.90214545715E+02 -0.22439833156E+03  0.24326889684E+03  0.00000000000E+00 0.  1.
         21    1    1    2  506  501 -0.45423119804E+02  0.54563658198E+02  0.15081074305E+03  0.16668633065E+03  0.00000000000E+00 0.  1.
<scales pt_clust_3="14000.00000" pt_clust_4="129.95417" pt_clust_5="88.54350" pt_clust_6="70.99615"></scales>
<clustering>
<clus scale="   70.996">  1  6  2 -1</clus>
<clus scale="   88.543">  2  5  1 -1</clus>
<clus scale="  129.954">  1  4  2 -1</clus>
<clus scale="   70.996">  1  3  2 -1</clus>
</clustering>
</event>
<event>
 6    0  0.5563122E+002  0.8449910E+02  0.7546771E-02  0.1316748E+00
         21   -1    0    0  503  501  0.00000000000E+00  0.00000000000E+00  0.10670206008E+03  0.10670206008E+03  0.00000000000E+00 0.  1.
         21   -1    0    0  505  502 -0.00000000000E+00 -0.00000000000E+00 -0.76301950694E+03  0.76301950694E+03  0.00000000000E+00 0. -1.
         21    1    1    2  503  504  0.37523423815E+02 -0.73018994237E+02 -0.76695089294E+02  0.11234730783E+03  0.00000000000E+00 0. -1.
         21    1    1    2  504  502  0.52656319624E+02  0.71218530126E+01 -0.59046992178E+03  0.59285591615E+03  0.00000000000E+00 0. -1.
         21    1    1    2  505  506 -0.68765840920E+02 -0.17152600408E+02 -0.19558382498E+02  0.73521989256E+02  0.00000000000E+00 0.  1.
         21    1    1    2  506  501 -0.21413902519E+02  0.83049741633E+02  0.30405946721E+02  0.90996353786E+02  0.00000000000E+00 0.  1.
<scales pt_clust_3="84.49910" pt_clust_4="53.13576" pt_clust_5="56.55064" pt_clust_6="14000.00000"></scales>
<clustering>
<clus scale="   53.136">  2  4  1 -1</clus>
<clus scale="   56.551">  2  5  1 -1</clus>
<clus scale="   84.499">  2  3  1 -1</clus>
<clus scale="   84.499">  1  3  2 -1</clus>
</clustering>
</event>
<event>
 6    0  0.5563122E+002  0.1021687E+03  0.7546771E-02  0.1275800E+00
         21   -1    0    0  504  501  0.00000000000E+00  0.00000000000E+00  0.10938148341E+04  0.10938148341E+04  0.00000000000E+00 0.  1.
         21   -1    0    0  505  502 -0.00000000000E+00 -0.00000000000E+00 -0.11269584286E+03  0.11269584286E+03  0.00000000000E+00 0.  1.
         21    1    1    2  503  501  0.25381554986E+02  0.90587387161E+02  0.97357145679E+03  0.97810616986E+03  0.00000000000E+00 0.  1.
         21    1    1    2  504  502  0.68163113858E+02 -0.30759468406E+02 -0.56537318617E+02  0.93748724705E+02  0.00000000000E+00 0.  1.
         21    1    1    2  505  506 -0.44438647329E+02 -0.63717546044E+01  0.16344161624E+02  0.47775770557E+02  0.00000000000E+00 0. -1.
         21    1    1    2  506  503 -0.49106021515E+02 -0.53456164150E+02  0.47740691422E+02  0.86880011810E+02  0.00000000000E+00 0.  1.
<scales pt_clust_3="93.50469" pt_clust_4="74.78205" pt_clust_5="32.38063" pt_clust_6="32.38063"></scales>
<clustering>
<clus scale="   32.381">  5  6 -1 -1</clus>
<clus scale="   74.782">  2  4  1 -1</clus>
<clus scale="   93.505">  1  3  2 -1</clus>
<clus scale="   93.505">  1  3  2 -1</clus>
</clustering>
</event>
<event>
 6    0  0.5563122E+002  0.3190530E+03  0.7546771E-02  0.1076086E+00
         21   -1    0    0  504  501  0.00000000000E+00  0.00000000000E+00  0.46655766582E+03  0.46655766582E+03  0.00000000000E+00 0.  1.
         21   -1    0    0  505  502 -0.00000000000E+00 -0.00000000000E+00 -0.16770716729E+04  0.16770716729E+04  0.00000000000E+00 0.  1.
         21    1    1    2  503  501 -0.37834066654E+02  0.76781170491E+01  0.36955289764E+03  0.37156387638E+03  0.00000000000E+00 0.  1.
         21    1    1    2  504  506  0.22398886905E+03 -0.25244101485E+02 -0.83040313235E+03  0.86045199769E+03  0.00000000000E+00 0.  1.
         21    1    1    2  505  503 -0.25029019260E+03  0.78566753557E+02 -0.14348795877E+03  0.29900954765E+03  0.00000000000E+00 0. -1.
         21    1    1    2  506  502  0.64135390210E+02 -0.61000769121E+02 -0.60617581361E+03  0.61260391699E+03  0.00000000000E+00 0.  1.
<scales pt_clust_3="38.60531" pt_clust_4="79.04668" pt_clust_5="293.45172" pt_clust_6="79.04668"></scales>
<clustering>
<clus scale="   38.605">  1  3  2 -1</clus>
<clus scale="   79.047">  4  6 -1 -1</clus>
<clus scale="  293.452">  1  5  2 -1</clus>
<clus scale="   38.605">  1  3  2 -1</clus>
</clustering>
</event>
<event>
 6    0  0.5563122E+002  0.1026135E+03  0.7546771E-02  0.1274894E+00
         21   -1    0    0  505  501  0.00000000000E+00  0.00000000000E+00  0.22349965996E+03  0.22349965996E+03  0.00000000000E+00 0.  1.
         21   -1    0    0  503  502 -0.00000000000E+00 -0.00000000000E+00 -0.16888123436E+03  0.16888123436E+03  0.00000000000E+00 0.  1.
         21    1    1    2  503  501  0.19119224878E+02  0.10161389561E+03 -0.81473540951E+02  0.13163915229E+03  0.00000000000E+00 0.  1.
         21    1    1    2  504  506  0.35977393117E+02 -0.29759693977E+02 -0.24076147508E+01  0.46752634256E+02  0.00000000000E+00 0. -1.
         21    1    1    2  505  504 -0.23343982308E+02 -0.99808677379E+02  0.13771843276E+03  0.17167725625E+03  0.00000000000E+00 0.  1.
         21    1    1    2  506  502 -0.31752635687E+02  0.27954475745E+02  0.78114854362E+00  0.42311851535E+02  0.00000000000E+00 0.  1.
<scales pt_clust_3="102.61350" pt_clust_4="39.67397" pt_clust_5="14000.00000" pt_clust_6="42.30464"></scales>
<clustering>
<clus scale="   42.305">  2  6  1 -1</clus>
<clus scale="   39.674">  2  4  1 -1</clus>
<clus scale="  102.614">  2  3  1 -1</clus>
<clus scale="  102.614">  1  3  2 -1</clus>
</clustering>
</event>
<event>
 6    0  0.5563122E+002  0.2119660E+03  0.7546771E-02  0.1140018E+00
         21   -1    0    0  502  501  0.00000000000E+00  0.00000000000E+00  0.11546749698E+04  0.11546749698E+04  0.00000000000E+00 0. -1.
         21   -1    0    0  503  502 -0.00000000000E+00 -0.00000000000E+00 -0.52016106042E+02  0.52016106042E+02  0.00000000000E+00 0. -1.
         21    1    1    2  503  504  0.29101990295E+02 -0.31746458190E+02  0.52399435289E+02  0.67826722354E+02  0.00000000000E+00 0. -1.
         21    1    1    2  504  506 -0.11815711659E+03 -0.90451369059E+02  0.17485773688E+03  0.22960353332E+03  0.00000000000E+00 0. -1.
         21    1    1    2  505  501  0.13007342560E+03  0.14812707416E+03  0.71525410572E+03  0.74192261180E+03  0.00000000000E+00 0. -1.
         21    1    1    2  506  505 -0.41018299307E+02 -0.25929246907E+02  0.16014758588E+03  0.16733820839E+03  0.00000000000E+00 0. -1.
<scales pt_clust_3="43.06696" pt_clust_4="45.63442" pt_clust_5="196.15473" pt_clust_6="45.63442"></scales>
<clustering>
<clus scale="   43.067">  2  3  1 -1</clus>
<clus scale="   45.634">  4  6 -1 -1</clus>
<clus scale="  196.155">  1  5  2 -1</clus>
<clus scale="  196.155">  1  3  2 -1</clus>
</clustering>
</event>
<event>
 6    0  0.5563122E+002  0.1070982E+03  0.7546771E-02  0.1266040E+00
         21   -1    0    0  505  501  0.00000000000E+00  0.00000000000E+00  0.10960960404E+03  0.10960960404E+03  0.00000000000E+00 0.  1.
         21   -1    0    0  506  502 -0.00000000000E+00 -0.00000000000E+00 -0.17094611722E+04  0.17094611722E+04  0.00000000000E+00 0.  1.
         21    1    1    2  503  501  0.22720899571E+02  0.52322251378E+02  0.63361665723E+02  0.85255838215E+02  0.00000000000E+00 0.  1.
         21    1    1    2  504  503 -0.53971610766E+02 -0.13170658816E+03 -0.79982203563E+03  0.81238836084E+03  0.00000000000E+00 0.  1.
         21    1    1    2  505  502  0.45715477053E+01  0.57862045523E+02 -0.69182809621E+00  0.58046481260E+02  0.00000000000E+00 0.  1.
         21    1    1    2  506  504  0.26679163490E+02  0.21522291263E+02 -0.86269937018E+03  0.86338009595E+03  0.00000000000E+00 0.  1.
<scales pt_clust_3="57.43572" pt_clust_4="14000.00000" pt_clust_5="107.09820" pt_clust_6="34.27808"></scales>
<clustering>
<clus scale="   34.278">  2  6  1 -1</clus>
<clus scale="   57.436">  1  3  2 -1</clus>
<clus scale="  107.098">  1  5  2 -1</clus>
<clus scale="   57.436">  1  3  2 -1</clus>
</clustering>
</event>
<event>
 6    0  0.5563122E+002  0.1658941E+03  0.7546771E-02  0.1182199E+00
         21   -1    0    0  505  501  0.00000000000E+00  0.00000000000E+00  0.25747294483E+03  0.25747294483E+03  0.00000000000E+00 0. -1.
         21   -1    0    0  506  502 -0.00000000000E+00 -0.00000000000E+00 -0.50438649689E+03  0.50438649689E+03  0.00000000000E+00 0. -1.
         21    1    1    2  503  502  0.69617655273E+02 -0.98342762313E+02 -0.13251737920E+03  0.17910547902E+03  0.00000000000E+00 0. -1.
         21    1    1    2  504  501 -0.43723524484E+02 -0.35079324467E+02 -0.23224400024E+01  0.56104361024E+02  0.00000000000E+00 0. -1.
         21    1    1    2  505  503 -0.56592286343E+02  0.16904250166E+03  0.16662472091E+03  0.24401199122E+03  0.00000000000E+00 0. -1.
         21    1    1    2  506  504  0.30698155554E+02 -0.35620414880E+02 -0.27869845377E+03  0.28263761046E+03  0.00000000000E+00 0. -1.
<scales pt_clust_3="165.89407" pt_clust_4="56.17653" pt_clust_5="14000.00000" pt_clust_6="47.02330"></scales>
<clustering>
<clus scale="   47.023">  2  6  1 -1</clus>
<clus scale="   56.177">  2  4  1 -1</clus>
<clus scale="  165.894">  2  3  1 -1</clus>
<clus scale="  165.894">  1  3  2 -1</clus>
</clustering>
</event>
<event>
 6    0  0.5563122E+002  0.3369781E+03  0.7546771E-02  0.1068090E+00
         21   -1    0    0  505  501  0.00000000000E+00  0.00000000000E+00  0.57359230636E+03  0.57359230636E+03  0.00000000000E+00 0.  1.
         21   -1    0    0  504  502 -0.00000000000E+00 -0.00000000000E+00 -0.22779420685E+03  0.22779420685E+03  0.00000000000E+00 0.  1.
         21    1    1    2  503  502  0.77176044273E+02  0.10919788381E+03 -0.46952288012E+02  0.14172098287E+03  0.00000000000E+00 0.  1.
         21    1    1    2  504  506 -0.19528112248E+03 -0.21821984534E+03  0.23328203322E+03  0.37439968579E+03  0.00000000000E+00 0.  1.
         21    1    1    2  505  503  0.95598773483E+02  0.15471635537E+03  0.10217855324E+03  0.20860664623E+03  0.00000000000E+00 0.  1.
         21    1    1    2  506  501  0.22506304721E+02 -0.45694393832E+02  0.57289801064E+02  0.76659198312E+02  0.00000000000E+00 0. -1.
<scales pt_clust_3="123.46385" pt_clust_4="305.57589" pt_clust_5="123.46385" pt_clust_6="50.93635"></scales>
<clustering>
<clus scale="   50.936">  1  6  2 -1</clus>
<clus scale="  123.464">  3  5 -1 -1</clus>
<clus scale="  305.576">  1  4  2 -1</clus>
<clus scale="   50.936">  1  3  2 -1</clus>
</clustering>
</event>
<event>
 6    0  0.5563122E+002  0.1136848E+03  0.7546771E-02  0.1253895E+00
         21   -1    0    0  504  501  0.00000000000E+00  0.00000000000E+00  0.87909748259E+02  0.87909748259E+02  0.00000000000E+00 0.  1.
         21   -1    0    0  503  502 -0.00000000000E+00 -0.00000000000E+00 -0.10638903297E+04  0.10638903297E+04  0.00000000000E+00 0. -1.
         21    1    1    2  503  506  0.91531943364E+02  0.21420495289E+02 -0.89938540532E+03  0.90428482326E+03  0.00000000000E+00 0. -1.
         21    1    1    2  504  502  0.45638069540E+02  0.41498452722E+02  0.11560439220E+02  0.62758256227E+02  0.00000000000E+00 0.  1.
         21    1    1    2  505  501 -0.83705773473E+02 -0.69108290566E+02 -0.58843745682E+02  0.12347144910E+03  0.00000000000E+00 0.  1.
         21    1    1    2  506  505 -0.53464239432E+02  0.61893425550E+01 -0.29311869668E+02  0.61285549379E+02  0.00000000000E+00 0.  1.
<scales pt_clust_3="96.61725" pt_clust_4="61.68432" pt_clust_5="42.18649" pt_clust_6="42.18649"></scales>
<clustering>
<clus scale="   42.186">  5  6 -1 -1</clus>
<clus scale="   61.684">  1  4  2 -1</clus>
<clus scale="   96.617">  2  3  1 -1</clus>
<clus scale="   61.684">  1  3  2 -1</clus>
</clustering>
</event>
<event>
 6    0  0.5563122E+002  0.1994479E+03  0.7546771E-02  0.1150206E+00
         21   -1    0    0  505  501  0.00000000000E+00  0.00000000000E+00  0.31830145399E+04  0.31830145399E+04  0.00000000000E+00 0. -1.
         21   -1    0    0  506  502 -0.00000000000E+00 -0.00000000000E+00 -0.28983375209E+02  0.28983375209E+02  0.00000000000E+00 0. -1.
         21    1    1    2  503  504 -0.21020968208E+03 -0.23770343689E+02  0.18180569930E+04  0.18303235696E+04  0.00000000000E+00 0. -1.
         21    1    1    2  504  502  0.75793563451E+02 -0.49910181319E+02  0.17017279367E+03  0.19285867926E+03  0.00000000000E+00 0. -1.
         21    1    1    2  505  503 -0.14312232164E+02 -0.30010807447E+02  0.41914746973E+03  0.42046413632E+03  0.00000000000E+00 0. -1.
         21    1    1    2  506  501  0.14872835079E+03  0.10369133245E+03  0.74665390823E+03  0.76835152986E+03  0.00000000000E+00 0. -1.
<scales pt_clust_3="199.44790" pt_clust_4="91.07541" pt_clust_5="33.24889" pt_clust_6="14000.00000"></scales>
<clustering>
<clus scale="   33.249">  1  5  2 -1</clus>
<clus scale="   91.075">  2  4  1 -1</clus>
<clus scale="  199.448">  1  3  2 -1</clus>
<clus scale="   33.249">  1  3  2 -1</clus>
</clustering>
</event>
<event>
 6    0  0.5563122E+002  0.3105478E+03  0.7546771E-02  0.1080084E+00
         21   -1    0    0  503  501  0.00000000000E+00  0.00000000000E+00  0.53355884216E+03  0.53355884216E+03  0.00000000000E+00 0.  1.
         21   -1    0    0  505  502 -0.00000000000E+00 -0.00000000000E+00 -0.20988735462E+03  0.20988735462E+03  0.00000000000E+00 0.  1.
         21    1    1    2  503  504 -0.68715672888E+02  0.93245751359E+02  0.80422868939E+02  0.14101223952E+03  0.00000000000E+00 0.  1.
         21    1    1    2  504  506 -0.16917297007E+03  0.79073624370E+02  0.10828011342E+03  0.21586272219E+03  0.00000000000E+00 0.  1.
         21    1    1    2  505  501  0.23418814965E+03 -0.20514773918E+03  0.15515627252E+03  0.34785507504E+03  0.00000000000E+00 0.  1.
         21    1    1    2  506  502  0.37004933071E+01  0.32828363454E+02 -0.20187767332E+02  0.38716160033E+02  0.00000000000E+00 0. -1.
<scales pt_clust_3="58.72720" pt_clust_4="58.72720" pt_clust_5="301.61897" pt_clust_6="33.03627"></scales>
<clustering>
<clus scale="   33.036">  2  6  1 -1</clus>
<clus scale="   58.727">  3  4 -1 -1</clus>
<clus scale="  301.619">  2  5  1 -1</clus>
<clus scale="  310.548">  1  3  2 -1</clus>
</clustering>
</event>
<event>
 6    0  0.5563122E+002  0.9482418E+02  0.7546771E-02  0.1291573E+00
         21   -1    0    0  503  501  0.00000000000E+00  0.00000000000E+00  0.99297372385E+03  0.99297372385E+03  0.00000000000E+00 0.  1.
         21   -1    0    0  504  502 -0.00000000000E+00 -0.00000000000E+00 -0.94109609739E+02  0.94109609739E+02  0.00000000000E+00 0.  1.
         21    1    1    2  503  505  0.28041130089E+02  0.83126210041E+02  0.41446043960E+03  0.42364339693E+03  0.00000000000E+00 0.  1.
         21    1    1    2  504  501 -0.90867714616E+02  0.49977216012E+02 -0.37423968507E+02  0.11025070113E+03  0.00000000000E+00 0.  1.
         21    1    1    2  505  506  0.11761971941E+02 -0.11037637341E+03  0.44209209496E+03  0.45581433525E+03  0.00000000000E+00 0.  1.
         21    1    1    2  506  502  0.51064612587E+02 -0.22727052639E+02  0.79735548055E+02  0.97374900277E+02  0.00000000000E+00 0.  1.
<scales pt_clust_3="94.82418" pt_clust_4="55.63596" pt_clust_5="14000.00000" pt_clust_6="55.89377"></scales>
<clustering>
<clus scale="   55.894">  2  6  1 -1</clus>
<clus scale="   55.636">  2  4  1 -1</clus>
<clus scale="   94.824">  1  3  2 -1</clus>
<clus scale="   94.824">  1  3  2 -1</clus>
</clustering>
</event>
<event>
 6    0  0.5563122E+002  0.1566449E+03  0.7546771E-02  0.1192538E+00
         21   -1    0    0  505  501  0.00000000000E+00  0.00000000000E+00  0.19374107049E+04  0.19374107049E+04  0.00000000000E+00 0. -1.
         21   -1    0    0  506  502 -0.00000000000E+00 -0.00000000000E+00 -0.61058926198E+02  0.61058926198E+02  0.00000000000E+00 0. -1.
         21    1    1    2  503  502  0.13353082880E+03 -0.36718269589E+02  0.35079752644E+02  0.14286113050E+03  0.00000000000E+00 0. -1.
         21    1    1    2  504  503 -0.10753253185E+03 -0.24424177152E+02  0.65219418369E+03  0.66145070797E+03  0.00000000000E+00 0. -1.
         21    1    1    2  505  504 -0.56728152422E+02  0.23415440273E+02  0.66610238549E+03  0.66892357865E+03  0.00000000000E+00 0. -1.
         21    1    1    2  506  501  0.30729855467E+02  0.37727006468E+02  0.52297545690E+03  0.52523421400E+03  0.00000000000E+00 0. -1.
<scales pt_clust_3="139.75091" pt_clust_4="56.21477" pt_clust_5="56.21477" pt_clust_6="48.65851"></scales>
<clustering>
<clus scale="   48.659">  1  6  2 -1</clus>
<clus scale="   56.215">  4  5 -1 -1</clus>
<clus scale="  139.751">  2  3  1 -1</clus>
<clus scale="   48.659">  1  3  2 -1</clus>
</clustering>
</event>
<event>
 6    0  0.5563122E+002  0.1324521E+03  0.7546771E-02  0.1223862E+00
         21   -1    0    0  503  501  0.00000000000E+00  0.00000000000E+00  0.62193436264E+03  0.62193436264E+03  0.00000000000E+00 0.  1.
         21   -1    0    0  506  502 -0.00000000000E+00 -0.00000000000E+00 -0.22439832322E+03  0.22439832322E+03  0.00000000000E+00 0.  1.
         21    1    1    2  503  505 -0.57227999814E+02  0.32379825518E+01  0.19085997485E+03  0.19928135511E+03  0.00000000000E+00 0.  1.
         21    1    1    2  504  501  0.32242027307E+02  0.97245173469E+01  0.16960126792E+03  0.17291241899E+03  0.00000000000E+00 0.  1.
         21    1    1    2  505  502 -0.59334846545E+02  0.69104115248E+02  0.23043996839E+03  0.24778737214E+03  0.00000000000E+00 0.  1.
         21    1    1    2  506  504  0.84320819052E+02 -0.82066615147E+02 -0.19336517174E+03  0.22635153962E+03  0.00000000000E+00 0.  1.
<scales pt_clust_3="42.75452" pt_clust_4="33.67662" pt_clust_5="42.75452" pt_clust_6="118.26675"></scales>
<clustering>
<clus scale="   33.677">  1  4  2 -1</clus>
<clus scale="   42.755">  3  5 -1 -1</clus>
<clus scale="  118.267">  2  6  1 -1</clus>
<clus scale="   33.677">  1  3  2 -1</clus>
</clustering>
</event>
<event>
 6    0  0.5563122E+002  0.9949341E+02  0.7546771E-02  0.1281365E+00
         21   -1    0    0  503  501  0.00000000000E+00  0.00000000000E+00  0.10197774106E+03  0.10197774106E+03  0.00000000000E+00 0. -1.
         21   -1    0    0  504  502 -0.00000000000E+00 -0.00000000000E+00 -0.51010976393E+03  0.51010976393E+03  0.00000000000E+00 0.  1.
         21    1    1    2  503  502 -0.71060221994E+02 -0.42549175292E+02 -0.10360862078E+03  0.13264514227E+03  0.00000000000E+00 0.  1.
         21    1    1    2  504  506 -0.45527071693E+02  0.10005340717E+03 -0.23475004240E+03  0.25921223148E+03  0.00000000000E+00 0.  1.
         21    1    1    2  505  501  0.26630841940E+02 -0.15119781840E+02  0.53623461952E+02  0.61751803350E+02  0.00000000000E+00 0. -1.
         21    1    1    2  506  505  0.89956451747E+02 -0.42384450040E+02 -0.12339682165E+03  0.15847832788E+03  0.00000000000E+00 0.  1.
<scales pt_clust_3="78.37012" pt_clust_4="99.49341" pt_clust_5="30.62368" pt_clust_6="14000.00000"></scales>
<clustering>
<clus scale="   30.624">  1  5  2 -1</clus>
<clus scale="   78.370">  1  3  2 -1</clus>
<clus scale="   99.493">  2  4  1 -1</clus>
<clus scale="   30.624">  1  3  2 -1</clus>
</clustering>
</event>
<event>
 6    0  0.5563122E+002  0.5981594E+03  0.7546771E-02  0.9909232E-01
         21   -1    0    0  503  501  0.00000000000E+00  0.00000000000E+00  0.13989381191E+04  0.13989381191E+04  0.00000000000E+00 0. -1.
         21   -1    0    0  505  502 -0.00000000000E+00 -0.00000000000E+00 -0.93282925002E+03  0.93282925002E+03  0.00000000000E+00 0. -1.
         21    1    1    2  503  506 -0.38024922418E+02  0.22950444133E+03 -0.23551324871E+03  0.33103575885E+03  0.00000000000E+00 0. -1.
         21    1    1    2  504  502 -0.10830966858E+03  0.25517112128E+03 -0.35543376012E+03  0.45075097701E+03  0.00000000000E+00 0. -1.
         21    1    1    2  505  501  0.18572272829E+03 -0.54773497008E+03  0.12313915191E+04  0.13604527197E+04  0.00000000000E+00 0. -1.
         21    1    1    2  506  504 -0.39388137292E+02  0.63059407468E+02 -0.17433564118E+03  0.18952791355E+03  0.00000000000E+00 0. -1.
<scales pt_clust_3="96.05128" pt_clust_4="96.05128" pt_clust_5="578.36539" pt_clust_6="40.83183"></scales>
<clustering>
<clus scale="   40.832">  4  6 -1 -1</clus>
<clus scale="   96.051">  3  4 -1 -1</clus>
<clus scale="  578.365">  1  5  2 -1</clus>
<clus scale="  578.365">  1  3  2 -1</clus>
</clustering>
</event>
<event>
 6    0  0.5563122E+002  0.1141417E+03  0.7546771E-02  0.1253087E+00
         21   -1    0    0  505  501  0.00000000000E+00  0.00000000000E+00  0.34774091413E+03  0.34774091413E+03  0.00000000000E+00 0. -1.
         21   -1    0    0  506  502 -0.00000000000E+00 -0.00000000000E+00 -0.70550606265E+02  0.70550606265E+02  0.00000000000E+00 0.  1.
         21    1    1    2  503  504 -0.63390463515E+02 -0.93693540519E+01  0.13644630164E+03  0.15074391826E+03  0.00000000000E+00 0. -1.
         21    1    1    2  504  502 -0.62398873818E+02  0.14773532779E+02  0.79083177468E+02  0.10181368122E+03  0.00000000000E+00 0. -1.
         21    1    1    2  505  503  0.29138479198E+02  0.32651217242E+02  0.40708110159E+02  0.59768747604E+02  0.00000000000E+00 0.  1.
         21    1    1    2  506  501  0.96650858134E+02 -0.38055395970E+02  0.20952718602E+02  0.10596517332E+03  0.00000000000E+00 0.  1.
<scales pt_clust_3="38.46022" pt_clust_4="38.46022" pt_clust_5="43.76246" pt_clust_6="107.46208"></scales>
<clustering>
<clus scale="   38.460">  3  4 -1 -1</clus>
<clus scale="   43.762">  1  5  2 -1</clus>
<clus scale="  107.462">  2  6  1 -1</clus>
<clus scale="   43.762">  1  3  2 -1</clus>
</clustering>
</event>
<event>
 6    0  0.5563122E+002  0.1567347E+03  0.7546771E-02  0.1192433E+00
         21   -1    0    0  504  501  0.00000000000E+00  0.00000000000E+00  0.15699109833E+03  0.15699109833E+03  0.00000000000E+00 0.  1.
         21   -1    0    0  506  502 -0.00000000000E+00 -0.00000000000E+00 -0.74850602951E+03  0.74850602951E+03  0.00000000000E+00 0. -1.
         21    1    1    2  503  505  0.36242801578E+02 -0.53880407442E+01 -0.13191910597E+03  0.13691319209E+03  0.00000000000E+00 0. -1.
         21    1    1    2  504  503  0.74421624378E+02  0.72091118853E+01 -0.10233793707E+03  0.12674226933E+03  0.00000000000E+00 0.  1.
         21    1    1    2  505  502  0.34495877413E+02 -0.62099479908E+02 -0.45251123893E+03  0.45805319813E+03  0.00000000000E+00 0. -1.
         21    1    1    2  506  501 -0.14516030337E+03  0.60278408767E+02  0.95253350797E+02  0.18378846829E+03  0.00000000000E+00 0.  1.
<scales pt_clust_3="34.20815" pt_clust_4="34.20815" pt_clust_5="71.03739" pt_clust_6="148.92232"></scales>
<clustering>
<clus scale="   34.208">  3  4 -1 -1</clus>
<clus scale="   71.037">  2  5  1 -1</clus>
<clus scale="  148.922">  1  6  2 -1</clus>
<clus scale="  148.922">  1  3  2 -1</clus>
</clustering>
</event>
<event>
 6    0  0.5563122E+002  0.1929621E+03  0.7546771E-02  0.1155817E+00
         21   -1    0    0  506  501  0.00000000000E+00  0.00000000000E+00  0.25674038950E+03  0.25674038950E+03  0.00000000000E+00 0.  1.
         21   -1    0    0  505  502 -0.00000000000E+00 -0.00000000000E+00 -0.17071047585E+04  0.17071047585E+04  0.00000000000E+00 0. -1.
         21    1    1    2  503  502  0.50539455072E+02 -0.19600611575E+03 -0.14699192872E+04  0.14837908696E+04  0.00000000000E+00 0. -1.
         21    1    1    2  504  503 -0.11023909714E+03  0.11045320209E+03 -0.10665346788E+03  0.18901727593E+03  0.00000000000E+00 0.  1.
         21    1    1    2  505  501  0.61026559614E+02 -0.62987082601E+02 -0.11533353854E+02  0.88456948874E+02  0.00000000000E+00 0.  1.
         21    1    1    2  506  504 -0.13269175484E+01  0.14853999626E+03  0.13774173991E+03  0.20258005359E+03  0.00000000000E+00 0.  1.
<scales pt_clust_3="192.96205" pt_clust_4="14000.00000" pt_clust_5="87.70184" pt_clust_6="109.66615"></scales>
<clustering>
<clus scale="   87.702">  1  5  2 -1</clus>
<clus scale="  109.666">  1  6  2 -1</clus>
<clus scale="  192.962">  2  3  1 -1</clus>
<clus scale="   87.702">  1  3  2 -1</clus>
</clustering>
</event>
<event>
 6    0  0.5563122E+002  0.1214029E+03  0.7546771E-02  0.1240801E+00
         21   -1    0    0  505  501  0.00000000000E+00  0.00000000000E+00  0.20821448745E+03  0.20821448745E+03  0.00000000000E+00 0. -1.
         21   -1    0    0  506  502 -0.00000000000E+00 -0.00000000000E+00 -0.33919296165E+03  0.33919296165E+03  0.00000000000E+00 0. -1.
         21    1    1    2  503  502  0.12287447611E+02  0.38855648892E+02 -0.47741441427E+02  0.62769324109E+02  0.00000000000E+00 0. -1.
         21    1    1    2  504  503 -0.48083949397E+02  0.66534500699E+01 -0.15675514168E+03  0.16409908297E+03  0.00000000000E+00 0. -1.
         21    1    1    2  505  504  0.12315937243E+03  0.26335585829E+02  0.14081755760E+03  0.18892162032E+03  0.00000000000E+00 0. -1.
         21    1    1    2  506  501 -0.87362870642E+02 -0.71844684790E+02 -0.67299448698E+02  0.13161742170E+03  0.00000000000E+00 0. -1.
<scales pt_clust_3="40.75221" pt_clust_4="50.10979" pt_clust_5="14000.00000" pt_clust_6="121.40285"></scales>
<clustering>
<clus scale="   40.752">  2  3  1 -1</clus>
<clus scale="   50.110">  2  4  1 -1</clus>
<clus scale="  121.403">  2  6  1 -1</clus>
<clus scale="  121.403">  1  3  2 -1</clus>
</clustering>
</event>
<event>
 6    0  0.5563122E+002  0.2415118E+03  0.7546771E-02  0.1118790E+00
         21   -1    0    0  505  501  0.00000000000E+00  0.00000000000E+00  0.22996476396E+04  0.22996476396E+04  0.00000000000E+00 0. -1.
         21   -1    0    0  503  502 -0.00000000000E+00 -0.00000000000E+00 -0.31182652118E+03  0.31182652118E+03  0.00000000000E+00 0. -1.
         21    1    1    2  503  506 -0.44148073677E+02 -0.60870622002E+02 -0.54454764287E+02  0.92841835321E+02  0.00000000000E+00 0. -1.
         21    1    1    2  504  502 -0.19993003428E+02  0.42604412703E+02  0.32899374581E+02  0.57421468248E+02  0.00000000000E+00 0. -1.
         21    1    1    2  505  504  0.21940277671E+03  0.55559061680E+02  0.22005304988E+04  0.22121389793E+04  0.00000000000E+00 0. -1.
         21    1    1    2  506  501 -0.15526169961E+03 -0.37292852382E+02 -0.19115399067E+03  0.24907187788E+03  0.00000000000E+00 0. -1.
<scales pt_clust_3="54.49794" pt_clust_4="47.06226" pt_clust_5="226.15694" pt_clust_6="54.49794"></scales>
<clustering>
<clus scale="   47.062">  2  4  1 -1</clus>
<clus scale="   54.498">  3  6 -1 -1</clus>
<clus scale="  226.157">  1  5  2 -1</clus>
<clus scale="  226.157">  1  3  2 -1</clus>
</clustering>
</event>
<event>
 6    0  0.5563122E+002  0.1319058E+03  0.7546771E-02  0.1224655E+00
         21   -1    0    0  506  501  0.00000000000E+00  0.00000000000E+00  0.13289141647E+04  0.13289141647E+04  0.00000000000E+00 0. -1.
         21   -1    0    0  505  502 -0.00000000000E+00 -0.00000000000E+00 -0.74595769580E+03  0.74595769580E+03  0.00000000000E+00 0. -1.
         21    1    1    2  503  504  0.77729053335E+02 -0.42737912455E+02  0.32465681527E+03  0.33655665585E+03  0.00000000000E+00 0. -1.
         21    1    1    2  504  501 -0.32057768884E+02 -0.43692610653E+02  0.74918599096E+03  0.75114339099E+03  0.00000000000E+00 0. -1.
         21    1    1    2  505  503 -0.46671686651E+02  0.12462231430E+03 -0.73151922102E+03  0.74352494126E+03  0.00000000000E+00 0. -1.
         21    1    1    2  506  502  0.10004021993E+01 -0.38191791195E+02  0.24063288372E+03  0.24364687244E+03  0.00000000000E+00 0. -1.
<scales pt_clust_3="131.90580" pt_clust_4="76.75694" pt_clust_5="14000.00000" pt_clust_6="38.20489"></scales>
<clustering>
<clus scale="   38.205">  1  6  2 -1</clus>
<clus scale="   76.757">  1  4  2 -1</clus>
<clus scale="  131.906">  1  3  2 -1</clus>
<clus scale="   38.205">  1  3  2 -1</clus>
</clustering>
</event>
<event>
 6    0  0.5563122E+002  0.9170354E+02  0.7546771E-02  0.1298778E+00
         21   -1    0    0  505  501  0.00000000000E+00  0.00000000000E+00  0.10915902053E+04  0.10915902053E+04  0.00000000000E+00 0.  1.
         21   -1    0    0  506  502 -0.00000000000E+00 -0.00000000000E+00 -0.97194467312E+02  0.97194467312E+02  0.00000000000E+00 0. -1.
         21    1    1    2  503  501 -0.33549040484E+02 -0.33110888176E+02  0.55573355054E+03  0.55772900967E+03  0.00000000000E+00 0.  1.
         21    1    1    2  504  502  0.96017934141E+02  0.17943704391E+02 -0.59650879804E+02  0.11445369223E+03  0.00000000000E+00 0. -1.
         21    1    1    2  505  504 -0.18752189957E+02 -0.51807223940E+02  0.23718265619E+03  0.24349793732E+03  0.00000000000E+00 0.  1.
         21    1    1    2  506  503 -0.43716703699E+02  0.66974407725E+02  0.26113041105E+03  0.27310403338E+03  0.00000000000E+00 0. -1.
<scales pt_clust_3="47.13671" pt_clust_4="14000.00000" pt_clust_5="74.77489" pt_clust_6="91.70354"></scales>
<clustering>
<clus scale="   47.137">  1  3  2 -1</clus>
<clus scale="   74.775">  1  5  2 -1</clus>
<clus scale="   91.704">  1  6  2 -1</clus>
<clus scale="   47.137">  1  3  2 -1</clus>
</clustering>
</event>
<event>
 6    0  0.5563122E+002  0.8297156E+02  0.7546771E-02  0.1320824E+00
         21   -1    0    0  504  501  0.00000000000E+00  0.00000000000E+00  0.16450154128E+03  0.16450154128E+03  0.00000000000E+00 0. -1.
         21   -1    0    0  503  502 -0.00000000000E+00 -0.00000000000E+00 -0.45869463254E+03  0.45869463254E+03  0.00000000000E+00 0.  1.
         21    1    1    2  503  501 -0.33951471685E+02 -0.17274895984E+02  0.13322367137E+03  0.13856287769E+03  0.00000000000E+00 0. -1.
         21    1    1    2  504  506  0.49234823066E+02  0.42201764331E+01 -0.76002983537E+02  0.90655011985E+02  0.00000000000E+00 0.  1.
         21    1    1    2  505  502  0.13691435183E+02 -0.76584265125E+02 -0.21104293621E+03  0.22492604559E+03  0.00000000000E+00 0.  1.
         21    1    1    2  506  505 -0.28974786565E+02  0.89638984677E+02 -0.14037084287E+03  0.16905223855E+03  0.00000000000E+00 0. -1.
<scales pt_clust_3="38.09363" pt_clust_4="40.54103" pt_clust_5="82.97156" pt_clust_6="14000.00000"></scales>
<clustering>
<clus scale="   38.094">  1  3  2 -1</clus>
<clus scale="   40.541">  1  4  2 -1</clus>
<clus scale="   82.972">  2  5  1 -1</clus>
<clus scale="   38.094">  1  3  2 -1</clus>
</clustering>
</event>
<event>
 6    0  0.5563122E+002  0.1219333E+03  0.7546771E-02  0.1239941E+00
         21   -1    0    0  506  501  0.00000000000E+00  0.00000000000E+00  0.22110708317E+04  0.22110708317E+04  0.00000000000E+00 0.  1.
         21   -1    0    0  504  502 -0.00000000000E+00 -0.00000000000E+00 -0.11811107379E+02  0.11811107379E+02  0.00000000000E+00 0.  1.
         21    1    1    2  503  501  0.62987797447E+02  0.29752695411E+02  0.49070104165E+03  0.49562102235E+03  0.00000000000E+00 0.  1.
         21    1    1    2  504  505 -0.64779448841E+01  0.41058806257E+02  0.41579847988E+03  0.41787099111E+03  0.00000000000E+00 0.  1.
         21    1    1    2  505  503  0.10574241713E+02  0.56304624939E+02  0.23362749413E+03  0.24054902076E+03  0.00000000000E+00 0.  1.
         21    1    1    2  506  502 -0.67084094276E+02 -0.12711612661E+03  0.10591327087E+04  0.10688409049E+04  0.00000000000E+00 0.  1.
<scales pt_clust_3="69.66122" pt_clust_4="40.55136" pt_clust_5="40.55136" pt_clust_6="112.25564"></scales>
<clustering>
<clus scale="   40.551">  4  5 -1 -1</clus>
<clus scale="   69.661">  1  3  2 -1</clus>
<clus scale="  112.256">  1  6  2 -1</clus>
<clus scale="   69.661">  1  3  2 -1</clus>
</clustering>
</event>
<event>
 6    0  0.5563122E+002  0.1878540E+03  0.7546771E-02  0.1160411E+00
         21   -1    0    0  504  501  0.00000000000E+00  0.00000000000E+00  0.28403792051E+03  0.28403792051E+03  0.00000000000E+00 0. -1.
         21   -1    0    0  506  502 -0.00000000000E+00 -0.00000000000E+00 -0.20038830238E+04  0.20038830238E+04  0.00000000000E+00 0.  1.
         21    1    1    2  503  501  0.41439417346E+02  0.35413245585E+02 -0.16328912625E+03  0.17214721033E+03  0.00000000000E+00 0.  1.
         21    1    1    2  504  502 -0.33839582514E+02 -0.17868392381E+03  0.24382827534E+03  0.30417969989E+03  0.00000000000E+00 0. -1.
         21    1    1    2  505  503 -0.10272066371E+02  0.71628010929E+02 -0.26990557330E+03  0.27943712315E+03  0.00000000000E+00 0.  1.
         21    1    1    2  506  505  0.26722315390E+01  0.71642667291E+02 -0.15304786791E+04  0.15321569109E+04  0.00000000000E+00 0.  1.
<scales pt_clust_3="53.79449" pt_clust_4="177.33472" pt_clust_5="53.79449" pt_clust_6="71.69249"></scales>
<clustering>
<clus scale="   53.794">  3  5 -1 -1</clus>
<clus scale="   71.692">  2  6  1 -1</clus>
<clus scale="  177.335">  1  4  2 -1</clus>
<clus scale="  177.335">  1  3  2 -1</clus>
</clustering>
</event>
<event>
 6    0  0.5563122E+002  0.1191370E+03  0.7546771E-02  0.1244528E+00
         21   -1    0    0  506  501  0.00000000000E+00  0.00000000000E+00  0.19377245897E+04  0.19377245897E+04  0.00000000000E+00 0. -1.
         21   -1    0    0  504  502 -0.00000000000E+00 -0.00000000000E+00 -0.10394519396E+03  0.10394519396E+03  0.00000000000E+00 0.  1.
         21    1    1    2  503  502 -0.10242154591E+03  0.50398948060E+02  0.78355369376E+03  0.79182486576E+03  0.00000000000E+00 0. -1.
         21    1    1    2  504  505  0.11975322335E+03  0.92804479662E+01 -0.57226380273E+02  0.13304818607E+03  0.00000000000E+00 0.  1.
         21    1    1    2  505  501 -0.57035508408E+02 -0.22124115184E+02  0.24171810533E+03  0.24933946366E+03  0.00000000000E+00 0. -1.
         21    1    1    2  506  503  0.39703830974E+02 -0.37555280842E+02  0.86573397694E+03  0.86745726819E+03  0.00000000000E+00 0.  1.
<scales pt_clust_3="119.13701" pt_clust_4="14000.00000" pt_clust_5="56.94039" pt_clust_6="54.65156"></scales>
<clustering>
<clus scale="   54.652">  1  6  2 -1</clus>
<clus scale="   56.940">  1  5  2 -1</clus>
<clus scale="  119.137">  1  3  2 -1</clus>
<clus scale="   54.652">  1  3  2 -1</clus>
</clustering>
</event>
<event>
 6    0  0.5563122E+002  0.1984432E+03  0.7546771E-02  0.1151059E+00
         21   -1    0    0  503  501  0.00000000000E+00  0.00000000000E+00  0.70167164754E+03  0.70167164754E+03  0.00000000000E+00 0.  1.
         21   -1    0    0  504  502 -0.00000000000E+00 -0.00000000000E+00 -0.14463612465E+03  0.14463612465E+03  0.00000000000E+00 0.  1.
         21    1    1    2  503  505 -0.79802002184E+02  0.35184806007E+02  0.37111276629E+03  0.38122305207E+03  0.00000000000E+00 0.  1.
         21    1    1    2  504  506  0.10259375155E+02  0.64291207272E+02 -0.62807118713E+01  0.65406891477E+02  0.00000000000E+00 0.  1.
         21    1    1    2  505  502 -0.13383885221E+02 -0.20269076161E+03  0.17113202401E+03  0.26561032146E+03  0.00000000000E+00 0.  1.
         21    1    1    2  506  501  0.82926512250E+02  0.10321474833E+03  0.21071444460E+02  0.13406750717E+03  0.00000000000E+00 0.  1.
<scales pt_clust_3="87.21428" pt_clust_4="37.29995" pt_clust_5="191.18129" pt_clust_6="37.29995"></scales>
<clustering>
<clus scale="   37.300">  4  6 -1 -1</clus>
<clus scale="   87.214">  1  3  2 -1</clus>
<clus scale="  191.181">  1  5  2 -1</clus>
<clus scale="   87.214">  1  3  2 -1</clus>
</clustering>
</event>
<event>
 6    0  0.5563122E+002  0.2523461E+03  0.7546771E-02  0.1111831E+00
         21   -1    0    0  505  501  0.00000000000E+00  0.00000000000E+00  0.35901737020E+03  0.35901737020E+03  0.00000000000E+00 0.  1.
         21   -1    0    0  501  502 -0.00000000000E+00 -0.00000000000E+00 -0.47286775316E+03  0.47286775316E+03  0.00000000000E+00 0.  1.
         21    1    1    2  503  506 -0.20215112879E+02 -0.64219154132E+02 -0.95492518268E+02  0.11683994005E+03  0.00000000000E+00 0.  1.
         21    1    1    2  504  503 -0.54713807081E+02 -0.29698914332E+02 -0.49345767504E+02  0.79439479910E+02  0.00000000000E+00 0.  1.
         21    1    1    2  505  504  0.16335995420E+03  0.15517959078E+03  0.28291317431E+03  0.36167256494E+03  0.00000000000E+00 0.  1.
         21    1    1    2  506  502 -0.88431034236E+02 -0.61261522315E+02 -0.25192527149E+03  0.27393313846E+03  0.00000000000E+00 0.  1.
<scales pt_clust_3="52.80282" pt_clust_4="53.05180" pt_clust_5="225.31573" pt_clust_6="53.05180"></scales>
<clustering>
<clus scale="   52.803">  3  6 -1 -1</clus>
<clus scale="   53.052">  3  4 -1 -1</clus>
<clus scale="  225.316">  1  5  2 -1</clus>
<clus scale="  225.316">  1  3  2 -1</clus>
</clustering>
</event>
<event>
 6    0  0.5563122E+002  0.1261066E+03  0.7546771E-02  0.1233350E+00
         21   -1    0    0  503  501  0.00000000000E+00  0.00000000000E+00  0.94622340067E+02  0.94622340067E+02  0.00000000000E+00 0.  1.
         21   -1    0    0  506  502 -0.00000000000E+00 -0.00000000000E+00 -0.20791654951E+04  0.20791654951E+04  0.00000000000E+00 0.  1.
         21    1    1    2  503  502  0.49666615841E+02  0.10199692385E+03 -0.19565594287E+04  0.19598456427E+04  0.00000000000E+00 0.  1.
         21    1    1    2  504  505 -0.17105447203E+02 -0.32141712318E+02  0.54962875820E+01  0.36822481882E+02  0.00000000000E+00 0.  1.
         21    1    1    2  505  501  0.35750719256E+02  0.31156313657E+01  0.39491837029E+02  0.53361280702E+02  0.00000000000E+00 0.  1.
         21    1    1    2  506  504 -0.68311887895E+02 -0.72970842897E+02 -0.72971851000E+02  0.12375842993E+03  0.00000000000E+00 0.  1.
<scales pt_clust_3="114.08059" pt_clust_4="32.43709" pt_clust_5="35.88622" pt_clust_6="32.43709"></scales>
<clustering>
<clus scale="   32.437">  4  6 -1 -1</clus>
<clus scale="   35.886">  1  5  2 -1</clus>
<clus scale="  114.081">  2  3  1 -1</clus>
<clus scale="   35.886">  1  3  2 -1</clus>
</clustering>
</event>
<event>
 6    0  0.5563122E+002  0.1496798E+03  0.7546771E-02  0.1200867E+00
         21   -1    0    0  505  501  0.00000000000E+00  0.00000000000E+00  0.43881712898E+03  0.43881712898E+03  0.00000000000E+00 0.  1.
         21   -1    0    0  503  502 -0.00000000000E+00 -0.00000000000E+00 -0.45742729201E+03  0.45742729201E+03  0.00000000000E+00 0. -1.
         21    1    1    2  503  506  0.14636413757E+02  0.29507860691E+02 -0.94719808172E+02  0.10028350069E+03  0.00000000000E+00 0. -1.
         21    1    1    2  504  502  0.33651564550E+02 -0.12754259489E+03 -0.21819104504E+03  0.25496445526E+03  0.00000000000E+00 0. -1.
         21    1    1    2  505  504 -0.13263854777E+03  0.76445532006E+02  0.38557371011E+03  0.41485417877E+03  0.00000000000E+00 0.  1.
         21    1    1    2  506  501  0.84350569463E+02  0.21589202193E+02 -0.91273019919E+02  0.12614228627E+03  0.00000000000E+00 0. -1.
<scales pt_clust_3="32.93840" pt_clust_4="14000.00000" pt_clust_5="149.67976" pt_clust_6="93.86510"></scales>
<clustering>
<clus scale="   32.938">  2  3  1 -1</clus>
<clus scale="   93.865">  2  6  1 -1</clus>
<clus scale="  149.680">  1  5  2 -1</clus>
<clus scale="  149.680">  1  3  2 -1</clus>
</clustering>
</event>
<event>
 6    0  0.5563122E+002  0.1477844E+03  0.7546771E-02  0.1203222E+00
         21   -1    0    0  502  501  0.00000000000E+00  0.00000000000E+00  0.17891469350E+03  0.17891469350E+03  0.00000000000E+00 0.  1.
         21   -1    0    0  504  502 -0.00000000000E+00 -0.00000000000E+00 -0.37529403608E+03  0.37529403608E+03  0.00000000000E+00 0.  1.
         21    1    1    2  503  505  0.90388745612E+02 -0.67871791303E+02 -0.18127657164E+03  0.21363029002E+03  0.00000000000E+00 0.  1.
         21    1    1    2  504  503 -0.26415106529E+02  0.33385008662E+02 -0.34515093429E+02  0.54805185254E+02  0.00000000000E+00 0.  1.
         21    1    1    2  505  506  0.65589729745E+02 -0.15026558920E+02 -0.87690640752E+02  0.11053261327E+03  0.00000000000E+00 0. -1.
         21    1    1    2  506  501 -0.12956336883E+03  0.49513341560E+02  0.10710296324E+03  0.17524064104E+03  0.00000000000E+00 0.  1.
<scales pt_clust_3="30.24661" pt_clust_4="42.57131" pt_clust_5="30.24661" pt_clust_6="142.49012"></scales>
<clustering>
<clus scale="   30.247">  3  5 -1 -1</clus>
<clus scale="   42.571">  2  4  1 -1</clus>
<clus scale="  142.490">  1  6  2 -1</clus>
<clus scale="  142.490">  1  3  2 -1</clus>
</clustering>
</event>
<event>
 6    0  0.5563122E+002  0.2391277E+03  0.7546771E-02  0.1120375E+00
         21   -1    0    0  505  501  0.00000000000E+00  0.00000000000E+00  0.47904752001E+03  0.47904752001E+03  0.00000000000E+00 0. -1.
         21   -1    0    0  506  502 -0.00000000000E+00 -0.00000000000E+00 -0.11128488154E+04  0.11128488154E+04  0.00000000000E+00 0. -1.
         21    1    1    2  503  502  0.20246358832E+03  0.16006262351E+03 -0.12251642962E+02  0.25838276025E+03  0.00000000000E+00 0. -1.
         21    1    1    2  504  501 -0.16991109888E+03 -0.18467175710E+03  0.19521569090E+03  0.31793490743E+03  0.00000000000E+00 0. -1.
         21    1    1    2  505  503  0.37007977137E+02  0.92451835916E+01  0.94304989754E+02  0.10172755224E+03  0.00000000000E+00 0. -1.
         21    1    1    2  506  504 -0.69560466571E+02  0.15363949994E+02 -0.91107033311E+03  0.91385111552E+03  0.00000000000E+00 0. -1.
<scales pt_clust_3="239.12769" pt_clust_4="14000.00000" pt_clust_5="38.14530" pt_clust_6="71.11243"></scales>
<clustering>
<clus scale="   38.145">  1  5  2 -1</clus>
<clus scale="   71.112">  2  6  1 -1</clus>
<clus scale="  239.128">  2  3  1 -1</clus>
<clus scale="   38.145">  1  3  2 -1</clus>
</clustering>
</event>
<event>
 6    0  0.5563122E+002  0.1226352E+03  0.7546771E-02  0.1238812E+00
         21   -1    0    0  503  501  0.00000000000E+00  0.00000000000E+00  0.36043940860E+03  0.36043940860E+03  0.00000000000E+00 0.  1.
         21   -1    0    0  504  502 -0.00000000000E+00 -0.00000000000E+00 -0.18067076891E+03  0.18067076891E+03  0.00000000000E+00 0. -1.
         21    1    1    2  503  506  0.18162390658E+02 -0.75472246347E+02  0.10910488995E+02  0.78389866521E+02  0.00000000000E+00 0. -1.
         21    1    1    2  504  505  0.23487545862E+02  0.33607319278E+02 -0.87289687321E+02  0.96439650726E+02  0.00000000000E+00 0. -1.
         21    1    1    2  505  501 -0.66186951152E+02  0.91862903283E+02  0.28273700780E+03  0.30456480604E+03  0.00000000000E+00 0.  1.
         21    1    1    2  506  502  0.24537014633E+02 -0.49997976213E+02 -0.26589169782E+02  0.61715854221E+02  0.00000000000E+00 0. -1.
<scales pt_clust_3="36.11351" pt_clust_4="41.00142" pt_clust_5="114.98530" pt_clust_6="36.11351"></scales>
<clustering>
<clus scale="   36.114">  3  6 -1 -1</clus>
<clus scale="   41.001">  2  4  1 -1</clus>
<clus scale="  114.985">  1  5  2 -1</clus>
<clus scale="  114.985">  1  3  2 -1</clus>
</clustering>
</event>
<event>
 6    0  0.5563122E+002  0.7383314E+02  0.7546771E-02  0.1347523E+00
         21   -1    0    0  504  501  0.00000000000E+00  0.00000000000E+00  0.30172582045E+03  0.30172582045E+03  0.00000000000E+00 0.  1.
         21   -1    0    0  506  502 -0.00000000000E+00 -0.00000000000E+00 -0.47763418960E+03  0.47763418960E+03  0.00000000000E+00 0. -1.
         21    1    1    2  503  501 -0.77743254877E+02 -0.14694802608E+02 -0.22482275451E+03  0.23833846070E+03  0.00000000000E+00 0. -1.
         21    1    1    2  504  505 -0.16323692623E+02  0.31914525996E+02  0.19156805076E+03  0.19489309372E+03  0.00000000000E+00 0.  1.
         21    1    1    2  505  502  0.85741497316E+02 -0.51425538229E+02  0.75416374051E+02  0.12523505827E+03  0.00000000000E+00 0.  1.
         21    1    1    2  506  503  0.83254501843E+01  0.34205814841E+02 -0.21807003945E+03  0.22089339736E+03  0.00000000000E+00 0. -1.
<scales pt_clust_3="14000.00000" pt_clust_4="36.01891" pt_clust_5="73.83314" pt_clust_6="35.20442"></scales>
<clustering>
<clus scale="   35.204">  2  6  1 -1</clus>
<clus scale="   36.019">  1  4  2 -1</clus>
<clus scale="   73.833">  1  5  2 -1</clus>
<clus scale="   36.019">  1  3  2 -1</clus>
</clustering>
</event>
<event>
 6    0  0.5563122E+002  0.1011341E+03  0.7546771E-02  0.1277929E+00
         21   -1    0    0  506  501  0.00000000000E+00  0.00000000000E+00  0.29026946870E+03  0.29026946870E+03  0.00000000000E+00 0.  1.
         21   -1    0    0  503  502 -0.00000000000E+00 -0.00000000000E+00 -0.13777755886E+03  0.13777755886E+03  0.00000000000E+00 0.  1.
         21    1    1    2  503  505 -0.12238923930E+03 -0.52273212240E+02  0.11211038904E+03  0.17401251088E+03  0.00000000000E+00 0.  1.
         21    1    1    2  504  502  0.96444421829E+02 -0.95414740950E+00 -0.51231363511E+02  0.10921121511E+03  0.00000000000E+00 0.  1.
         21    1    1    2  505  501  0.45004515221E+02  0.20696126643E+01  0.75468925692E+02  0.87893392425E+02  0.00000000000E+00 0.  1.
         21    1    1    2  506  504 -0.19059697753E+02  0.51157746985E+02  0.16143958615E+02  0.56929909141E+02  0.00000000000E+00 0.  1.
<scales pt_clust_3="14000.00000" pt_clust_4="101.13407" pt_clust_5="45.05208" pt_clust_6="52.71863"></scales>
<clustering>
<clus scale="   45.052">  1  5  2 -1</clus>
<clus scale="   52.719">  1  6  2 -1</clus>
<clus scale="  101.134">  2  4  1 -1</clus>
<clus scale="   45.052">  1  3  2 -1</clus>
</clustering>
</event>
<event>
 6    0  0.5563122E+002  0.1610938E+03  0.7546771E-02  0.1187467E+00
         21   -1    0    0  505  501  0.00000000000E+00  0.00000000000E+00  0.66157680323E+03  0.66157680323E+03  0.00000000000E+00 0.  1.
         21   -1    0    0  504  502 -0.00000000000E+00 -0.00000000000E+00 -0.67779363666E+02  0.67779363666E+02  0.00000000000E+00 0.  1.
         21    1    1    2  503  502 -0.34132680187E+02  0.13315151094E+03  0.97402256376E+02  0.16846828862E+03  0.00000000000E+00 0.  1.
         21    1    1    2  504  506  0.47933724811E+02 -0.41082090243E+02  0.55396780260E+02  0.83989186067E+02  0.00000000000E+00 0.  1.
         21    1    1    2  505  503 -0.64055631913E+02  0.97107591116E+01  0.20551112541E+03  0.21548142725E+03  0.00000000000E+00 0.  1.
         21    1    1    2  506  501  0.50254587290E+02 -0.10178017981E+03  0.23548727752E+03  0.26141726496E+03  0.00000000000E+00 0. -1.
<scales pt_clust_3="145.97841" pt_clust_4="50.80754" pt_clust_5="64.78752" pt_clust_6="50.80754"></scales>
<clustering>
<clus scale="   50.808">  4  6 -1 -1</clus>
<clus scale="   64.788">  1  5  2 -1</clus>
<clus scale="  145.978">  2  3  1 -1</clus>
<clus scale="   64.788">  1  3  2 -1</clus>
</clustering>
</event>
<event>
 6    0  0.5563122E+002  0.1508989E+03  0.7546771E-02  0.1199373E+00
         21   -1    0    0  506  501  0.00000000000E+00  0.00000000000E+00  0.50560818141E+03  0.50560818141E+03  0.00000000000E+00 0.  1.
         21   -1    0    0  504  502 -0.00000000000E+00 -0.00000000000E+00 -0.10641258273E+04  0.10641258273E+04  0.00000000000E+00 0. -1.
         21    1    1    2  503  502 -0.27708691461E+02 -0.35459334390E+02 -0.93699866464E+03  0.93807869260E+03  0.00000000000E+00 0. -1.
         21    1    1    2  504  505 -0.82889561412E+02  0.10327432940E+03  0.22435235285E+03  0.26051918305E+03  0.00000000000E+00 0.  1.
         21    1    1    2  505  501  0.80890273511E+02  0.69514375608E+02  0.19718457698E+03  0.22418127077E+03  0.00000000000E+00 0.  1.
         21    1    1    2  506  503  0.29707979363E+02 -0.13732937062E+03 -0.43055911104E+02  0.14695486230E+03  0.00000000000E+00 0.  1.
<scales pt_clust_3="45.00151" pt_clust_4="150.89886" pt_clust_5="101.95499" pt_clust_6="14000.00000"></scales>
<clustering>
<clus scale="   45.002">  2  3  1 -1</clus>
<clus scale="  101.955">  1  5  2 -1</clus>
<clus scale="  150.899">  1  4  2 -1</clus>
<clus scale="  101.955">  1  3  2 -1</clus>
</clustering>
</event>
<event>
 6    0  0.8450189E+002  0.9590579E+02  0.7546771E-02  0.1289149E+00
         21   -1    0    0  503  501  0.00000000000E+00  0.00000000000E+00  0.94345227818E+02  0.94345227818E+02  0.00000000000E+00 0. -1.
         21   -1    0    0  506  502 -0.00000000000E+00 -0.00000000000E+00 -0.15077756579E+04  0.15077756579E+04  0.00000000000E+00 0. -1.
         21    1    1    2  503  504 -0.28818032029E+02 -0.53132063913E+02  0.61170335812E+02  0.85995960190E+02  0.00000000000E+00 0. -1.
         21    1    1    2  504  502  0.93371685320E+02  0.42893019659E+02 -0.13675829723E+04  0.13714376649E+04  0.00000000000E+00 0. -1.
         21    1    1    2  505  501 -0.11228870045E+02  0.35778068977E+02 -0.32980517615E+02  0.49938685248E+02  0.00000000000E+00 0. -1.
         21    1    1    2  506  505 -0.53324783246E+02 -0.25539024724E+02 -0.74037276023E+02  0.94748575361E+02  0.00000000000E+00 0. -1.
<scales pt_clust_3="44.52721" pt_clust_4="95.90579" pt_clust_5="37.49877" pt_clust_6="14000.00000"></scales>
<clustering>
<clus scale="   37.499">  1  5  2 -1</clus>
<clus scale="   44.527">  1  3  2 -1</clus>
<clus scale="   95.906">  2  4  1 -1</clus>
<clus scale="   37.499">  1  3  2 -1</clus>
</clustering>
</event>
<event>
 6    0  0.5563122E+002  0.1132716E+03  0.7546771E-02  0.1254629E+00
         21   -1    0    0  505  501  0.00000000000E+00  0.00000000000E+00  0.68884541810E+03  0.68884541810E+03  0.00000000000E+00 0. -1.
         21   -1    0    0  503  502 -0.00000000000E+00 -0.00000000000E+00 -0.83045034339E+02  0.83045034339E+02  0.00000000000E+00 0. -1.
         21    1    1    2  503  504  0.37178508951E+02 -0.36604776762E+02  0.12027972909E+02  0.53542724454E+02  0.00000000000E+00 0. -1.
         21    1    1    2  504  506 -0.12305553455E+01 -0.80973698375E+02 -0.12681201752E+01  0.80992976385E+02  0.00000000000E+00 0. -1.
         21    1    1    2  505  502 -0.57729690901E+02  0.39895767212E+02  0.52747086897E+03  0.53211832055E+03  0.00000000000E+00 0. -1.
         21    1    1    2  506  501  0.21781737295E+02  0.77682707925E+02  0.67569662062E+02  0.10523643106E+03  0.00000000000E+00 0. -1.
<scales pt_clust_3="42.97882" pt_clust_4="42.97882" pt_clust_5="70.17399" pt_clust_6="99.81649"></scales>
<clustering>
<clus scale="   42.979">  3  4 -1 -1</clus>
<clus scale="   70.174">  1  5  2 -1</clus>
<clus scale="   99.816">  1  6  2 -1</clus>
<clus scale="   70.174">  1  3  2 -1</clus>
</clustering>
</event>
<event>
 6    0  0.5563122E+002  0.8154433E+02  0.7546771E-02  0.1324725E+00
         21   -1    0    0  505  501  0.00000000000E+00  0.00000000000E+00  0.93026519972E+02  0.93026519972E+02  0.00000000000E+00 0. -1.
         21   -1    0    0  506  502 -0.00000000000E+00 -0.00000000000E+00 -0.23662167428E+04  0.23662167428E+04  0.00000000000E+00 0. -1.
         21    1    1    2  503  504 -0.12308369074E+02 -0.90886092410E+02 -0.95725200498E+02  0.13257108189E+03  0.00000000000E+00 0. -1.
         21    1    1    2  504  502  0.47501543503E+02  0.38789618634E+02 -0.24664214825E+03  0.25415227806E+03  0.00000000000E+00 0.  1.
         21    1    1    2  505  503 -0.61005968592E+02  0.12114356869E+02  0.56858038986E+02  0.84269344625E+02  0.00000000000E+00 0. -1.
         21    1    1    2  506  501  0.25812794164E+02  0.39982116908E+02 -0.19876809130E+04  0.19882505582E+04  0.00000000000E+00 0. -1.
<scales pt_clust_3="14000.00000" pt_clust_4="81.54433" pt_clust_5="61.58280" pt_clust_6="47.59065"></scales>
<clustering>
<clus scale="   47.591">  2  6  1 -1</clus>
<clus scale="   61.583">  1  5  2 -1</clus>
<clus scale="   81.544">  2  4  1 -1</clus>
<clus scale="   61.583">  1  3  2 -1</clus>
</clustering>
</event>
<event>
 6    0  0.5563122E+002  0.1921804E+03  0.7546771E-02  0.1156509E+00
         21   -1    0    0  503  501  0.00000000000E+00  0.00000000000E+00  0.69466102752E+03  0.69466102752E+03  0.00000000000E+00 0. -1.
         21   -1    0    0  505  502 -0.00000000000E+00 -0.00000000000E+00 -0.35257017110E+03  0.35257017110E+03  0.00000000000E+00 0. -1.
         21    1    1    2  503  502  0.14554870632E+03 -0.83090892605E+02  0.46598366481E+03  0.49520631883E+03  0.00000000000E+00 0. -1.
         21    1    1    2  504  501  0.77049293301E+00  0.36660114071E+02  0.14398136075E+03  0.14857721853E+03  0.00000000000E+00 0. -1.
         21    1    1    2  505  506 -0.18582583877E+03  0.55405394872E+02 -0.29619056734E+03  0.35401956488E+03  0.00000000000E+00 0. -1.
         21    1    1    2  506  504  0.39506639525E+02 -0.89746163380E+01  0.28316398204E+02  0.49428096385E+02  0.00000000000E+00 0. -1.
<scales pt_clust_3="192.18039" pt_clust_4="36.66821" pt_clust_5="14000.00000" pt_clust_6="40.07176"></scales>
<clustering>
<clus scale="   36.668">  1  4  2 -1</clus>
<clus scale="   40.072">  1  6  2 -1</clus>
<clus scale="  192.180">  1  3  2 -1</clus>
<clus scale="   36.668">  1  3  2 -1</clus>
</clustering>
</event>
<event>
 6    0  0.5563122E+002  0.9465488E+02  0.7546771E-02  0.1291955E+00
         21   -1    0    0  503  501  0.00000000000E+00  0.00000000000E+00  0.53879759670E+02  0.53879759670E+02  0.00000000000E+00 0. -1.
         21   -1    0    0  505  502 -0.00000000000E+00 -0.00000000000E+00 -0.13513217791E+04  0.13513217791E+04  0.00000000000E+00 0.  1.
         21    1    1    2  503  504  0.20077022184E+02  0.53958145783E+02 -0.19433750366E+03  0.20268604699E+03  0.00000000000E+00 0. -1.
         21    1    1    2  504  502 -0.24148503342E+02 -0.20812526743E+02 -0.84410732046E+03  0.84470910966E+03  0.00000000000E+00 0.  1.
         21    1    1    2  505  506  0.89592908674E+02  0.11885914711E+02 -0.24374049112E+03  0.25995690271E+03  0.00000000000E+00 0. -1.
         21    1    1    2  506  501 -0.85521427516E+02 -0.45031533750E+02 -0.15256704174E+02  0.97849479399E+02  0.00000000000E+00 0. -1.
<scales pt_clust_3="47.02279" pt_clust_4="31.87964" pt_clust_5="14000.00000" pt_clust_6="94.65488"></scales>
<clustering>
<clus scale="   31.880">  2  4  1 -1</clus>
<clus scale="   47.023">  2  3  1 -1</clus>
<clus scale="   94.655">  1  6  2 -1</clus>
<clus scale="   94.655">  1  3  2 -1</clus>
</clustering>
</event>
<event>
 6    0  0.5563122E+002  0.1122449E+03  0.7546771E-02  0.1256468E+00
         21   -1    0    0  505  501  0.00000000000E+00  0.00000000000E+00  0.15160346787E+04  0.15160346787E+04  0.00000000000E+00 0.  1.
         21   -1    0    0  503  502 -0.00000000000E+00 -0.00000000000E+00 -0.52981762517E+03  0.52981762517E+03  0.00000000000E+00 0. -1.
         21    1    1    2  503  504  0.20521471520E+02  0.34510033766E+02 -0.37451514423E+03  0.37666120916E+03  0.00000000000E+00 0. -1.
         21    1    1    2  504  501 -0.33159098079E+01  0.65910171916E+02 -0.10558491384E+03  0.12451232891E+03  0.00000000000E+00 0. -1.
         21    1    1    2  505  506 -0.55146633044E+02 -0.98964870906E+02  0.14936212104E+04  0.14979117186E+04  0.00000000000E+00 0.  1.
         21    1    1    2  506  502  0.37941071333E+02 -0.14553347761E+01 -0.27304098739E+02  0.46767047172E+02  0.00000000000E+00 0.  1.
<scales pt_clust_3="59.66460" pt_clust_4="14000.00000" pt_clust_5="112.24489" pt_clust_6="37.96897"></scales>
<clustering>
<clus scale="   37.969">  2  6  1 -1</clus>
<clus scale="   59.665">  2  3  1 -1</clus>
<clus scale="  112.245">  1  5  2 -1</clus>
<clus scale="  112.245">  1  3  2 -1</clus>
</clustering>
</event>
<event>
 6    0  0.5563122E+002  0.8874112E+02  0.7546771E-02  0.1305929E+00
         21   -1    0    0  503  501  0.00000000000E+00  0.00000000000E+00  0.10371632261E+04  0.10371632261E+04  0.00000000000E+00 0. -1.
         21   -1    0    0  505  502 -0.00000000000E+00 -0.00000000000E+00 -0.88438377542E+02  0.88438377542E+02  0.00000000000E+00 0. -1.
         21    1    1    2  503  504  0.30968416248E+02 -0.61958862644E+02  0.33086313838E+03  0.33803603329E+03  0.00000000000E+00 0. -1.
         21    1    1    2  504  506 -0.17037754014E+02 -0.78524589723E+02  0.11097232156E+03  0.13700822021E+03  0.00000000000E+00 0. -1.
         21    1    1    2  505  501 -0.62961385140E+02  0.11175063438E+03  0.55895501249E+03  0.57348325720E+03  0.00000000000E+00 0. -1.
         21    1    1    2  506  502  0.49030722906E+02  0.28732817992E+02 -0.52065623851E+02  0.77074092959E+02  0.00000000000E+00 0. -1.
<scales pt_clust_3="88.74112" pt_clust_4="63.59829" pt_clust_5="14000.00000" pt_clust_6="56.82945"></scales>
<clustering>
<clus scale="   56.829">  2  6  1 -1</clus>
<clus scale="   63.598">  2  4  1 -1</clus>
<clus scale="   88.741">  1  3  2 -1</clus>
<clus scale="   88.741">  1  3  2 -1</clus>
</clustering>
</event>
<event>
 6    0  0.5563122E+002  0.1386723E+03  0.7546771E-02  0.1215127E+00
         21   -1    0    0  505  501  0.00000000000E+00  0.00000000000E+00  0.13357259030E+03  0.13357259030E+03  0.00000000000E+00 0.  1.
         21   -1    0    0  503  502 -0.00000000000E+00 -0.00000000000E+00 -0.79136187946E+03  0.79136187946E+03  0.00000000000E+00 0.  1.
         21    1    1    2  503  506  0.14509412518E+02 -0.28876604466E+02 -0.35218593942E+03  0.35366554435E+03  0.00000000000E+00 0.  1.
         21    1    1    2  504  501  0.11751617790E+02  0.82238638561E+02 -0.28116874763E+03  0.29318451329E+03  0.00000000000E+00 0.  1.
         21    1    1    2  505  502 -0.23882767786E+02 -0.12247030720E+03  0.83328562399E+02  0.15004336725E+03  0.00000000000E+00 0.  1.
         21    1    1    2  506  504 -0.23782625230E+01  0.69108273110E+02 -0.10776316451E+03  0.12804104486E+03  0.00000000000E+00 0.  1.
<scales pt_clust_3="32.31689" pt_clust_4="53.95686" pt_clust_5="126.73128" pt_clust_6="53.95686"></scales>
<clustering>
<clus scale="   32.317">  2  3  1 -1</clus>
<clus scale="   53.957">  4  6 -1 -1</clus>
<clus scale="  126.731">  1  5  2 -1</clus>
<clus scale="  126.731">  1  3  2 -1</clus>
</clustering>
</event>
<event>
 6    0  0.5563122E+002  0.1162146E+03  0.7546771E-02  0.1249476E+00
         21   -1    0    0  505  501  0.00000000000E+00  0.00000000000E+00  0.13739027086E+02  0.13739027086E+02  0.00000000000E+00 0. -1.
         21   -1    0    0  503  502 -0.00000000000E+00 -0.00000000000E+00 -0.29765647926E+04  0.29765647926E+04  0.00000000000E+00 0. -1.
         21    1    1    2  503  504  0.44857652794E+02 -0.45700096187E+02 -0.17614572601E+04  0.17626208858E+04  0.00000000000E+00 0. -1.
         21    1    1    2  504  501  0.43849112883E+02 -0.31539997922E+02 -0.66674292803E+03  0.66892723689E+03  0.00000000000E+00 0. -1.
         21    1    1    2  505  506 -0.92909672277E+02  0.47401241468E+02 -0.22884298392E+03  0.25149194060E+03  0.00000000000E+00 0. -1.
         21    1    1    2  506  502  0.42029065997E+01  0.29838852641E+02 -0.30578259343E+03  0.30726375640E+03  0.00000000000E+00 0.  1.
<scales pt_clust_3="47.81385" pt_clust_4="47.81385" pt_clust_5="105.21706" pt_clust_6="30.13340"></scales>
<clustering>
<clus scale="   30.133">  2  6  1 -1</clus>
<clus scale="   47.814">  3  4 -1 -1</clus>
<clus scale="  105.217">  1  5  2 -1</clus>
<clus scale="  105.217">  1  3  2 -1</clus>
</clustering>
</event>
<event>
 6    0  0.5563122E+002  0.7142051E+02  0.7546771E-02  0.1355328E+00
         21   -1    0    0  503  501  0.00000000000E+00  0.00000000000E+00  0.12547390743E+03  0.12547390743E+03  0.00000000000E+00 0.  1.
         21   -1    0    0  504  502 -0.00000000000E+00 -0.00000000000E+00 -0.23051876652E+03  0.23051876652E+03  0.00000000000E+00 0. -1.
         21    1    1    2  503  506  0.86025396393E+01 -0.47929701156E+02  0.38538489152E+02  0.62100524050E+02  0.00000000000E+00 0.  1.
         21    1    1    2  504  505 -0.37982259309E+02 -0.54453075245E+02 -0.86614532097E+02  0.10913233525E+03  0.00000000000E+00 0. -1.
         21    1    1    2  505  501 -0.53548284368E+02  0.52893311384E+02 -0.44362526173E+02  0.87367928191E+02  0.00000000000E+00 0. -1.
         21    1    1    2  506  502  0.82928004038E+02  0.49489465017E+02 -0.12606289969E+02  0.97391886460E+02  0.00000000000E+00 0.  1.
<scales pt_clust_3="48.69558" pt_clust_4="14000.00000" pt_clust_5="64.38128" pt_clust_6="71.42051"></scales>
<clustering>
<clus scale="   48.696">  1  3  2 -1</clus>
<clus scale="   64.381">  1  5  2 -1</clus>
<clus scale="   71.421">  1  6  2 -1</clus>
<clus scale="   48.696">  1  3  2 -1</clus>
</clustering>
</event>
<event>
 6    0  0.5563122E+002  0.2102175E+03  0.7546771E-02  0.1141394E+00
         21   -1    0    0  505  501  0.00000000000E+00  0.00000000000E+00  0.29653479865E+03  0.29653479865E+03  0.00000000000E+00 0. -1.
         21   -1    0    0  503  502 -0.00000000000E+00 -0.00000000000E+00 -0.24877749073E+03  0.24877749073E+03  0.00000000000E+00 0.  1.
         21    1    1    2  503  501 -0.25315892827E+02  0.18056668504E+03  0.71212128078E+02  0.19574572630E+03  0.00000000000E+00 0. -1.
         21    1    1    2  504  506  0.10800764269E+02 -0.17015869785E+03 -0.81595332275E+02  0.18901967414E+03  0.00000000000E+00 0.  1.
         21    1    1    2  505  504 -0.15763194786E+02  0.26229803664E+02  0.95377927768E+02  0.10016701061E+03  0.00000000000E+00 0. -1.
         21    1    1    2  506  502  0.30278323344E+02 -0.36637790853E+02 -0.37237415643E+02  0.60379878327E+02  0.00000000000E+00 0.  1.
<scales pt_clust_3="201.40697" pt_clust_4="31.89158" pt_clust_5="30.60198" pt_clust_6="31.89158"></scales>
<clustering>
<clus scale="   30.602">  1  5  2 -1</clus>
<clus scale="   31.892">  4  6 -1 -1</clus>
<clus scale="  201.407">  1  3  2 -1</clus>
<clus scale="   30.602">  1  3  2 -1</clus>
</clustering>
</event>
<event>
 6    0  0.5563122E+002  0.1164073E+03  0.7546771E-02  0.1249144E+00
         21   -1    0    0  505  501  0.00000000000E+00  0.00000000000E+00  0.13711194532E+03  0.13711194532E+03  0.00000000000E+00 0.  1.
         21   -1    0    0  504  502 -0.00000000000E+00 -0.00000000000E+00 -0.48632682856E+03  0.48632682856E+03  0.00000000000E+00 0.  1.
         21    1    1    2  503  506  0.66220046663E+02 -0.50050542484E+01 -0.30202815497E+03  0.30924286822E+03  0.00000000000E+00 0.  1.
         21    1    1    2  504  501  0.54100633052E+00  0.38218555505E+02 -0.30170853865E+02  0.48695288229E+02  0.00000000000E+00 0. -1.
         21    1    1    2  505  503 -0.12170104901E+03 -0.43152534275E+00  0.82617453536E+02  0.14709512287E+03  0.00000000000E+00 0.  1.
         21    1    1    2  506  502  0.54939996019E+02 -0.32781975914E+02 -0.99633327934E+02  0.11840549456E+03  0.00000000000E+00 0.  1.
<scales pt_clust_3="14000.00000" pt_clust_4="38.22238" pt_clust_5="116.40727" pt_clust_6="59.86007"></scales>
<clustering>
<clus scale="   38.222">  2  4  1 -1</clus>
<clus scale="   59.860">  2  6  1 -1</clus>
<clus scale="  116.407">  1  5  2 -1</clus>
<clus scale="  116.407">  1  3  2 -1</clus>
</clustering>
</event>
<event>
 6    0  0.5563122E+002  0.1087105E+03  0.7546771E-02  0.1262977E+00
         21   -1    0    0  505  501  0.00000000000E+00  0.00000000000E+00  0.24557311733E+03  0.24557311733E+03  0.00000000000E+00 0. -1.
         21   -1    0    0  504  502 -0.00000000000E+00 -0.00000000000E+00 -0.20909286225E+04  0.20909286225E+04  0.00000000000E+00 0.  1.
         21    1    1    2  503  502 -0.55581777792E+02  0.30777676677E+02 -0.55367146663E+02  0.84274078659E+02  0.00000000000E+00 0. -1.
         21    1    1    2  504  506  0.10259422140E+03 -0.51294444365E+02 -0.17157971149E+04  0.17196268298E+04  0.00000000000E+00 0.  1.
         21    1    1    2  505  503 -0.21578868711E+02 -0.35186632155E+02  0.22421180797E+03  0.22797956376E+03  0.00000000000E+00 0. -1.
         21    1    1    2  506  501 -0.25433574893E+02  0.55703399843E+02 -0.29840305152E+03  0.30462126755E+03  0.00000000000E+00 0. -1.
<scales pt_clust_3="14000.00000" pt_clust_4="108.71054" pt_clust_5="41.27647" pt_clust_6="57.81542"></scales>
<clustering>
<clus scale="   41.276">  1  5  2 -1</clus>
<clus scale="   57.815">  1  6  2 -1</clus>
<clus scale="  108.711">  2  4  1 -1</clus>
<clus scale="   41.276">  1  3  2 -1</clus>
</clustering>
</event>
<event>
 6    0  0.5563122E+002  0.6002163E+02  0.7546771E-02  0.1397741E+00
         21   -1    0    0  505  501  0.00000000000E+00  0.00000000000E+00  0.19313602229E+03  0.19313602229E+03  0.00000000000E+00 0.  1.
         21   -1    0    0  504  502 -0.00000000000E+00 -0.00000000000E+00 -0.69926391498E+03  0.69926391498E+03  0.00000000000E+00 0.  1.
         21    1    1    2  503  502 -0.55098466515E+02 -0.10858531627E+03 -0.37061569106E+03  0.39010588612E+03  0.00000000000E+00 0.  1.
         21    1    1    2  504  506 -0.75046719502E+01  0.33225147770E+02 -0.47369819985E+02  0.58344926008E+02  0.00000000000E+00 0.  1.
         21    1    1    2  505  503  0.45951410148E+02  0.37552077873E+02  0.17127411994E+03  0.18126366102E+03  0.00000000000E+00 0.  1.
         21    1    1    2  506  501  0.16651728318E+02  0.37808090627E+02 -0.25941650157E+03  0.26268546412E+03  0.00000000000E+00 0.  1.
<scales pt_clust_3="60.02163" pt_clust_4="34.06216" pt_clust_5="14000.00000" pt_clust_6="53.00603"></scales>
<clustering>
<clus scale="   34.062">  2  4  1 -1</clus>
<clus scale="   53.006">  2  6  1 -1</clus>
<clus scale="   60.022">  2  3  1 -1</clus>
<clus scale="   60.022">  1  3  2 -1</clus>
</clustering>
</event>
<event>
 6    0  0.5563122E+002  0.1601995E+03  0.7546771E-02  0.1188472E+00
         21   -1    0    0  503  501  0.00000000000E+00  0.00000000000E+00  0.89587702818E+03  0.89587702818E+03  0.00000000000E+00 0. -1.
         21   -1    0    0  505  502 -0.00000000000E+00 -0.00000000000E+00 -0.22071814756E+03  0.22071814756E+03  0.00000000000E+00 0. -1.
         21    1    1    2  503  504 -0.11731187468E+03 -0.52869315473E+02  0.59192365665E+03  0.60574817851E+03  0.00000000000E+00 0. -1.
         21    1    1    2  504  502 -0.68569280952E+02  0.55022162660E+02 -0.13337073602E+03  0.15974022005E+03  0.00000000000E+00 0. -1.
         21    1    1    2  505  506  0.19466047203E+03  0.48956363875E+02  0.10164639956E+03  0.22499203426E+03  0.00000000000E+00 0. -1.
         21    1    1    2  506  501 -0.87793164028E+01 -0.51109211063E+02  0.11495956042E+03  0.12611474293E+03  0.00000000000E+00 0.  1.
<scales pt_clust_3="14000.00000" pt_clust_4="87.49168" pt_clust_5="160.19946" pt_clust_6="51.85777"></scales>
<clustering>
<clus scale="   51.858">  1  6  2 -1</clus>
<clus scale="   87.492">  2  4  1 -1</clus>
<clus scale="  160.199">  2  5  1 -1</clus>
<clus scale="   51.858">  1  3  2 -1</clus>
</clustering>
</event>
<event>
 6    0  0.5563122E+002  0.1294210E+03  0.7546771E-02  0.1228317E+00
         21   -1    0    0  505  501  0.00000000000E+00  0.00000000000E+00  0.72151193024E+02  0.72151193024E+02  0.00000000000E+00 0. -1.
         21   -1    0    0  504  502 -0.00000000000E+00 -0.00000000000E+00 -0.11831416886E+04  0.11831416886E+04  0.00000000000E+00 0. -1.
         21    1    1    2  503  501  0.50991170141E+02 -0.93437319803E+02 -0.29176864288E+03  0.31057941518E+03  0.00000000000E+00 0.  1.
         21    1    1    2  504  503  0.34080339156E+02  0.12646141658E+02 -0.93907890203E+02  0.10069799530E+03  0.00000000000E+00 0.  1.
         21    1    1    2  505  506  0.23453623513E+02 -0.30283329371E+02  0.44488532360E+02  0.58705894127E+02  0.00000000000E+00 0. -1.
         21    1    1    2  506  502 -0.10852513281E+03  0.11107450752E+03 -0.76980249485E+03  0.78530957701E+03  0.00000000000E+00 0. -1.
<scales pt_clust_3="14000.00000" pt_clust_4="36.35099" pt_clust_5="38.37526" pt_clust_6="129.42100"></scales>
<clustering>
<clus scale="   36.351">  2  4  1 -1</clus>
<clus scale="   38.375">  1  5  2 -1</clus>
<clus scale="  129.421">  2  6  1 -1</clus>
<clus scale="   38.375">  1  3  2 -1</clus>
</clustering>
</event>
<event>
 6    0  0.5563122E+002  0.8207968E+02  0.7546771E-02  0.1323251E+00
         21   -1    0    0  503  501  0.00000000000E+00  0.00000000000E+00  0.21993229918E+04  0.21993229918E+04  0.00000000000E+00 0. -1.
         21   -1    0    0  505  502 -0.00000000000E+00 -0.00000000000E+00 -0.15726575521E+03  0.15726575521E+03  0.00000000000E+00 0. -1.
         21    1    1    2  503  506  0.46784579367E+02  0.38834682955E+02  0.20311681682E+04  0.20320780145E+04  0.00000000000E+00 0. -1.
         21    1    1    2  504  501  0.32994853623E+02 -0.39878325737E+02  0.10487650409E+03  0.11695307751E+03  0.00000000000E+00 0. -1.
         21    1    1    2  505  504 -0.13190656423E+03 -0.79041935079E+01 -0.68673961462E+02  0.14892256695E+03  0.00000000000E+00 0. -1.
         21    1    1    2  506  502  0.52127131244E+02  0.89478362906E+01 -0.25313474171E+02  0.58635088135E+02  0.00000000000E+00 0. -1.
<scales pt_clust_3="14000.00000" pt_clust_4="51.75849" pt_clust_5="82.07968" pt_clust_6="53.09634"></scales>
<clustering>
<clus scale="   51.758">  1  4  2 -1</clus>
<clus scale="   53.096">  2  6  1 -1</clus>
<clus scale="   82.080">  2  5  1 -1</clus>
<clus scale="   51.758">  1  3  2 -1</clus>
</clustering>
</event>
<event>
 6    0  0.5563122E+002  0.8394687E+02  0.7546771E-02  0.1318210E+00
         21   -1    0    0  504  501  0.00000000000E+00  0.00000000000E+00  0.63995244940E+02  0.63995244940E+02  0.00000000000E+00 0. -1.
         21   -1    0    0  503  502 -0.00000000000E+00 -0.00000000000E+00 -0.12328940089E+04  0.12328940089E+04  0.00000000000E+00 0.  1.
         21    1    1    2  503  506  0.26077608899E+02 -0.26554713053E+02 -0.93909612914E+03  0.93983335451E+03  0.00000000000E+00 0.  1.
         21    1    1    2  504  505 -0.36744272008E+02  0.87098303835E+02 -0.23370156751E+02  0.97377719643E+02  0.00000000000E+00 0. -1.
         21    1    1    2  505  502  0.75070884853E+02 -0.24443687117E+02 -0.13811676796E+03  0.15908919883E+03  0.00000000000E+00 0. -1.
         21    1    1    2  506  501 -0.64404221744E+02 -0.36099903664E+02 -0.68315710101E+02  0.10058898086E+03  0.00000000000E+00 0. -1.
<scales pt_clust_3="37.21820" pt_clust_4="83.94687" pt_clust_5="14000.00000" pt_clust_6="71.76971"></scales>
<clustering>
<clus scale="   37.218">  2  3  1 -1</clus>
<clus scale="   71.770">  2  6  1 -1</clus>
<clus scale="   83.947">  1  4  2 -1</clus>
<clus scale="   83.947">  1  3  2 -1</clus>
</clustering>
</event>
<event>
 6    0  0.5563122E+002  0.8690770E+02  0.7546771E-02  0.1310518E+00
         21   -1    0    0  502  501  0.00000000000E+00  0.00000000000E+00  0.13601688314E+03  0.13601688314E+03  0.00000000000E+00 0. -1.
         21   -1    0    0  505  502 -0.00000000000E+00 -0.00000000000E+00 -0.51913856808E+03  0.51913856808E+03  0.00000000000E+00 0. -1.
         21    1    1    2  503  501  0.24194674210E+02  0.84100270126E+02  0.96788841553E+02  0.13048493225E+03  0.00000000000E+00 0. -1.
         21    1    1    2  504  506  0.43897686113E+02  0.78084981103E+01 -0.11949960515E+03  0.12754659980E+03  0.00000000000E+00 0. -1.
         21    1    1    2  505  504  0.60666176164E+01 -0.29774889207E+02 -0.24342943674E+03  0.24531864696E+03  0.00000000000E+00 0. -1.
         21    1    1    2  506  503 -0.74158977939E+02 -0.62133879029E+02 -0.11698148460E+03  0.15180527221E+03  0.00000000000E+00 0. -1.
<scales pt_clust_3="86.90770" pt_clust_4="46.95736" pt_clust_5="30.38664" pt_clust_6="14000.00000"></scales>
<clustering>
<clus scale="   30.387">  2  5  1 -1</clus>
<clus scale="   46.957">  2  4  1 -1</clus>
<clus scale="   86.908">  1  3  2 -1</clus>
<clus scale="   86.908">  1  3  2 -1</clus>
</clustering>
</event>
<event>
 6    0  0.5563122E+002  0.1078927E+03  0.7546771E-02  0.1264523E+00
         21   -1    0    0  506  501  0.00000000000E+00  0.00000000000E+00  0.19964356313E+03  0.19964356313E+03  0.00000000000E+00 0.  1.
         21   -1    0    0  505  502 -0.00000000000E+00 -0.00000000000E+00 -0.90975743005E+03  0.90975743005E+03  0.00000000000E+00 0. -1.
         21    1    1    2  503  501 -0.48326821884E+02  0.14438206710E+02  0.11425858611E+03  0.12489582870E+03  0.00000000000E+00 0.  1.
         21    1    1    2  504  503  0.13442060197E+03  0.51241807806E+02  0.56847484773E+01  0.14396852943E+03  0.00000000000E+00 0.  1.
         21    1    1    2  505  504 -0.41864761598E+02  0.24110118735E+01 -0.15350609472E+03  0.15913073983E+03  0.00000000000E+00 0. -1.
         21    1    1    2  506  502 -0.44229018490E+02 -0.68091026390E+02 -0.67655110678E+03  0.68140589522E+03  0.00000000000E+00 0. -1.
<scales pt_clust_3="50.72560" pt_clust_4="107.89271" pt_clust_5="41.93413" pt_clust_6="14000.00000"></scales>
<clustering>
<clus scale="   41.934">  2  5  1 -1</clus>
<clus scale="   50.726">  1  3  2 -1</clus>
<clus scale="  107.893">  1  4  2 -1</clus>
<clus scale="   50.726">  1  3  2 -1</clus>
</clustering>
</event>
<event>
 6    0  0.5563122E+002  0.9886589E+02  0.7546771E-02  0.1282699E+00
         21   -1    0    0  505  501  0.00000000000E+00  0.00000000000E+00  0.24706375577E+03  0.24706375577E+03  0.00000000000E+00 0.  1.
         21   -1    0    0  503  502 -0.00000000000E+00 -0.00000000000E+00 -0.16271327695E+03  0.16271327695E+03  0.00000000000E+00 0.  1.
         21    1    1    2  503  506  0.18565738919E+02 -0.96343087353E+02 -0.45068690548E+02  0.10797158890E+03  0.00000000000E+00 0.  1.
         21    1    1    2  504  502  0.34405451143E+02 -0.11010832112E+00 -0.27419932660E+02  0.43995453166E+02  0.00000000000E+00 0. -1.
         21    1    1    2  505  504 -0.73116413971E+02  0.73612945443E+02  0.60001673495E+01  0.10392727138E+03  0.00000000000E+00 0.  1.
         21    1    1    2  506  501  0.20145223909E+02  0.22840250231E+02  0.15083893467E+03  0.15388271927E+03  0.00000000000E+00 0.  1.
<scales pt_clust_3="98.86589" pt_clust_4="36.21771" pt_clust_5="14000.00000" pt_clust_6="30.45500"></scales>
<clustering>
<clus scale="   30.455">  1  6  2 -1</clus>
<clus scale="   36.218">  2  4  1 -1</clus>
<clus scale="   98.866">  2  3  1 -1</clus>
<clus scale="   30.455">  1  3  2 -1</clus>
</clustering>
</event>
<event>
 6    0  0.5563122E+002  0.2833573E+03  0.7546771E-02  0.1093869E+00
         21   -1    0    0  504  501  0.00000000000E+00  0.00000000000E+00  0.48746196187E+03  0.48746196187E+03  0.00000000000E+00 0.  1.
         21   -1    0    0  505  502 -0.00000000000E+00 -0.00000000000E+00 -0.55069775256E+03  0.55069775256E+03  0.00000000000E+00 0. -1.
         21    1    1    2  503  502  0.30981508068E+02  0.25199621221E+03  0.21296142216E+02  0.25478514573E+03  0.00000000000E+00 0.  1.
         21    1    1    2  504  506  0.39925132743E+02 -0.52237260300E+02  0.64591814653E+02  0.92167511133E+02  0.00000000000E+00 0.  1.
         21    1    1    2  505  501 -0.84062203488E+02  0.32439663514E+02 -0.36374555023E+03  0.37473939096E+03  0.00000000000E+00 0. -1.
         21    1    1    2  506  503  0.13155562676E+02 -0.23219861542E+03  0.21462180267E+03  0.31646766661E+03  0.00000000000E+00 0.  1.
<scales pt_clust_3="273.84344" pt_clust_4="38.71210" pt_clust_5="90.10431" pt_clust_6="38.71210"></scales>
<clustering>
<clus scale="   38.712">  4  6 -1 -1</clus>
<clus scale="   90.104">  2  5  1 -1</clus>
<clus scale="  273.843">  2  3  1 -1</clus>
<clus scale="  283.357">  1  3  2 -1</clus>
</clustering>
</event>
<event>
 6    0  0.5563122E+002  0.1587522E+03  0.7546771E-02  0.1190113E+00
         21   -1    0    0  505  501  0.00000000000E+00  0.00000000000E+00  0.25756553192E+03  0.25756553192E+03  0.00000000000E+00 0. -1.
         21   -1    0    0  503  502 -0.00000000000E+00 -0.00000000000E+00 -0.11660121883E+03  0.11660121883E+03  0.00000000000E+00 0. -1.
         21    1    1    2  503  506  0.23019868372E+02 -0.66834773182E+02  0.70349021349E+02  0.99728561861E+02  0.00000000000E+00 0. -1.
         21    1    1    2  504  502 -0.20031860460E+02  0.65934738936E+02 -0.39984614179E+02  0.79670788895E+02  0.00000000000E+00 0. -1.
         21    1    1    2  505  504  0.93721869012E+01  0.75555420454E+02  0.24140756105E+02  0.79870116769E+02  0.00000000000E+00 0. -1.
         21    1    1    2  506  501 -0.12360194813E+02 -0.74655386208E+02  0.86459149814E+02  0.11489728322E+03  0.00000000000E+00 0. -1.
<scales pt_clust_3="35.41118" pt_clust_4="67.73623" pt_clust_5="67.73623" pt_clust_6="146.54505"></scales>
<clustering>
<clus scale="   35.411">  3  6 -1 -1</clus>
<clus scale="   67.736">  4  5 -1 -1</clus>
<clus scale="  146.545">  1  3  2 -1</clus>
<clus scale="  146.545">  1  3  2 -1</clus>
</clustering>
</event>
<event>
 6    0  0.5563122E+002  0.1121865E+03  0.7546771E-02  0.1256574E+00
         21   -1    0    0  503  501  0.00000000000E+00  0.00000000000E+00  0.35461989296E+03  0.35461989296E+03  0.00000000000E+00 0.  1.
         21   -1    0    0  506  502 -0.00000000000E+00 -0.00000000000E+00 -0.99139372204E+02  0.99139372204E+02  0.00000000000E+00 0.  1.
         21    1    1    2  503  504 -0.10566881067E+02  0.39434552646E+02  0.26309848101E+02  0.48569033601E+02  0.00000000000E+00 0.  1.
         21    1    1    2  504  502 -0.71454164587E+02  0.71273494853E+02 -0.11572083497E+02  0.10158504724E+03  0.00000000000E+00 0.  1.
         21    1    1    2  505  501  0.32083968502E+02 -0.59151941911E+02  0.21824850731E+03  0.22838726805E+03  0.00000000000E+00 0.  1.
         21    1    1    2  506  505  0.49937077152E+02 -0.51556105587E+02  0.22494248846E+02  0.75217916277E+02  0.00000000000E+00 0. -1.
<scales pt_clust_3="36.78658" pt_clust_4="36.78658" pt_clust_5="67.29289" pt_clust_6="96.12743"></scales>
<clustering>
<clus scale="   36.787">  3  4 -1 -1</clus>
<clus scale="   67.293">  1  5  2 -1</clus>
<clus scale="   96.127">  2  6  1 -1</clus>
<clus scale="   67.293">  1  3  2 -1</clus>
</clustering>
</event>
<event>
 6    0  0.5563122E+002  0.9077817E+02  0.7546771E-02  0.1300978E+00
         21   -1    0    0  504  501  0.00000000000E+00  0.00000000000E+00  0.12612429687E+04  0.12612429687E+04  0.00000000000E+00 0. -1.
         21   -1    0    0  503  502 -0.00000000000E+00 -0.00000000000E+00 -0.45519653324E+02  0.45519653324E+02  0.00000000000E+00 0. -1.
         21    1    1    2  503  505  0.76194887717E+02  0.27909781243E+02  0.96975769922E+02  0.12644728845E+03  0.00000000000E+00 0. -1.
         21    1    1    2  504  502  0.81466316980E+02 -0.44721252131E+02  0.67685081398E+03  0.68320112381E+03  0.00000000000E+00 0. -1.
         21    1    1    2  505  506 -0.45978374156E+02  0.75873296766E+02  0.10590211873E+03  0.13815218711E+03  0.00000000000E+00 0. -1.
         21    1    1    2  506  501 -0.11168283054E+03 -0.59061825878E+02  0.33599461270E+03  0.35896202261E+03  0.00000000000E+00 0. -1.
<scales pt_clust_3="81.14565" pt_clust_4="14000.00000" pt_clust_5="90.69594" pt_clust_6="90.77817"></scales>
<clustering>
<clus scale="   81.146">  2  3  1 -1</clus>
<clus scale="   90.696">  2  5  1 -1</clus>
<clus scale="   90.778">  2  6  1 -1</clus>
<clus scale="   90.778">  1  3  2 -1</clus>
</clustering>
</event>
<event>
 6    0  0.5563122E+002  0.1523249E+03  0.7546771E-02  0.1197645E+00
         21   -1    0    0  504  501  0.00000000000E+00  0.00000000000E+00  0.78354445140E+02  0.78354445140E+02  0.00000000000E+00 0. -1.
         21   -1    0    0  505  502 -0.00000000000E+00 -0.00000000000E+00 -0.51751730184E+03  0.51751730184E+03  0.00000000000E+00 0. -1.
         21    1    1    2  503  502  0.11310827844E+02 -0.41010396641E+02 -0.12941566809E+03  0.13622849410E+03  0.00000000000E+00 0. -1.
         21    1    1    2  504  503  0.10980945158E+03  0.96742055153E+02 -0.36704365117E+02  0.15087859792E+03  0.00000000000E+00 0. -1.
         21    1    1    2  505  506 -0.29456499390E+02 -0.21613370630E+02 -0.13314669988E+03  0.13806834117E+03  0.00000000000E+00 0. -1.
         21    1    1    2  506  501 -0.91663780029E+02 -0.34118287882E+02 -0.13989612362E+03  0.17069631379E+03  0.00000000000E+00 0. -1.
<scales pt_clust_3="42.54160" pt_clust_4="142.11185" pt_clust_5="33.51529" pt_clust_6="33.51529"></scales>
<clustering>
<clus scale="   33.515">  5  6 -1 -1</clus>
<clus scale="   42.542">  2  3  1 -1</clus>
<clus scale="  142.112">  1  4  2 -1</clus>
<clus scale="  142.112">  1  3  2 -1</clus>
</clustering>
</event>
<event>
 6    0  0.5563122E+002  0.1399697E+03  0.7546771E-02  0.1213370E+00
         21   -1    0    0  506  501  0.00000000000E+00  0.00000000000E+00  0.72762685950E+02  0.72762685950E+02  0.00000000000E+00 0.  1.
         21   -1    0    0  503  502 -0.00000000000E+00 -0.00000000000E+00 -0.62789321177E+03  0.62789321177E+03  0.00000000000E+00 0.  1.
         21    1    1    2  503  501 -0.97887045054E+02  0.10515706205E+03 -0.27613234276E+03  0.31126990219E+03  0.00000000000E+00 0.  1.
         21    1    1    2  504  505  0.49963924508E+02 -0.74507088576E+01 -0.27740338405E+02  0.57631876505E+02  0.00000000000E+00 0.  1.
         21    1    1    2  505  502  0.54853748730E+02 -0.12943209632E+03 -0.26218267373E+03  0.29749177419E+03  0.00000000000E+00 0.  1.
         21    1    1    2  506  504 -0.69306281833E+01  0.31725743127E+02  0.10924829072E+02  0.34262344844E+02  0.00000000000E+00 0.  1.
<scales pt_clust_3="139.96974" pt_clust_4="47.94100" pt_clust_5="14000.00000" pt_clust_6="32.47393"></scales>
<clustering>
<clus scale="   32.474">  1  6  2 -1</clus>
<clus scale="   47.941">  1  4  2 -1</clus>
<clus scale="  139.970">  2  3  1 -1</clus>
<clus scale="   32.474">  1  3  2 -1</clus>
</clustering>
</event>
<event>
 6    0  0.5563122E+002  0.3464490E+03  0.7546771E-02  0.1064082E+00
         21   -1    0    0  504  501  0.00000000000E+00  0.00000000000E+00  0.13060031508E+03  0.13060031508E+03  0.00000000000E+00 0. -1.
         21   -1    0    0  505  502 -0.00000000000E+00 -0.00000000000E+00 -0.12505631947E+04  0.12505631947E+04  0.00000000000E+00 0. -1.
         21    1    1    2  503  502  0.20313905229E+02  0.39430429786E+02 -0.76398975079E+02  0.88341479112E+02  0.00000000000E+00 0. -1.
         21    1    1    2  504  503  0.29992776981E+03  0.11857657347E+03 -0.73694129750E+03  0.80442497900E+03  0.00000000000E+00 0. -1.
         21    1    1    2  505  506 -0.26897083877E+02 -0.13955534687E+02 -0.93380451325E+02  0.98173920973E+02  0.00000000000E+00 0. -1.
         21    1    1    2  506  501 -0.29334459116E+03 -0.14405146857E+03 -0.21324215571E+03  0.39022313070E+03  0.00000000000E+00 0. -1.
<scales pt_clust_3="33.55038" pt_clust_4="33.55038" pt_clust_5="30.30198" pt_clust_6="334.72123"></scales>
<clustering>
<clus scale="   30.302">  2  5  1 -1</clus>
<clus scale="   33.550">  3  4 -1 -1</clus>
<clus scale="  334.721">  1  6  2 -1</clus>
<clus scale="  334.721">  1  3  2 -1</clus>
</clustering>
</event>
<event>
 6    0  0.7088667E+002  0.9465026E+02  0.7546771E-02  0.1291966E+00
         21   -1    0    0  504  501  0.00000000000E+00  0.00000000000E+00  0.40126413836E+03  0.40126413836E+03  0.00000000000E+00 0. -1.
         21   -1    0    0  503  502 -0.00000000000E+00 -0.00000000000E+00 -0.68562860314E+03  0.68562860314E+03  0.00000000000E+00 0. -1.
         21    1    1    2  503  505 -0.78961084519E+02  0.84787764494E+01 -0.65303056301E+03  0.65784166692E+03  0.00000000000E+00 0. -1.
         21    1    1    2  504  502 -0.28558098076E+02 -0.49474142971E+02  0.23774226750E+02  0.61874628451E+02  0.00000000000E+00 0. -1.
         21    1    1    2  505  506  0.71249832799E+02  0.40732612337E+01  0.16035070119E+03  0.17551489254E+03  0.00000000000E+00 0.  1.
         21    1    1    2  506  501  0.36269349797E+02  0.36922105288E+02  0.18454117029E+03  0.19166155359E+03  0.00000000000E+00 0. -1.
<scales pt_clust_3="79.57089" pt_clust_4="57.12491" pt_clust_5="43.64929" pt_clust_6="43.64929"></scales>
<clustering>
<clus scale="   43.649">  5  6 -1 -1</clus>
<clus scale="   57.125">  1  4  2 -1</clus>
<clus scale="   79.571">  2  3  1 -1</clus>
<clus scale="   57.125">  1  3  2 -1</clus>
</clustering>
</event>
<event>
 6    0  0.5563122E+002  0.1181941E+03  0.7546771E-02  0.1246106E+00
         21   -1    0    0  505  501  0.00000000000E+00  0.00000000000E+00  0.10868242670E+03  0.10868242670E+03  0.00000000000E+00 0.  1.
         21   -1    0    0  503  502 -0.00000000000E+00 -0.00000000000E+00 -0.18342334091E+04  0.18342334091E+04  0.00000000000E+00 0.  1.
         21    1    1    2  503  506 -0.54353331946E+02  0.35434543963E+02 -0.70321706027E+03  0.70620402537E+03  0.00000000000E+00 0.  1.
         21    1    1    2  504  502  0.55430334847E+02  0.17358051236E+02 -0.70367916319E+03  0.70607236787E+03  0.00000000000E+00 0.  1.
         21    1    1    2  505  504 -0.86083375895E+00  0.69955022669E+02 -0.38486586983E+03  0.39117283135E+03  0.00000000000E+00 0.  1.
         21    1    1    2  506  501 -0.21616914262E+00 -0.12274761787E+03  0.66211110924E+02  0.13946661117E+03  0.00000000000E+00 0.  1.
<scales pt_clust_3="50.31095" pt_clust_4="58.08463" pt_clust_5="118.19408" pt_clust_6="14000.00000"></scales>
<clustering>
<clus scale="   58.085">  2  4  1 -1</clus>
<clus scale="   50.311">  2  3  1 -1</clus>
<clus scale="  118.194">  2  5  1 -1</clus>
<clus scale="  118.194">  1  3  2 -1</clus>
</clustering>
</event>
<event>
 6    0  0.5563122E+002  0.1144368E+03  0.7546771E-02  0.1252567E+00
         21   -1    0    0  503  501  0.00000000000E+00  0.00000000000E+00  0.33384720092E+03  0.33384720092E+03  0.00000000000E+00 0. -1.
         21   -1    0    0  505  502 -0.00000000000E+00 -0.00000000000E+00 -0.11755971223E+03  0.11755971223E+03  0.00000000000E+00 0. -1.
         21    1    1    2  503  504 -0.43928037679E+01  0.32466088842E+02  0.31227569122E+02  0.45260410105E+02  0.00000000000E+00 0. -1.
         21    1    1    2  504  506 -0.13543119954E+03 -0.64086669371E+02  0.91050319601E+02  0.17532504584E+03  0.00000000000E+00 0. -1.
         21    1    1    2  505  501  0.10006466066E+03 -0.48301669585E+00  0.13307359789E+03  0.16649850472E+03  0.00000000000E+00 0. -1.
         21    1    1    2  506  502  0.39759342653E+02  0.32103597226E+02 -0.39063997928E+02  0.64322952491E+02  0.00000000000E+00 0. -1.
<scales pt_clust_3="32.76192" pt_clust_4="14000.00000" pt_clust_5="114.43680" pt_clust_6="51.84152"></scales>
<clustering>
<clus scale="   32.762">  1  3  2 -1</clus>
<clus scale="   51.842">  2  6  1 -1</clus>
<clus scale="  114.437">  1  5  2 -1</clus>
<clus scale="   32.762">  1  3  2 -1</clus>
</clustering>
</event>
<event>
 6    0  0.5563122E+002  0.7976558E+02  0.7546771E-02  0.1329718E+00
         21   -1    0    0  504  501  0.00000000000E+00  0.00000000000E+00  0.59249969571E+03  0.59249969571E+03  0.00000000000E+00 0.  1.
         21   -1    0    0  506  502 -0.00000000000E+00 -0.00000000000E+00 -0.65226025459E+02  0.65226025459E+02  0.00000000000E+00 0.  1.
         21    1    1    2  503  505  0.63238807042E+02 -0.13980621098E+02  0.12200078493E+03  0.13812601495E+03  0.00000000000E+00 0.  1.
         21    1    1    2  504  502  0.24049336674E+02  0.85369951044E+02  0.20000817297E+03  0.21879138098E+03  0.00000000000E+00 0.  1.
         21    1    1    2  505  501 -0.38273368808E+02 -0.91225181574E+01  0.21714319589E+03  0.22067903983E+03  0.00000000000E+00 0.  1.
         21    1    1    2  506  503 -0.49014774907E+02 -0.62266811789E+02 -0.11878483541E+02  0.80129285413E+02  0.00000000000E+00 0.  1.
<scales pt_clust_3="52.78034" pt_clust_4="79.76558" pt_clust_5="39.34553" pt_clust_6="14000.00000"></scales>
<clustering>
<clus scale="   39.346">  1  5  2 -1</clus>
<clus scale="   52.780">  1  3  2 -1</clus>
<clus scale="   79.766">  1  4  2 -1</clus>
<clus scale="   39.346">  1  3  2 -1</clus>
</clustering>
</event>
<event>
 6    0  0.5563122E+002  0.8743531E+02  0.7546771E-02  0.1309184E+00
         21   -1    0    0  506  501  0.00000000000E+00  0.00000000000E+00  0.40201978803E+03  0.40201978803E+03  0.00000000000E+00 0. -1.
         21   -1    0    0  504  502 -0.00000000000E+00 -0.00000000000E+00 -0.21509738298E+03  0.21509738298E+03  0.00000000000E+00 0. -1.
         21    1    1    2  503  501 -0.78692214757E+01  0.42683232203E+02  0.31138431299E+03  0.31439461403E+03  0.00000000000E+00 0. -1.
         21    1    1    2  504  505  0.85935784019E+02 -0.15963416585E+02 -0.88950252510E+02  0.12470740582E+03  0.00000000000E+00 0. -1.
         21    1    1    2  505  503 -0.86962633822E+02 -0.61658092327E+02 -0.70475375681E+02  0.12779279560E+03  0.00000000000E+00 0. -1.
         21    1    1    2  506  502  0.88960712784E+01  0.34938276708E+02  0.34963720257E+02  0.50222355558E+02  0.00000000000E+00 0.  1.
<scales pt_clust_3="73.09793" pt_clust_4="14000.00000" pt_clust_5="87.43531" pt_clust_6="36.05306"></scales>
<clustering>
<clus scale="   36.053">  1  6  2 -1</clus>
<clus scale="   73.098">  1  3  2 -1</clus>
<clus scale="   87.435">  1  5  2 -1</clus>
<clus scale="   36.053">  1  3  2 -1</clus>
</clustering>
</event>
<event>
 6    0  0.5563122E+002  0.1135895E+03  0.7546771E-02  0.1254063E+00
         21   -1    0    0  502  501  0.00000000000E+00  0.00000000000E+00  0.19568152144E+04  0.19568152144E+04  0.00000000000E+00 0. -1.
         21   -1    0    0  506  502 -0.00000000000E+00 -0.00000000000E+00 -0.39180429500E+02  0.39180429500E+02  0.00000000000E+00 0. -1.
         21    1    1    2  503  505  0.16254942421E+03 -0.32423684156E+02  0.34016271254E+03  0.37839698943E+03  0.00000000000E+00 0. -1.
         21    1    1    2  504  503 -0.80962130417E+02  0.29879469482E+01  0.96327446506E+02  0.12586807117E+03  0.00000000000E+00 0. -1.
         21    1    1    2  505  501 -0.54572585123E+02  0.58689901497E+02  0.13894962757E+04  0.13918055079E+04  0.00000000000E+00 0. -1.
         21    1    1    2  506  504 -0.27014708674E+02 -0.29254164289E+02  0.91648350201E+02  0.99925075469E+02  0.00000000000E+00 0. -1.
<scales pt_clust_3="14000.00000" pt_clust_4="113.58954" pt_clust_5="80.05249" pt_clust_6="39.81960"></scales>
<clustering>
<clus scale="   39.820">  2  6  1 -1</clus>
<clus scale="   80.052">  1  5  2 -1</clus>
<clus scale="  113.590">  2  4  1 -1</clus>
<clus scale="   80.052">  1  3  2 -1</clus>
</clustering>
</event>
<event>
 6    0  0.5563122E+002  0.8058539E+02  0.7546771E-02  0.1327398E+00
         21   -1    0    0  505  501  0.00000000000E+00  0.00000000000E+00  0.11773375938E+03  0.11773375938E+03  0.00000000000E+00 0. -1.
         21   -1    0    0  503  502 -0.00000000000E+00 -0.00000000000E+00 -0.71080834416E+03  0.71080834416E+03  0.00000000000E+00 0.  1.
         21    1    1    2  503  504 -0.25254224407E+02 -0.74791841431E+02 -0.53231041494E+03  0.53813192922E+03  0.00000000000E+00 0.  1.
         21    1    1    2  504  506  0.10209941148E+03  0.98755870121E+02  0.21110859695E+02  0.14360598910E+03  0.00000000000E+00 0. -1.
         21    1    1    2  505  502 -0.13074883574E+02 -0.50741409195E+02 -0.40323819604E+02  0.66118481645E+02  0.00000000000E+00 0.  1.
         21    1    1    2  506  501 -0.63770303498E+02  0.26777380504E+02 -0.41551209928E+02  0.80685703575E+02  0.00000000000E+00 0.  1.
<scales pt_clust_3="14000.00000" pt_clust_4="80.58539" pt_clust_5="52.39889" pt_clust_6="68.43519"></scales>
<clustering>
<clus scale="   52.399">  1  5  2 -1</clus>
<clus scale="   68.435">  1  6  2 -1</clus>
<clus scale="   80.585">  1  4  2 -1</clus>
<clus scale="   52.399">  1  3  2 -1</clus>
</clustering>
</event>
<event>
 6    0  0.5563122E+002  0.1577884E+03  0.7546771E-02  0.1191217E+00
         21   -1    0    0  505  501  0.00000000000E+00  0.00000000000E+00  0.93326229277E+03  0.93326229277E+03  0.00000000000E+00 0.  1.
         21   -1    0    0  504  502 -0.00000000000E+00 -0.00000000000E+00 -0.20852109477E+03  0.20852109477E+03  0.00000000000E+00 0.  1.
         21    1    1    2  503  501  0.16999938698E+02  0.38559190467E+02  0.67342598053E+03  0.67474318103E+03  0.00000000000E+00 0.  1.
         21    1    1    2  504  506  0.79285510039E+01  0.35149469746E+02  0.44574284483E-01  0.36032612052E+02  0.00000000000E+00 0. -1.
         21    1    1    2  505  502  0.15796490273E+02 -0.19512346676E+03 -0.11041194856E+03  0.22475207401E+03  0.00000000000E+00 0.  1.
         21    1    1    2  506  503 -0.40724979975E+02  0.12141480655E+03  0.16168259174E+03  0.20625552045E+03  0.00000000000E+00 0.  1.
<scales pt_clust_3="42.26259" pt_clust_4="36.03258" pt_clust_5="14000.00000" pt_clust_6="157.78839"></scales>
<clustering>
<clus scale="   36.033">  2  4  1 -1</clus>
<clus scale="   42.263">  1  3  2 -1</clus>
<clus scale="  157.788">  1  6  2 -1</clus>
<clus scale="   42.263">  1  3  2 -1</clus>
</clustering>
</event>
<event>
 6    0  0.5563122E+002  0.7385324E+02  0.7546771E-02  0.1347459E+00
         21   -1    0    0  506  501  0.00000000000E+00  0.00000000000E+00  0.10938640858E+03  0.10938640858E+03  0.00000000000E+00 0. -1.
         21   -1    0    0  504  502 -0.00000000000E+00 -0.00000000000E+00 -0.33654016141E+03  0.33654016141E+03  0.00000000000E+00 0. -1.
         21    1    1    2  503  505  0.70179438760E+02  0.62744604180E+02 -0.45624930689E+02  0.10461201307E+03  0.00000000000E+00 0. -1.
         21    1    1    2  504  503 -0.31845301225E+02  0.41106333194E+02 -0.98018688167E+02  0.11095727587E+03  0.00000000000E+00 0. -1.
         21    1    1    2  505  501 -0.38327856609E+01 -0.41865164295E+02  0.58250752794E+02  0.71836845897E+02  0.00000000000E+00 0. -1.
         21    1    1    2  506  502 -0.34501351873E+02 -0.61985773079E+02 -0.14176088677E+03  0.15852043516E+03  0.00000000000E+00 0. -1.
<scales pt_clust_3="14000.00000" pt_clust_4="47.69637" pt_clust_5="42.04025" pt_clust_6="73.85324"></scales>
<clustering>
<clus scale="   42.040">  1  5  2 -1</clus>
<clus scale="   47.696">  2  4  1 -1</clus>
<clus scale="   73.853">  2  6  1 -1</clus>
<clus scale="   42.040">  1  3  2 -1</clus>
</clustering>
</event>
<event>
 6    0  0.5563122E+002  0.1209081E+03  0.7546771E-02  0.1241607E+00
         21   -1    0    0  506  501  0.00000000000E+00  0.00000000000E+00  0.51599073131E+03  0.51599073131E+03  0.00000000000E+00 0. -1.
         21   -1    0    0  503  502 -0.00000000000E+00 -0.00000000000E+00 -0.99579832152E+02  0.99579832152E+02  0.00000000000E+00 0.  1.
         21    1    1    2  503  501  0.53438297118E+02  0.26036863174E+01  0.33861083374E+02  0.63316694075E+02  0.00000000000E+00 0. -1.
         21    1    1    2  504  502 -0.34154646842E+02 -0.10234309929E+02 -0.18854078849E+02  0.40333079351E+02  0.00000000000E+00 0.  1.
         21    1    1    2  505  504 -0.53413600593E+02  0.12121637423E+03  0.50919290333E+02  0.14191263593E+03  0.00000000000E+00 0.  1.
         21    1    1    2  506  505  0.34129950317E+02 -0.11358575062E+03  0.35048460430E+03  0.37000815410E+03  0.00000000000E+00 0. -1.
<scales pt_clust_3="46.25303" pt_clust_4="35.65503" pt_clust_5="14000.00000" pt_clust_6="120.90806"></scales>
<clustering>
<clus scale="   35.655">  2  4  1 -1</clus>
<clus scale="   46.253">  2  3  1 -1</clus>
<clus scale="  120.908">  1  6  2 -1</clus>
<clus scale="  120.908">  1  3  2 -1</clus>
</clustering>
</event>
<event>
 6    0  0.5563122E+002  0.1016835E+03  0.7546771E-02  0.1276795E+00
         21   -1    0    0  503  501  0.00000000000E+00  0.00000000000E+00  0.18564089220E+03  0.18564089220E+03  0.00000000000E+00 0.  1.
         21   -1    0    0  504  502 -0.00000000000E+00 -0.00000000000E+00 -0.79017508399E+03  0.79017508399E+03  0.00000000000E+00 0.  1.
         21    1    1    2  503  506  0.36576257417E+02  0.63466835326E+02  0.14225172645E+03  0.16000442329E+03  0.00000000000E+00 0.  1.
         21    1    1    2  504  505 -0.46871887166E+02 -0.22234143249E+02 -0.41957938386E+03  0.42277439645E+03  0.00000000000E+00 0.  1.
         21    1    1    2  505  501  0.12849354453E+02 -0.12915287698E+03 -0.19497113135E+03  0.23422065153E+03  0.00000000000E+00 0.  1.
         21    1    1    2  506  502 -0.25537247037E+01  0.87920184904E+02 -0.13223540303E+03  0.15881650493E+03  0.00000000000E+00 0. -1.
<scales pt_clust_3="72.22914" pt_clust_4="51.87804" pt_clust_5="101.68353" pt_clust_6="14000.00000"></scales>
<clustering>
<clus scale="   51.878">  2  4  1 -1</clus>
<clus scale="   72.229">  1  3  2 -1</clus>
<clus scale="  101.684">  1  5  2 -1</clus>
<clus scale="   72.229">  1  3  2 -1</clus>
</clustering>
</event>
<event>
 6    0  0.5563122E+002  0.9636047E+02  0.7546771E-02  0.1288141E+00
         21   -1    0    0  504  501  0.00000000000E+00  0.00000000000E+00  0.70097442277E+02  0.70097442277E+02  0.00000000000E+00 0.  1.
         21   -1    0    0  505  502 -0.00000000000E+00 -0.00000000000E+00 -0.22584321081E+04  0.22584321081E+04  0.00000000000E+00 0. -1.
         21    1    1    2  503  501 -0.13070467439E+03 -0.40715445667E+02 -0.45238281443E+02  0.14418030910E+03  0.00000000000E+00 0.  1.
         21    1    1    2  504  506  0.30790333651E+02 -0.10615548384E+02 -0.95195364208E+01  0.33931638444E+02  0.00000000000E+00 0.  1.
         21    1    1    2  505  503  0.37426292227E+02  0.46961278759E+02 -0.20185282803E+04  0.20194213298E+04  0.00000000000E+00 0. -1.
         21    1    1    2  506  502  0.62488048510E+02  0.43697152924E+01 -0.11504856766E+03  0.13099627300E+03  0.00000000000E+00 0. -1.
<scales pt_clust_3="96.36047" pt_clust_4="32.56892" pt_clust_5="60.13517" pt_clust_6="14000.00000"></scales>
<clustering>
<clus scale="   32.569">  1  4  2 -1</clus>
<clus scale="   60.135">  2  5  1 -1</clus>
<clus scale="   96.360">  1  3  2 -1</clus>
<clus scale="   32.569">  1  3  2 -1</clus>
</clustering>
</event>
<event>
 6    0  0.5563122E+002  0.9413451E+02  0.7546771E-02  0.1293137E+00
         21   -1    0    0  506  501  0.00000000000E+00  0.00000000000E+00  0.12168802578E+04  0.12168802578E+04  0.00000000000E+00 0.  1.
         21   -1    0    0  504  502 -0.00000000000E+00 -0.00000000000E+00 -0.15036834860E+03  0.15036834860E+03  0.00000000000E+00 0. -1.
         21    1    1    2  503  505  0.48995974283E+02  0.45350521844E+01  0.12256356957E+03  0.13207195304E+03  0.00000000000E+00 0. -1.
         21    1    1    2  504  503  0.92591618423E+02 -0.14964721448E+02 -0.12421834995E+03  0.15565137055E+03  0.00000000000E+00 0. -1.
         21    1    1    2  505  501 -0.23907893851E+02  0.24263517764E+02  0.15470603951E+03  0.15841169257E+03  0.00000000000E+00 0. -1.
         21    1    1    2  506  502 -0.11767969885E+03 -0.13833848500E+02  0.91346065005E+03  0.92111359022E+03  0.00000000000E+00 0.  1.
<scales pt_clust_3="46.72278" pt_clust_4="94.13451" pt_clust_5="34.06326" pt_clust_6="14000.00000"></scales>
<clustering>
<clus scale="   34.063">  1  5  2 -1</clus>
<clus scale="   46.723">  1  3  2 -1</clus>
<clus scale="   94.135">  2  4  1 -1</clus>
<clus scale="   34.063">  1  3  2 -1</clus>
</clustering>
</event>
<event>
 6    0  0.5563122E+002  0.7952916E+02  0.7546771E-02  0.1330393E+00
         21   -1    0    0  503  501  0.00000000000E+00  0.00000000000E+00  0.51344697809E+03  0.51344697809E+03  0.00000000000E+00 0. -1.
         21   -1    0    0  506  502 -0.00000000000E+00 -0.00000000000E+00 -0.15187697499E+03  0.15187697499E+03  0.00000000000E+00 0. -1.
         21    1    1    2  503  502  0.78411744267E+01  0.10892538176E+03  0.41401092398E+02  0.11679158043E+03  0.00000000000E+00 0. -1.
         21    1    1    2  504  505 -0.16911575467E+02 -0.39291574505E+02  0.44007085102E+02  0.61371432695E+02  0.00000000000E+00 0. -1.
         21    1    1    2  505  501  0.36893306949E+02  0.19118449730E+00  0.36723090869E+03  0.36907952117E+03  0.00000000000E+00 0. -1.
         21    1    1    2  506  504 -0.27822905909E+02 -0.69824991750E+02 -0.91069083093E+02  0.11808141878E+03  0.00000000000E+00 0. -1.
<scales pt_clust_3="79.52916" pt_clust_4="39.38099" pt_clust_5="36.89380" pt_clust_6="14000.00000"></scales>
<clustering>
<clus scale="   36.894">  1  5  2 -1</clus>
<clus scale="   39.381">  1  4  2 -1</clus>
<clus scale="   79.529">  1  3  2 -1</clus>
<clus scale="   36.894">  1  3  2 -1</clus>
</clustering>
</event>
<event>
 6    0  0.5563122E+002  0.2549499E+03  0.7546771E-02  0.1110216E+00
         21   -1    0    0  503  501  0.00000000000E+00  0.00000000000E+00  0.47025558809E+03  0.47025558809E+03  0.00000000000E+00 0. -1.
         21   -1    0    0  505  502 -0.00000000000E+00 -0.00000000000E+00 -0.26565576290E+03  0.26565576290E+03  0.00000000000E+00 0.  1.
         21    1    1    2  503  502  0.22531286569E+03 -0.16012743517E+03  0.87233390561E+01  0.27655520170E+03  0.00000000000E+00 0.  1.
         21    1    1    2  504  501 -0.48723258327E+02 -0.58660792419E+02  0.91306012404E+02  0.11896147431E+03  0.00000000000E+00 0.  1.
         21    1    1    2  505  506 -0.62922278410E+02 -0.12700515808E+02  0.66287297998E+01  0.64532598590E+02  0.00000000000E+00 0. -1.
         21    1    1    2  506  504 -0.11366732896E+03  0.23148874340E+03  0.97941743931E+02  0.27586207640E+03  0.00000000000E+00 0. -1.
<scales pt_clust_3="254.94992" pt_clust_4="79.21076" pt_clust_5="64.19125" pt_clust_6="14000.00000"></scales>
<clustering>
<clus scale="   64.191">  2  5  1 -1</clus>
<clus scale="   79.211">  1  4  2 -1</clus>
<clus scale="  254.950">  2  3  1 -1</clus>
<clus scale="   79.211">  1  3  2 -1</clus>
</clustering>
</event>
<event>
 6    0  0.5563122E+002  0.8333918E+02  0.7546771E-02  0.1319834E+00
         21   -1    0    0  505  501  0.00000000000E+00  0.00000000000E+00  0.22994508854E+04  0.22994508854E+04  0.00000000000E+00 0. -1.
         21   -1    0    0  506  502 -0.00000000000E+00 -0.00000000000E+00 -0.10735090248E+02  0.10735090248E+02  0.00000000000E+00 0.  1.
         21    1    1    2  503  502 -0.10546493940E+02  0.40464937021E+02  0.15729165552E+03  0.16275535186E+03  0.00000000000E+00 0. -1.
         21    1    1    2  504  501 -0.30952709711E+02 -0.31462132589E+02  0.45366442803E+03  0.45580626288E+03  0.00000000000E+00 0.  1.
         21    1    1    2  505  503  0.33169706074E+02  0.92313645035E+02  0.11491031245E+04  0.11532822852E+04  0.00000000000E+00 0. -1.
         21    1    1    2  506  504  0.83294975774E+01 -0.10131644947E+03  0.52865658710E+03  0.53834207578E+03  0.00000000000E+00 0.  1.
<scales pt_clust_3="41.81674" pt_clust_4="41.54392" pt_clust_5="83.33918" pt_clust_6="14000.00000"></scales>
<clustering>
<clus scale="   41.817">  2  3  1 -1</clus>
<clus scale="   41.544">  1  4  2 -1</clus>
<clus scale="   83.339">  1  5  2 -1</clus>
<clus scale="   41.544">  1  3  2 -1</clus>
</clustering>
</event>
<event>
 6    0  0.5563122E+002  0.9971469E+02  0.7546771E-02  0.1280897E+00
         21   -1    0    0  506  501  0.00000000000E+00  0.00000000000E+00  0.39407275617E+02  0.39407275617E+02  0.00000000000E+00 0.  1.
         21   -1    0    0  505  502 -0.00000000000E+00 -0.00000000000E+00 -0.17332274103E+04  0.17332274103E+04  0.00000000000E+00 0. -1.
         21    1    1    2  503  504  0.48283707564E+00  0.61959479104E+02 -0.31591553817E+03  0.32193452353E+03  0.00000000000E+00 0. -1.
         21    1    1    2  504  501 -0.27640347524E+02 -0.80219385712E+02 -0.21909423730E+02  0.87630825076E+02  0.00000000000E+00 0.  1.
         21    1    1    2  505  503 -0.43515441782E+02  0.38889056667E+02 -0.39887883630E+03  0.40312563606E+03  0.00000000000E+00 0. -1.
         21    1    1    2  506  502  0.70672952231E+02 -0.20629150058E+02 -0.95711633652E+03  0.95994370129E+03  0.00000000000E+00 0. -1.
<scales pt_clust_3="50.97713" pt_clust_4="84.75856" pt_clust_5="50.97713" pt_clust_6="73.62220"></scales>
<clustering>
<clus scale="   50.977">  3  5 -1 -1</clus>
<clus scale="   73.622">  2  6  1 -1</clus>
<clus scale="   84.759">  1  4  2 -1</clus>
<clus scale="   84.759">  1  3  2 -1</clus>
</clustering>
</event>
<event>
 6    0  0.5563122E+002  0.6345311E+02  0.7546771E-02  0.1383887E+00
         21   -1    0    0  502  501  0.00000000000E+00  0.00000000000E+00  0.16796018748E+04  0.16796018748E+04  0.00000000000E+00 0. -1.
         21   -1    0    0  503  502 -0.00000000000E+00 -0.00000000000E+00 -0.61248472737E+03  0.61248472737E+03  0.00000000000E+00 0.  1.
         21    1    1    2  503  504  0.58456330449E+02 -0.24567248540E+02 -0.58366043222E+03  0.58709470480E+03  0.00000000000E+00 0.  1.
         21    1    1    2  504  505 -0.76888990322E+02 -0.14675663131E+02  0.60724268025E+02  0.99069312344E+02  0.00000000000E+00 0.  1.
         21    1    1    2  505  506  0.71266833992E+02  0.23913669988E+02  0.18358960577E+03  0.19838338788E+03  0.00000000000E+00 0. -1.
         21    1    1    2  506  501 -0.52834174118E+02  0.15329241684E+02  0.14064637059E+04  0.14075391972E+04  0.00000000000E+00 0. -1.
<scales pt_clust_3="63.45311" pt_clust_4="14000.00000" pt_clust_5="48.72345" pt_clust_6="55.01305"></scales>
<clustering>
<clus scale="   55.013">  1  6  2 -1</clus>
<clus scale="   48.723">  1  5  2 -1</clus>
<clus scale="   63.453">  2  3  1 -1</clus>
<clus scale="   55.013">  1  3  2 -1</clus>
</clustering>
</event>
<event>
 6    0  0.5563122E+002  0.1147148E+03  0.7546771E-02  0.1252080E+00
         21   -1    0    0  503  501  0.00000000000E+00  0.00000000000E+00  0.14402207407E+03  0.14402207407E+03  0.00000000000E+00 0. -1.
         21   -1    0    0  505  502 -0.00000000000E+00 -0.00000000000E+00 -0.34199379859E+03  0.34199379859E+03  0.00000000000E+00 0. -1.
         21    1    1    2  503  506  0.12506750960E+03  0.27735988625E+01  0.85806835396E+02  0.15169834478E+03  0.00000000000E+00 0. -1.
         21    1    1    2  504  502 -0.19954831475E+02  0.31789252777E+02 -0.34129184093E+02  0.50730199075E+02  0.00000000000E+00 0. -1.
         21    1    1    2  505  501 -0.49102529672E+02 -0.23357810605E+02 -0.20203601197E+03  0.20922522761E+03  0.00000000000E+00 0. -1.
         21    1    1    2  506  504 -0.56010148457E+02 -0.11205041034E+02 -0.47613363853E+02  0.74362101182E+02  0.00000000000E+00 0. -1.
<scales pt_clust_3="14000.00000" pt_clust_4="37.53334" pt_clust_5="114.71483" pt_clust_6="60.25889"></scales>
<clustering>
<clus scale="   37.533">  2  4  1 -1</clus>
<clus scale="   60.259">  2  6  1 -1</clus>
<clus scale="  114.715">  2  5  1 -1</clus>
<clus scale="  114.715">  1  3  2 -1</clus>
</clustering>
</event>
<event>
 6    0  0.5563122E+002  0.1545918E+03  0.7546771E-02  0.1194942E+00
         21   -1    0    0  502  501  0.00000000000E+00  0.00000000000E+00  0.10924261300E+03  0.10924261300E+03  0.00000000000E+00 0.  1.
         21   -1    0    0  505  502 -0.00000000000E+00 -0.00000000000E+00 -0.65018413590E+03  0.65018413590E+03  0.00000000000E+00 0.  1.
         21    1    1    2  503  501  0.15160479016E+03  0.16594092308E+02 -0.21087928731E+02  0.15396128421E+03  0.00000000000E+00 0.  1.
         21    1    1    2  504  506 -0.62701946058E+02  0.51831895432E+02 -0.41943913931E+02  0.91527981183E+02  0.00000000000E+00 0. -1.
         21    1    1    2  505  504 -0.31205235211E+02 -0.49872985033E+02 -0.43670524783E+03  0.44065015015E+03  0.00000000000E+00 0.  1.
         21    1    1    2  506  503 -0.57697608891E+02 -0.18553002707E+02 -0.41204432409E+02  0.73287333362E+02  0.00000000000E+00 0.  1.
<scales pt_clust_3="138.75053" pt_clust_4="64.92303" pt_clust_5="58.83096" pt_clust_6="64.92303"></scales>
<clustering>
<clus scale="   58.831">  2  5  1 -1</clus>
<clus scale="   64.923">  4  6 -1 -1</clus>
<clus scale="  138.751">  1  3  2 -1</clus>
<clus scale="  138.751">  1  3  2 -1</clus>
</clustering>
</event>
<event>
 6    0  0.5563122E+002  0.1060798E+03  0.7546771E-02  0.1268007E+00
         21   -1    0    0  502  501  0.00000000000E+00  0.00000000000E+00  0.16043353878E+04  0.16043353878E+04  0.00000000000E+00 0. -1.
         21   -1    0    0  503  502 -0.00000000000E+00 -0.00000000000E+00 -0.46415940563E+02  0.46415940563E+02  0.00000000000E+00 0. -1.
         21    1    1    2  503  505  0.27455916458E+02 -0.21914708850E+02 -0.71990730248E+01  0.35859565878E+02  0.00000000000E+00 0. -1.
         21    1    1    2  504  506 -0.89114181717E+02 -0.12438367070E+02  0.11306463739E+03  0.14449796741E+03  0.00000000000E+00 0. -1.
         21    1    1    2  505  504 -0.29006517272E+02  0.27210829441E+02  0.43631843669E+02  0.59038504936E+02  0.00000000000E+00 0.  1.
         21    1    1    2  506  501  0.90664782532E+02  0.71422464786E+01  0.14084220392E+04  0.14113552901E+04  0.00000000000E+00 0. -1.
<scales pt_clust_3="35.12950" pt_clust_4="34.56286" pt_clust_5="34.56286" pt_clust_6="92.46811"></scales>
<clustering>
<clus scale="   34.563">  4  5 -1 -1</clus>
<clus scale="   35.130">  2  3  1 -1</clus>
<clus scale="   92.468">  1  6  2 -1</clus>
<clus scale="   92.468">  1  3  2 -1</clus>
</clustering>
</event>
<event>
 6    0  0.5563122E+002  0.8596943E+02  0.7546771E-02  0.1312917E+00
         21   -1    0    0  503  501  0.00000000000E+00  0.00000000000E+00  0.52396518339E+03  0.52396518339E+03  0.00000000000E+00 0.  1.
         21   -1    0    0  506  502 -0.00000000000E+00 -0.00000000000E+00 -0.93643812953E+03  0.93643812953E+03  0.00000000000E+00 0.  1.
         21    1    1    2  503  504 -0.71735587388E+02  0.52724235099E+02  0.49929342170E+03  0.50716837482E+03  0.00000000000E+00 0.  1.
         21    1    1    2  504  502 -0.47995858398E+02  0.20545842345E+01 -0.35442599516E+03  0.35766689781E+03  0.00000000000E+00 0.  1.
         21    1    1    2  505  501  0.42459730491E+02 -0.30974263550E+02 -0.26975844310E+02  0.59075628580E+02  0.00000000000E+00 0. -1.
         21    1    1    2  506  505  0.77271715296E+02 -0.23804555784E+02 -0.53036452838E+03  0.53649241171E+03  0.00000000000E+00 0.  1.
<scales pt_clust_3="85.96943" pt_clust_4="48.03981" pt_clust_5="14000.00000" pt_clust_6="39.74763"></scales>
<clustering>
<clus scale="   48.040">  2  4  1 -1</clus>
<clus scale="   39.748">  2  6  1 -1</clus>
<clus scale="   85.969">  1  3  2 -1</clus>
<clus scale="   85.969">  1  3  2 -1</clus>
</clustering>
</event>
<event>
 6    0  0.5563122E+002  0.1738459E+03  0.7546771E-02  0.1173895E+00
         21   -1    0    0  504  501  0.00000000000E+00  0.00000000000E+00  0.25897284898E+03  0.25897284898E+03  0.00000000000E+00 0. -1.
         21   -1    0    0  506  502 -0.00000000000E+00 -0.00000000000E+00 -0.26140437923E+03  0.26140437923E+03  0.00000000000E+00 0. -1.
         21    1    1    2  503  505 -0.11161137198E+03 -0.15253889685E+03 -0.43323779358E+01  0.18906079156E+03  0.00000000000E+00 0. -1.
         21    1    1    2  504  503  0.32923457463E+02  0.22487731890E+02  0.82119556216E+02  0.91286766017E+02  0.00000000000E+00 0. -1.
         21    1    1    2  505  502 -0.48268111636E+02  0.17168827359E+02 -0.41153351394E+02  0.65712841704E+02  0.00000000000E+00 0. -1.
         21    1    1    2  506  501  0.12695602615E+03  0.11288233760E+03 -0.39065357144E+02  0.17431682893E+03  0.00000000000E+00 0. -1.
<scales pt_clust_3="173.84593" pt_clust_4="39.87044" pt_clust_5="49.60990" pt_clust_6="14000.00000"></scales>
<clustering>
<clus scale="   39.870">  1  4  2 -1</clus>
<clus scale="   49.610">  2  5  1 -1</clus>
<clus scale="  173.846">  1  3  2 -1</clus>
<clus scale="   39.870">  1  3  2 -1</clus>
</clustering>
</event>
<event>
 6    0  0.5563122E+002  0.9033934E+02  0.7546771E-02  0.1302032E+00
         21   -1    0    0  503  501  0.00000000000E+00  0.00000000000E+00  0.13141591111E+04  0.13141591111E+04  0.00000000000E+00 0.  1.
         21   -1    0    0  505  502 -0.00000000000E+00 -0.00000000000E+00 -0.59485955124E+03  0.59485955124E+03  0.00000000000E+00 0. -1.
         21    1    1    2  503  502  0.50529245448E+02  0.56217004072E+02 -0.28499059217E+03  0.29484435524E+03  0.00000000000E+00 0. -1.
         21    1    1    2  504  501  0.38870052842E+01  0.35937631571E+02  0.12495260184E+04  0.12500487562E+04  0.00000000000E+00 0.  1.
         21    1    1    2  505  506 -0.76564663264E+02 -0.12278824436E+03 -0.27845013501E+03  0.31380500044E+03  0.00000000000E+00 0. -1.
         21    1    1    2  506  504  0.22148412531E+02  0.30633608715E+02  0.33214268659E+02  0.50320550505E+02  0.00000000000E+00 0. -1.
<scales pt_clust_3="14000.00000" pt_clust_4="36.14723" pt_clust_5="90.33934" pt_clust_6="59.32463"></scales>
<clustering>
<clus scale="   36.147">  1  4  2 -1</clus>
<clus scale="   59.325">  1  6  2 -1</clus>
<clus scale="   90.339">  1  5  2 -1</clus>
<clus scale="   36.147">  1  3  2 -1</clus>
</clustering>
</event>
<event>
 6    0  0.5563122E+002  0.1476145E+03  0.7546771E-02  0.1203435E+00
         21   -1    0    0  506  501  0.00000000000E+00  0.00000000000E+00  0.22315380225E+02  0.22315380225E+02  0.00000000000E+00 0.  1.
         21   -1    0    0  504  502 -0.00000000000E+00 -0.00000000000E+00 -0.17700268131E+04  0.17700268131E+04  0.00000000000E+00 0.  1.
         21    1    1    2  503  501  0.67498230449E+02 -0.12063465635E+01 -0.19841728647E+03  0.20958741841E+03  0.00000000000E+00 0.  1.
         21    1    1    2  504  505 -0.38813041406E+01  0.46917411492E+02 -0.20916145094E+03  0.21439407777E+03  0.00000000000E+00 0.  1.
         21    1    1    2  505  503  0.38293037771E+02  0.77334862449E+02 -0.81248289142E+03  0.81705292763E+03  0.00000000000E+00 0.  1.
         21    1    1    2  506  502 -0.10190996408E+03 -0.12304592738E+03 -0.52764980402E+03  0.55130776949E+03  0.00000000000E+00 0.  1.
<scales pt_clust_3="67.50901" pt_clust_4="43.71492" pt_clust_5="43.71492" pt_clust_6="135.22966"></scales>
<clustering>
<clus scale="   43.715">  4  5 -1 -1</clus>
<clus scale="   67.509">  1  3  2 -1</clus>
<clus scale="  135.230">  1  6  2 -1</clus>
<clus scale="   67.509">  1  3  2 -1</clus>
</clustering>
</event>
<event>
 6    0  0.5563122E+002  0.8224868E+02  0.7546771E-02  0.1322788E+00
         21   -1    0    0  504  501  0.00000000000E+00  0.00000000000E+00  0.63348433099E+02  0.63348433099E+02  0.00000000000E+00 0.  1.
         21   -1    0    0  503  502 -0.00000000000E+00 -0.00000000000E+00 -0.83030759510E+03  0.83030759510E+03  0.00000000000E+00 0. -1.
         21    1    1    2  503  501  0.65078590501E+02 -0.11840463427E+02 -0.65482881295E+02  0.93077533586E+02  0.00000000000E+00 0. -1.
         21    1    1    2  504  506  0.24518757856E+02 -0.42775988158E+02  0.22555776907E+02  0.54219163785E+02  0.00000000000E+00 0.  1.
         21    1    1    2  505  502 -0.85481138802E+02  0.42806700853E+01 -0.65637264168E+03  0.66192929681E+03  0.00000000000E+00 0. -1.
         21    1    1    2  506  505 -0.41162095542E+01  0.50335781499E+02 -0.67659415932E+02  0.84430034019E+02  0.00000000000E+00 0. -1.
<scales pt_clust_3="82.24868" pt_clust_4="49.30471" pt_clust_5="14000.00000" pt_clust_6="36.20102"></scales>
<clustering>
<clus scale="   49.305">  1  4  2 -1</clus>
<clus scale="   36.201">  1  6  2 -1</clus>
<clus scale="   82.249">  1  3  2 -1</clus>
<clus scale="   49.305">  1  3  2 -1</clus>
</clustering>
</event>
<event>
 6    0  0.5563122E+002  0.9051349E+02  0.7546771E-02  0.1301613E+00
         21   -1    0    0  506  501  0.00000000000E+00  0.00000000000E+00  0.18991602873E+04  0.18991602873E+04  0.00000000000E+00 0.  1.
         21   -1    0    0  505  502 -0.00000000000E+00 -0.00000000000E+00 -0.59556100117E+02  0.59556100117E+02  0.00000000000E+00 0.  1.
         21    1    1    2  503  502 -0.52988403345E+02  0.73636630780E+02 -0.50875836320E+01  0.90862576393E+02  0.00000000000E+00 0.  1.
         21    1    1    2  504  501  0.23879054823E+02 -0.70725165181E+02  0.93267271897E+03  0.93565520303E+03  0.00000000000E+00 0.  1.
         21    1    1    2  505  504  0.67297743791E+02  0.21865660036E+02  0.12326077539E+03  0.14212780220E+03  0.00000000000E+00 0. -1.
         21    1    1    2  506  503 -0.38188395269E+02 -0.24777125635E+02  0.78875827643E+03  0.79007080577E+03  0.00000000000E+00 0.  1.
<scales pt_clust_3="90.51349" pt_clust_4="14000.00000" pt_clust_5="65.51766" pt_clust_6="45.52208"></scales>
<clustering>
<clus scale="   45.522">  1  6  2 -1</clus>
<clus scale="   65.518">  2  5  1 -1</clus>
<clus scale="   90.513">  2  3  1 -1</clus>
<clus scale="   45.522">  1  3  2 -1</clus>
</clustering>
</event>
<event>
 6    0  0.5563122E+002  0.5973765E+02  0.7546771E-02  0.1398936E+00
         21   -1    0    0  503  501  0.00000000000E+00  0.00000000000E+00  0.12905401719E+03  0.12905401719E+03  0.00000000000E+00 0.  1.
         21   -1    0    0  504  502 -0.00000000000E+00 -0.00000000000E+00 -0.42175647367E+03  0.42175647367E+03  0.00000000000E+00 0. -1.
         21    1    1    2  503  505 -0.76622929035E+02  0.63360697518E+02 -0.82218128345E+02  0.12901733167E+03  0.00000000000E+00 0.  1.
         21    1    1    2  504  506 -0.28480102139E+02 -0.49132645315E+02 -0.70649721338E+02  0.90645000847E+02  0.00000000000E+00 0.  1.
         21    1    1    2  505  502  0.46866101029E+02 -0.21296110079E+02 -0.22328431725E+03  0.22914153281E+03  0.00000000000E+00 0. -1.
         21    1    1    2  506  501  0.58236930145E+02  0.70680578756E+01  0.83449710452E+02  0.10200662552E+03  0.00000000000E+00 0.  1.
<scales pt_clust_3="14000.00000" pt_clust_4="58.63427" pt_clust_5="51.47772" pt_clust_6="59.73765"></scales>
<clustering>
<clus scale="   51.478">  2  5  1 -1</clus>
<clus scale="   58.634">  2  4  1 -1</clus>
<clus scale="   59.738">  1  6  2 -1</clus>
<clus scale="   59.738">  1  3  2 -1</clus>
</clustering>
</event>
<event>
 6    0  0.5563122E+002  0.2974429E+03  0.7546771E-02  0.1086526E+00
         21   -1    0    0  503  501  0.00000000000E+00  0.00000000000E+00  0.81501112515E+03  0.81501112515E+03  0.00000000000E+00 0.  1.
         21   -1    0    0  504  502 -0.00000000000E+00 -0.00000000000E+00 -0.56794562876E+03  0.56794562876E+03  0.00000000000E+00 0. -1.
         21    1    1    2  503  506  0.93455427117E+02 -0.13807381590E+03 -0.49273873353E+02  0.17385686668E+03  0.00000000000E+00 0. -1.
         21    1    1    2  504  501 -0.17258649249E+03  0.23906989771E+03  0.70010100205E+03  0.75965908568E+03  0.00000000000E+00 0.  1.
         21    1    1    2  505  502  0.90633938316E+02 -0.35718640754E+02 -0.35231305701E+03  0.36553361297E+03  0.00000000000E+00 0. -1.
         21    1    1    2  506  505 -0.11502872946E+02 -0.65277441057E+02 -0.51448575293E+02  0.83907188588E+02  0.00000000000E+00 0. -1.
<scales pt_clust_3="57.19785" pt_clust_4="283.27189" pt_clust_5="97.41834" pt_clust_6="57.19785"></scales>
<clustering>
<clus scale="   57.198">  3  6 -1 -1</clus>
<clus scale="   97.418">  2  5  1 -1</clus>
<clus scale="  283.272">  1  4  2 -1</clus>
<clus scale="  283.272">  1  3  2 -1</clus>
</clustering>
</event>
<event>
 6    0  0.5563122E+002  0.7570247E+02  0.7546771E-02  0.1341709E+00
         21   -1    0    0  504  501  0.00000000000E+00  0.00000000000E+00  0.68426511056E+03  0.68426511056E+03  0.00000000000E+00 0.  1.
         21   -1    0    0  506  502 -0.00000000000E+00 -0.00000000000E+00 -0.43863018857E+02  0.43863018857E+02  0.00000000000E+00 0.  1.
         21    1    1    2  503  501  0.68161085716E+02 -0.19576674841E+02  0.97289188559E+02  0.12039254966E+03  0.00000000000E+00 0.  1.
         21    1    1    2  504  505 -0.56906557266E+02  0.17151070030E+02  0.37452354862E+03  0.37921023712E+03  0.00000000000E+00 0.  1.
         21    1    1    2  505  502 -0.38019047852E+02 -0.67458362139E+02  0.10407419814E+03  0.12972092098E+03  0.00000000000E+00 0. -1.
         21    1    1    2  506  503  0.26764519403E+02  0.69883966950E+02  0.64515156386E+02  0.98804421657E+02  0.00000000000E+00 0.  1.
<scales pt_clust_3="49.87504" pt_clust_4="59.43497" pt_clust_5="75.70247" pt_clust_6="14000.00000"></scales>
<clustering>
<clus scale="   59.435">  1  4  2 -1</clus>
<clus scale="   49.875">  1  3  2 -1</clus>
<clus scale="   75.702">  1  5  2 -1</clus>
<clus scale="   59.435">  1  3  2 -1</clus>
</clustering>
</event>
<event>
 6    0  0.5563122E+002  0.9362831E+02  0.7546771E-02  0.1294296E+00
         21   -1    0    0  503  501  0.00000000000E+00  0.00000000000E+00  0.66158498881E+02  0.66158498881E+02  0.00000000000E+00 0. -1.
         21   -1    0    0  504  502 -0.00000000000E+00 -0.00000000000E+00 -0.96082060192E+03  0.96082060192E+03  0.00000000000E+00 0. -1.
         21    1    1    2  503  506  0.72000592341E+02  0.94766266448E+01 -0.15819556321E+02  0.74324626553E+02  0.00000000000E+00 0. -1.
         21    1    1    2  504  501 -0.10247899089E+03  0.25701750065E+02 -0.21876332450E+03  0.24294014834E+03  0.00000000000E+00 0. -1.
         21    1    1    2  505  502 -0.27252650743E+01  0.38291976900E+02 -0.61720656645E+03  0.61839926280E+03  0.00000000000E+00 0. -1.
         21    1    1    2  506  505  0.33203663618E+02 -0.73470353611E+02 -0.42872655768E+02  0.91315063105E+02  0.00000000000E+00 0. -1.
<scales pt_clust_3="73.09674" pt_clust_4="14000.00000" pt_clust_5="38.38883" pt_clust_6="93.62831"></scales>
<clustering>
<clus scale="   38.389">  2  5  1 -1</clus>
<clus scale="   73.097">  1  3  2 -1</clus>
<clus scale="   93.628">  1  6  2 -1</clus>
<clus scale="   73.097">  1  3  2 -1</clus>
</clustering>
</event>
<event>
 6    0  0.5563122E+002  0.1361509E+03  0.7546771E-02  0.1218604E+00
         21   -1    0    0  506  501  0.00000000000E+00  0.00000000000E+00  0.32013051693E+02  0.32013051693E+02  0.00000000000E+00 0. -1.
         21   -1    0    0  504  502 -0.00000000000E+00 -0.00000000000E+00 -0.16971520354E+04  0.16971520354E+04  0.00000000000E+00 0.  1.
         21    1    1    2  503  505  0.84716696413E+01 -0.60087965541E+02 -0.39037876608E+03  0.39506697381E+03  0.00000000000E+00 0. -1.
         21    1    1    2  504  503  0.16846013971E+02 -0.44800206220E+02 -0.97118165586E+03  0.97236035262E+03  0.00000000000E+00 0.  1.
         21    1    1    2  505  501  0.27449936959E+02 -0.27184739769E+02 -0.13876557809E+03  0.14404303099E+03  0.00000000000E+00 0. -1.
         21    1    1    2  506  502 -0.52767620571E+02  0.13207291153E+03 -0.16481298370E+03  0.21769472970E+03  0.00000000000E+00 0. -1.
<scales pt_clust_3="33.27323" pt_clust_4="47.86279" pt_clust_5="33.27323" pt_clust_6="129.60743"></scales>
<clustering>
<clus scale="   33.273">  3  5 -1 -1</clus>
<clus scale="   47.863">  2  4  1 -1</clus>
<clus scale="  129.607">  1  6  2 -1</clus>
<clus scale="  129.607">  1  3  2 -1</clus>
</clustering>
</event>
<event>
 6    0  0.5563122E+002  0.8408420E+02  0.7546771E-02  0.1317845E+00
         21   -1    0    0  506  501  0.00000000000E+00  0.00000000000E+00  0.25950731563E+03  0.25950731563E+03  0.00000000000E+00 0.  1.
         21   -1    0    0  503  502 -0.00000000000E+00 -0.00000000000E+00 -0.34592750209E+03  0.34592750209E+03  0.00000000000E+00 0. -1.
         21    1    1    2  503  505 -0.12526024621E+02  0.32008478668E+02 -0.59741190215E+02  0.68923535949E+02  0.00000000000E+00 0. -1.
         21    1    1    2  504  502  0.22569039939E+02  0.26226440780E+02 -0.14994556752E+03  0.15388586998E+03  0.00000000000E+00 0. -1.
         21    1    1    2  505  501  0.83482806372E+02 -0.20848571216E+01  0.22094378587E+03  0.23619881901E+03  0.00000000000E+00 0.  1.
         21    1    1    2  506  504 -0.93525821691E+02 -0.56150062326E+02 -0.97677214585E+02  0.14642659277E+03  0.00000000000E+00 0. -1.
<scales pt_clust_3="34.37214" pt_clust_4="46.27927" pt_clust_5="14000.00000" pt_clust_6="84.08420"></scales>
<clustering>
<clus scale="   34.372">  2  3  1 -1</clus>
<clus scale="   46.279">  2  4  1 -1</clus>
<clus scale="   84.084">  2  6  1 -1</clus>
<clus scale="   84.084">  1  3  2 -1</clus>
</clustering>
</event>
<event>
 6    0  0.5563122E+002  0.1124854E+03  0.7546771E-02  0.1256035E+00
         21   -1    0    0  504  501  0.00000000000E+00  0.00000000000E+00  0.15746940407E+03  0.15746940407E+03  0.00000000000E+00 0. -1.
         21   -1    0    0  503  502 -0.00000000000E+00 -0.00000000000E+00 -0.47455439694E+03  0.47455439694E+03  0.00000000000E+00 0. -1.
         21    1    1    2  503  506 -0.98116996033E+02 -0.72681736818E+01 -0.19229668045E+03  0.21600413091E+03  0.00000000000E+00 0. -1.
         21    1    1    2  504  502  0.13421599444E+02 -0.34475045701E+02 -0.34168667977E+02  0.50360361188E+02  0.00000000000E+00 0. -1.
         21    1    1    2  505  501 -0.50209230349E+02  0.17472377301E+02  0.11029646786E+03  0.12244003269E+03  0.00000000000E+00 0. -1.
         21    1    1    2  506  505  0.13490462694E+03  0.24270842082E+02 -0.20091611230E+03  0.24321927622E+03  0.00000000000E+00 0. -1.
<scales pt_clust_3="14000.00000" pt_clust_4="36.99551" pt_clust_5="52.82679" pt_clust_6="112.48543"></scales>
<clustering>
<clus scale="   36.996">  2  4  1 -1</clus>
<clus scale="   52.827">  1  5  2 -1</clus>
<clus scale="  112.485">  1  6  2 -1</clus>
<clus scale="   52.827">  1  3  2 -1</clus>
</clustering>
</event>
<event>
 6    0  0.5563122E+002  0.1034040E+03  0.7546771E-02  0.1273296E+00
         21   -1    0    0  505  501  0.00000000000E+00  0.00000000000E+00  0.47594203151E+03  0.47594203151E+03  0.00000000000E+00 0.  1.
         21   -1    0    0  504  502 -0.00000000000E+00 -0.00000000000E+00 -0.30989831641E+03  0.30989831641E+03  0.00000000000E+00 0.  1.
         21    1    1    2  503  502  0.85291710176E+02  0.21334277504E+01 -0.27548559070E+03  0.28839476074E+03  0.00000000000E+00 0.  1.
         21    1    1    2  504  501 -0.37690454385E+02  0.87041954161E+02  0.99990632688E+02  0.13782234493E+03  0.00000000000E+00 0.  1.
         21    1    1    2  505  506 -0.15189173250E+02 -0.75979324091E+02  0.22718076537E+03  0.24003055811E+03  0.00000000000E+00 0.  1.
         21    1    1    2  506  503 -0.32412082541E+02 -0.13196057821E+02  0.11435790774E+03  0.11959268414E+03  0.00000000000E+00 0.  1.
<scales pt_clust_3="85.31839" pt_clust_4="90.72102" pt_clust_5="33.34683" pt_clust_6="33.34683"></scales>
<clustering>
<clus scale="   33.347">  5  6 -1 -1</clus>
<clus scale="   85.318">  2  3  1 -1</clus>
<clus scale="   90.721">  2  4  1 -1</clus>
<clus scale="  103.404">  1  3  2 -1</clus>
</clustering>
</event>
<event>
 6    0  0.5563122E+002  0.2995785E+03  0.7546771E-02  0.1085452E+00
         21   -1    0    0  505  501  0.00000000000E+00  0.00000000000E+00  0.34877274315E+03  0.34877274315E+03  0.00000000000E+00 0.  1.
         21   -1    0    0  506  502 -0.00000000000E+00 -0.00000000000E+00 -0.68480340260E+03  0.68480340260E+03  0.00000000000E+00 0.  1.
         21    1    1    2  503  502 -0.64631054026E+01  0.58407201048E+02 -0.37997729131E+02  0.69978570183E+02  0.00000000000E+00 0.  1.
         21    1    1    2  504  501 -0.15486818875E+03 -0.21605292354E+03  0.14025911644E+03  0.30055888176E+03  0.00000000000E+00 0.  1.
         21    1    1    2  505  503  0.16917302038E+03  0.30408902138E+03 -0.27473034730E+03  0.44335810298E+03  0.00000000000E+00 0.  1.
         21    1    1    2  506  504 -0.78417262295E+01 -0.14644329889E+03 -0.16356169946E+03  0.21968059083E+03  0.00000000000E+00 0.  1.
<scales pt_clust_3="36.38070" pt_clust_4="286.19856" pt_clust_5="36.38070" pt_clust_6="146.65310"></scales>
<clustering>
<clus scale="   36.381">  3  5 -1 -1</clus>
<clus scale="  146.653">  2  6  1 -1</clus>
<clus scale="  286.199">  1  4  2 -1</clus>
<clus scale="  286.199">  1  3  2 -1</clus>
</clustering>
</event>
<event>
 6    0  0.5563122E+002  0.2302852E+03  0.7546771E-02  0.1126439E+00
         21   -1    0    0  506  501  0.00000000000E+00  0.00000000000E+00  0.26939651874E+03  0.26939651874E+03  0.00000000000E+00 0. -1.
         21   -1    0    0  505  502 -0.00000000000E+00 -0.00000000000E+00 -0.15926162229E+04  0.15926162229E+04  0.00000000000E+00 0. -1.
         21    1    1    2  503  501 -0.25681946134E+03 -0.38043353682E+02  0.85057355220E+02  0.27320008448E+03  0.00000000000E+00 0. -1.
         21    1    1    2  504  502  0.18926401574E+03  0.67646070347E+01 -0.14123023695E+04  0.14249437218E+04  0.00000000000E+00 0. -1.
         21    1    1    2  505  503  0.41361588813E+02 -0.22247380870E+02 -0.60136185206E+02  0.76302606482E+02  0.00000000000E+00 0. -1.
         21    1    1    2  506  504  0.26193856785E+02  0.53526127518E+02  0.64161495329E+02  0.87566328821E+02  0.00000000000E+00 0. -1.
<scales pt_clust_3="14000.00000" pt_clust_4="230.28518" pt_clust_5="46.96517" pt_clust_6="59.57890"></scales>
<clustering>
<clus scale="   46.965">  2  5  1 -1</clus>
<clus scale="   59.579">  1  6  2 -1</clus>
<clus scale="  230.285">  2  4  1 -1</clus>
<clus scale="   59.579">  1  3  2 -1</clus>
</clustering>
</event>
<event>
 6    0  0.5563122E+002  0.1845297E+03  0.7546771E-02  0.1163490E+00
         21   -1    0    0  504  501  0.00000000000E+00  0.00000000000E+00  0.13537692165E+03  0.13537692165E+03  0.00000000000E+00 0. -1.
         21   -1    0    0  506  502 -0.00000000000E+00 -0.00000000000E+00 -0.43922151208E+03  0.43922151208E+03  0.00000000000E+00 0. -1.
         21    1    1    2  503  502  0.28661738709E+02  0.37295305314E+02 -0.70487951047E+02  0.84740700416E+02  0.00000000000E+00 0. -1.
         21    1    1    2  504  503 -0.18791756052E+03  0.72118135385E+02 -0.10132405441E+03  0.22534551028E+03  0.00000000000E+00 0. -1.
         21    1    1    2  505  501 -0.11744573596E+01 -0.54773164937E+02 -0.10053610389E+02  0.55700574765E+02  0.00000000000E+00 0. -1.
         21    1    1    2  506  505  0.16043027917E+03 -0.54640275762E+02 -0.12197897459E+03  0.20881164826E+03  0.00000000000E+00 0. -1.
<scales pt_clust_3="47.03653" pt_clust_4="184.52975" pt_clust_5="51.40224" pt_clust_6="14000.00000"></scales>
<clustering>
<clus scale="   47.037">  2  3  1 -1</clus>
<clus scale="   51.402">  1  5  2 -1</clus>
<clus scale="  184.530">  1  4  2 -1</clus>
<clus scale="   51.402">  1  3  2 -1</clus>
</clustering>
</event>
<event>
 6    0  0.5563122E+002  0.1053808E+03  0.7546771E-02  0.1269371E+00
         21   -1    0    0  505  501  0.00000000000E+00  0.00000000000E+00  0.73644789723E+02  0.73644789723E+02  0.00000000000E+00 0.  1.
         21   -1    0    0  503  502 -0.00000000000E+00 -0.00000000000E+00 -0.38646725602E+04  0.38646725602E+04  0.00000000000E+00 0.  1.
         21    1    1    2  503  504 -0.33035669151E+02  0.68223581418E+01 -0.64943755770E+03  0.65031303336E+03  0.00000000000E+00 0.  1.
         21    1    1    2  504  501  0.33066701308E+02 -0.46731796352E+02 -0.48796358593E+03  0.49131021638E+03  0.00000000000E+00 0. -1.
         21    1    1    2  505  506 -0.90771516100E+02  0.54110411629E+02  0.31286888427E+02  0.11021013642E+03  0.00000000000E+00 0.  1.
         21    1    1    2  506  502  0.90740483942E+02 -0.14200973419E+02 -0.26849135153E+04  0.26864839638E+04  0.00000000000E+00 0.  1.
<scales pt_clust_3="33.73277" pt_clust_4="53.60776" pt_clust_5="14000.00000" pt_clust_6="105.38081"></scales>
<clustering>
<clus scale="   33.733">  2  3  1 -1</clus>
<clus scale="   53.608">  2  4  1 -1</clus>
<clus scale="  105.381">  2  6  1 -1</clus>
<clus scale="  105.381">  1  3  2 -1</clus>
</clustering>
</event>
<event>
 6    0  0.5563122E+002  0.6611375E+02  0.7546771E-02  0.1373830E+00
         21   -1    0    0  506  501  0.00000000000E+00  0.00000000000E+00  0.60088490530E+03  0.60088490530E+03  0.00000000000E+00 0.  1.
         21   -1    0    0  503  502 -0.00000000000E+00 -0.00000000000E+00 -0.82715808144E+02  0.82715808144E+02  0.00000000000E+00 0.  1.
         21    1    1    2  503  505  0.52157408732E+02 -0.31142078773E+02  0.26760486926E+01  0.60806131208E+02  0.00000000000E+00 0.  1.
         21    1    1    2  504  502 -0.87595245157E+02  0.38549148224E+02  0.16849572811E+02  0.97174440604E+02  0.00000000000E+00 0.  1.
         21    1    1    2  505  501  0.20538639637E+02 -0.71542430410E+02  0.11937621594E+03  0.14067990617E+03  0.00000000000E+00 0.  1.
         21    1    1    2  506  504  0.14899196789E+02  0.64135360960E+02  0.37926725971E+03  0.38494023546E+03  0.00000000000E+00 0.  1.
<scales pt_clust_3="60.74722" pt_clust_4="50.88540" pt_clust_5="14000.00000" pt_clust_6="66.11375"></scales>
<clustering>
<clus scale="   60.747">  2  3  1 -1</clus>
<clus scale="   50.885">  2  4  1 -1</clus>
<clus scale="   66.114">  1  6  2 -1</clus>
<clus scale="   66.114">  1  3  2 -1</clus>
</clustering>
</event>
<event>
 6    0  0.5563122E+002  0.1309034E+03  0.7546771E-02  0.1226121E+00
         21   -1    0    0  506  501  0.00000000000E+00  0.00000000000E+00  0.13718109336E+04  0.13718109336E+04  0.00000000000E+00 0. -1.
         21   -1    0    0  504  502 -0.00000000000E+00 -0.00000000000E+00 -0.24133554251E+03  0.24133554251E+03  0.00000000000E+00 0. -1.
         21    1    1    2  503  501 -0.10597181821E+02  0.35321040416E+02  0.11650977454E+03  0.12220639804E+03  0.00000000000E+00 0. -1.
         21    1    1    2  504  503 -0.83428016177E+02 -0.12430438849E+03  0.11062106277E+03  0.18614197379E+03  0.00000000000E+00 0. -1.
         21    1    1    2  505  502  0.35748798198E+02  0.11788390168E+01 -0.19659469993E+03  0.19982202650E+03  0.00000000000E+00 0. -1.
         21    1    1    2  506  505  0.58276399800E+02  0.87804509055E+02  0.10999392537E+04  0.11049760778E+04  0.00000000000E+00 0. -1.
<scales pt_clust_3="36.34441" pt_clust_4="130.90335" pt_clust_5="35.76823" pt_clust_6="14000.00000"></scales>
<clustering>
<clus scale="   35.768">  2  5  1 -1</clus>
<clus scale="   36.344">  1  3  2 -1</clus>
<clus scale="  130.903">  2  4  1 -1</clus>
<clus scale="   36.344">  1  3  2 -1</clus>
</clustering>
</event>
<event>
 6    0  0.5563122E+002  0.9419800E+02  0.7546771E-02  0.1292993E+00
         21   -1    0    0  505  501  0.00000000000E+00  0.00000000000E+00  0.95422279481E+02  0.95422279481E+02  0.00000000000E+00 0. -1.
         21   -1    0    0  504  502 -0.00000000000E+00 -0.00000000000E+00 -0.24087507190E+03  0.24087507190E+03  0.00000000000E+00 0. -1.
         21    1    1    2  503  506 -0.77011629045E+02 -0.35493335540E+02 -0.59368621459E+01  0.85004789324E+02  0.00000000000E+00 0. -1.
         21    1    1    2  504  501  0.41067836649E+02  0.33870667840E+02 -0.56307130300E+01  0.53530311751E+02  0.00000000000E+00 0. -1.
         21    1    1    2  505  503 -0.20936056565E+02 -0.46390837102E+02 -0.80060120134E+01  0.51522077403E+02  0.00000000000E+00 0. -1.
         21    1    1    2  506  502  0.56879848961E+02  0.48013504802E+02 -0.12587920523E+03  0.14624017290E+03  0.00000000000E+00 0. -1.
<scales pt_clust_3="35.89293" pt_clust_4="53.23335" pt_clust_5="35.89293" pt_clust_6="82.01737"></scales>
<clustering>
<clus scale="   35.893">  3  5 -1 -1</clus>
<clus scale="   53.233">  1  4  2 -1</clus>
<clus scale="   82.017">  2  6  1 -1</clus>
<clus scale="   53.233">  1  3  2 -1</clus>
</clustering>
</event>
<event>
 6    0  0.5563122E+002  0.1008557E+03  0.7546771E-02  0.1278507E+00
         21   -1    0    0  505  501  0.00000000000E+00  0.00000000000E+00  0.51138842820E+02  0.51138842820E+02  0.00000000000E+00 0. -1.
         21   -1    0    0  506  502 -0.00000000000E+00 -0.00000000000E+00 -0.12435844253E+04  0.12435844253E+04  0.00000000000E+00 0.  1.
         21    1    1    2  503  504  0.12994172346E+02  0.41391340847E+02 -0.39880600626E+03  0.40115872450E+03  0.00000000000E+00 0.  1.
         21    1    1    2  504  502 -0.22520031927E+02  0.29412337931E+02 -0.59538489840E+03  0.59653618055E+03  0.00000000000E+00 0.  1.
         21    1    1    2  505  503 -0.19614021122E+02  0.52676431166E+02 -0.15187819665E+03  0.16194598742E+03  0.00000000000E+00 0.  1.
         21    1    1    2  506  501  0.29139880703E+02 -0.12348010994E+03 -0.46376481135E+02  0.13508237561E+03  0.00000000000E+00 0. -1.
<scales pt_clust_3="59.56387" pt_clust_4="37.04372" pt_clust_5="14000.00000" pt_clust_6="100.85566"></scales>
<clustering>
<clus scale="   37.044">  2  4  1 -1</clus>
<clus scale="   59.564">  2  3  1 -1</clus>
<clus scale="  100.856">  1  6  2 -1</clus>
<clus scale="  100.856">  1  3  2 -1</clus>
</clustering>
</event>
<event>
 6    0  0.9673707E+002  0.1078554E+03  0.7546771E-02  0.1264594E+00
         21   -1    0    0  505  501  0.00000000000E+00  0.00000000000E+00  0.52011750773E+03  0.52011750773E+03  0.00000000000E+00 0.  1.
         21   -1    0    0  506  502 -0.00000000000E+00 -0.00000000000E+00 -0.11157320284E+04  0.11157320284E+04  0.00000000000E+00 0.  1.
         21    1    1    2  503  502  0.51340991918E+02  0.75484846064E+02  0.37195447496E+03  0.38299346062E+03  0.00000000000E+00 0.  1.
         21    1    1    2  504  501 -0.47883812930E+02 -0.68918725913E+02  0.25809338274E+02  0.87799614261E+02  0.00000000000E+00 0. -1.
         21    1    1    2  505  503 -0.22586685255E+02  0.61071036139E+02  0.72164072331E+02  0.97198164290E+02  0.00000000000E+00 0.  1.
         21    1    1    2  506  504  0.19129506267E+02 -0.67637156290E+02 -0.10655424062E+04  0.10678582969E+04  0.00000000000E+00 0.  1.
<scales pt_clust_3="14000.00000" pt_clust_4="107.85544" pt_clust_5="65.11398" pt_clust_6="70.11766"></scales>
<clustering>
<clus scale="   65.114">  1  5  2 -1</clus>
<clus scale="   70.118">  2  6  1 -1</clus>
<clus scale="  107.855">  2  4  1 -1</clus>
<clus scale="   65.114">  1  3  2 -1</clus>
</clustering>
</event>
<event>
 6    0  0.5563122E+002  0.1580002E+03  0.7546771E-02  0.1190973E+00
         21   -1    0    0  505  501  0.00000000000E+00  0.00000000000E+00  0.14019569130E+03  0.14019569130E+03  0.00000000000E+00 0.  1.
         21   -1    0    0  503  502 -0.00000000000E+00 -0.00000000000E+00 -0.26190777112E+03  0.26190777112E+03  0.00000000000E+00 0.  1.
         21    1    1    2  503  501 -0.15159918182E+03  0.16041739680E+02 -0.12766124018E+03  0.19883923552E+03  0.00000000000E+00 0.  1.
         21    1    1    2  504  506  0.86359756713E+02 -0.38236694243E+02  0.49951636151E+01  0.94578031412E+02  0.00000000000E+00 0.  1.
         21    1    1    2  505  504  0.61532167923E+02 -0.78207016771E+01  0.28054694614E+02  0.68076699052E+02  0.00000000000E+00 0.  1.
         21    1    1    2  506  502  0.37072571794E+01  0.30015656240E+02 -0.27100697865E+02  0.40609496427E+02  0.00000000000E+00 0.  1.
<scales pt_clust_3="153.60043" pt_clust_4="30.00627" pt_clust_5="30.00627" pt_clust_6="30.24373"></scales>
<clustering>
<clus scale="   30.006">  4  5 -1 -1</clus>
<clus scale="   30.244">  2  6  1 -1</clus>
<clus scale="  153.600">  2  3  1 -1</clus>
<clus scale="  158.000">  1  3  2 -1</clus>
</clustering>
</event>
<event>
 6    0  0.5563122E+002  0.1405384E+03  0.7546771E-02  0.1212606E+00
         21   -1    0    0  506  501  0.00000000000E+00  0.00000000000E+00  0.27556498883E+03  0.27556498883E+03  0.00000000000E+00 0. -1.
         21   -1    0    0  504  502 -0.00000000000E+00 -0.00000000000E+00 -0.29548224639E+03  0.29548224639E+03  0.00000000000E+00 0. -1.
         21    1    1    2  503  501 -0.37156961284E+02  0.16576648854E+02  0.13598746839E+02  0.42899312053E+02  0.00000000000E+00 0. -1.
         21    1    1    2  504  503 -0.27405277260E+02 -0.24021139711E+02 -0.15758628051E+03  0.16174517050E+03  0.00000000000E+00 0. -1.
         21    1    1    2  505  502  0.17060623451E+03  0.24964866452E+02 -0.33517914350E+02  0.17565073980E+03  0.00000000000E+00 0. -1.
         21    1    1    2  506  505 -0.10604399597E+03 -0.17520375595E+02  0.15758819046E+03  0.19075201287E+03  0.00000000000E+00 0. -1.
<scales pt_clust_3="42.48126" pt_clust_4="36.44262" pt_clust_5="140.53845" pt_clust_6="14000.00000"></scales>
<clustering>
<clus scale="   36.443">  2  4  1 -1</clus>
<clus scale="   42.481">  1  3  2 -1</clus>
<clus scale="  140.538">  2  5  1 -1</clus>
<clus scale="   42.481">  1  3  2 -1</clus>
</clustering>
</event>
<event>
 6    0  0.5563122E+002  0.1553318E+03  0.7546771E-02  0.1194070E+00
         21   -1    0    0  504  501  0.00000000000E+00  0.00000000000E+00  0.42543447121E+03  0.42543447121E+03  0.00000000000E+00 0. -1.
         21   -1    0    0  505  502 -0.00000000000E+00 -0.00000000000E+00 -0.66549888190E+03  0.66549888190E+03  0.00000000000E+00 0.  1.
         21    1    1    2  503  501  0.17898942871E+03 -0.22763143272E+02  0.11566946267E+03  0.21432405576E+03  0.00000000000E+00 0. -1.
         21    1    1    2  504  506 -0.28180515460E+02  0.55137441044E+02  0.97916286835E+02  0.11585282942E+03  0.00000000000E+00 0. -1.
         21    1    1    2  505  503 -0.17989737002E+02 -0.32236223991E+02 -0.57778239005E+03  0.57896052976E+03  0.00000000000E+00 0.  1.
         21    1    1    2  506  502 -0.13281917625E+03 -0.13807378145E+00  0.12413222986E+03  0.18179593817E+03  0.00000000000E+00 0. -1.
<scales pt_clust_3="155.33177" pt_clust_4="59.89302" pt_clust_5="36.91619" pt_clust_6="14000.00000"></scales>
<clustering>
<clus scale="   36.916">  2  5  1 -1</clus>
<clus scale="   59.893">  1  4  2 -1</clus>
<clus scale="  155.332">  2  3  1 -1</clus>
<clus scale="   59.893">  1  3  2 -1</clus>
</clustering>
</event>
<event>
 6    0  0.5563122E+002  0.1567960E+03  0.7546771E-02  0.1192362E+00
         21   -1    0    0  506  501  0.00000000000E+00  0.00000000000E+00  0.60648493315E+02  0.60648493315E+02  0.00000000000E+00 0.  1.
         21   -1    0    0  503  502 -0.00000000000E+00 -0.00000000000E+00 -0.15214507718E+04  0.15214507718E+04  0.00000000000E+00 0. -1.
         21    1    1    2  503  504 -0.79732735063E+02 -0.29006210977E+02 -0.11390604287E+03  0.14203258752E+03  0.00000000000E+00 0.  1.
         21    1    1    2  504  505 -0.58704114900E+02  0.18668165499E+01 -0.32141506587E+02  0.66953226628E+02  0.00000000000E+00 0.  1.
         21    1    1    2  505  501 -0.11399858616E+02  0.42019836684E+02  0.58697933579E+01  0.43932652156E+02  0.00000000000E+00 0.  1.
         21    1    1    2  506  502  0.14983670858E+03 -0.14880442257E+02 -0.13206245224E+04  0.13291807988E+04  0.00000000000E+00 0. -1.
<scales pt_clust_3="41.13112" pt_clust_4="41.13112" pt_clust_5="43.53876" pt_clust_6="148.79889"></scales>
<clustering>
<clus scale="   41.131">  3  4 -1 -1</clus>
<clus scale="   43.539">  1  5  2 -1</clus>
<clus scale="  148.799">  2  6  1 -1</clus>
<clus scale="   43.539">  1  3  2 -1</clus>
</clustering>
</event>
<event>
 6    0  0.5563122E+002  0.1583152E+03  0.7546771E-02  0.1190612E+00
         21   -1    0    0  504  501  0.00000000000E+00  0.00000000000E+00  0.70613211039E+03  0.70613211039E+03  0.00000000000E+00 0.  1.
         21   -1    0    0  503  502 -0.00000000000E+00 -0.00000000000E+00 -0.67902482314E+03  0.67902482314E+03  0.00000000000E+00 0.  1.
         21    1    1    2  503  505 -0.14323990070E+03  0.13262178026E+02 -0.50221744147E+03  0.52241354600E+03  0.00000000000E+00 0.  1.
         21    1    1    2  504  506  0.18991692902E+02 -0.40494368848E+02  0.62567305889E+03  0.62726968278E+03  0.00000000000E+00 0.  1.
         21    1    1    2  505  501  0.14203621533E+03 -0.57836075556E+01 -0.11393952690E+02  0.14260981292E+03  0.00000000000E+00 0.  1.
         21    1    1    2  506  502 -0.17788007533E+02  0.33015798377E+02 -0.84954377479E+02  0.92863891838E+02  0.00000000000E+00 0.  1.
<scales pt_clust_3="158.31519" pt_clust_4="44.67605" pt_clust_5="14000.00000" pt_clust_6="37.50275"></scales>
<clustering>
<clus scale="   37.503">  2  6  1 -1</clus>
<clus scale="   44.676">  1  4  2 -1</clus>
<clus scale="  158.315">  2  3  1 -1</clus>
<clus scale="   44.676">  1  3  2 -1</clus>
</clustering>
</event>
<event>
 6    0  0.5563122E+002  0.6845793E+02  0.7546771E-02  0.1365417E+00
         21   -1    0    0  506  501  0.00000000000E+00  0.00000000000E+00  0.14274989602E+03  0.14274989602E+03  0.00000000000E+00 0. -1.
         21   -1    0    0  504  502 -0.00000000000E+00 -0.00000000000E+00 -0.15760110457E+03  0.15760110457E+03  0.00000000000E+00 0. -1.
         21    1    1    2  503  505  0.67068639575E+02 -0.32869685863E+02  0.89068282436E+01  0.75219347594E+02  0.00000000000E+00 0. -1.
         21    1    1    2  504  503  0.36563791426E+01  0.65680472119E+02 -0.52189094042E+02  0.83970203424E+02  0.00000000000E+00 0. -1.
         21    1    1    2  505  501 -0.40275634932E+02  0.39155063321E+02  0.28567964754E+02  0.63018841334E+02  0.00000000000E+00 0. -1.
         21    1    1    2  506  502 -0.30449383786E+02 -0.71965849578E+02 -0.13690749794E+00  0.78142608237E+02  0.00000000000E+00 0. -1.
<scales pt_clust_3="52.07683" pt_clust_4="68.45793" pt_clust_5="56.17157" pt_clust_6="14000.00000"></scales>
<clustering>
<clus scale="   56.172">  1  5  2 -1</clus>
<clus scale="   52.077">  1  3  2 -1</clus>
<clus scale="   68.458">  2  4  1 -1</clus>
<clus scale="   56.172">  1  3  2 -1</clus>
</clustering>
</event>
<event>
 6    0  0.5563122E+002  0.1187752E+03  0.7546771E-02  0.1245131E+00
         21   -1    0    0  506  501  0.00000000000E+00  0.00000000000E+00  0.13003563581E+04  0.13003563581E+04  0.00000000000E+00 0.  1.
         21   -1    0    0  505  502 -0.00000000000E+00 -0.00000000000E+00 -0.10394904304E+03  0.10394904304E+03  0.00000000000E+00 0. -1.
         21    1    1    2  503  504 -0.13266717644E+03  0.93887924524E+02  0.22815522855E+03  0.28012556183E+03  0.00000000000E+00 0.  1.
         21    1    1    2  504  501  0.94312190701E+02  0.12300050251E+02  0.68797522063E+03  0.69451852729E+03  0.00000000000E+00 0.  1.
         21    1    1    2  505  503  0.17916257127E+02 -0.57396798467E+02 -0.60208685500E+02  0.85090954592E+02  0.00000000000E+00 0. -1.
         21    1    1    2  506  502  0.20438728615E+02 -0.48791176308E+02  0.34048555134E+03  0.34457035738E+03  0.00000000000E+00 0.  1.
<scales pt_clust_3="14000.00000" pt_clust_4="118.77515" pt_clust_5="60.81216" pt_clust_6="52.89915"></scales>
<clustering>
<clus scale="   52.899">  1  6  2 -1</clus>
<clus scale="   60.812">  2  5  1 -1</clus>
<clus scale="  118.775">  1  4  2 -1</clus>
<clus scale="   52.899">  1  3  2 -1</clus>
</clustering>
</event>
<event>
 6    0  0.5563122E+002  0.3333633E+03  0.7546771E-02  0.1069658E+00
         21   -1    0    0  503  501  0.00000000000E+00  0.00000000000E+00  0.62353269517E+03  0.62353269517E+03  0.00000000000E+00 0. -1.
         21   -1    0    0  504  502 -0.00000000000E+00 -0.00000000000E+00 -0.19774159530E+03  0.19774159530E+03  0.00000000000E+00 0. -1.
         21    1    1    2  503  505 -0.25815613057E+01 -0.42494501209E+02  0.77042990380E+02  0.88023118886E+02  0.00000000000E+00 0. -1.
         21    1    1    2  504  506  0.13848803077E+03  0.14527246570E+02  0.41900106532E+02  0.14541524846E+03  0.00000000000E+00 0. -1.
         21    1    1    2  505  502 -0.23915113223E+03 -0.14869002874E+03  0.24717678544E+03  0.37469768075E+03  0.00000000000E+00 0. -1.
         21    1    1    2  506  501  0.10324466277E+03  0.17665728338E+03  0.59671217516E+02  0.21313824237E+03  0.00000000000E+00 0. -1.
<scales pt_clust_3="42.57284" pt_clust_4="128.36756" pt_clust_5="296.43456" pt_clust_6="128.36756"></scales>
<clustering>
<clus scale="   42.573">  1  3  2 -1</clus>
<clus scale="  128.368">  4  6 -1 -1</clus>
<clus scale="  296.435">  1  5  2 -1</clus>
<clus scale="   42.573">  1  3  2 -1</clus>
</clustering>
</event>
<event>
 6    0  0.5563122E+002  0.1146516E+03  0.7546771E-02  0.1252190E+00
         21   -1    0    0  504  501  0.00000000000E+00  0.00000000000E+00  0.32484992399E+03  0.32484992399E+03  0.00000000000E+00 0.  1.
         21   -1    0    0  506  502 -0.00000000000E+00 -0.00000000000E+00 -0.22561105595E+03  0.22561105595E+03  0.00000000000E+00 0. -1.
         21    1    1    2  503  501  0.57474988111E+01  0.70652978094E+02 -0.14463374927E+03  0.16107078718E+03  0.00000000000E+00 0. -1.
         21    1    1    2  504  505  0.28017460748E+02 -0.11537032990E+03  0.25391397419E+03  0.28029912133E+03  0.00000000000E+00 0.  1.
         21    1    1    2  505  502 -0.64689940002E+02  0.27611096705E+02  0.53601495504E+01  0.70540004267E+02  0.00000000000E+00 0. -1.
         21    1    1    2  506  503  0.30924980443E+02  0.17106255104E+02 -0.15401506437E+02  0.38551067166E+02  0.00000000000E+00 0.  1.
<scales pt_clust_3="114.65162" pt_clust_4="14000.00000" pt_clust_5="66.92769" pt_clust_6="35.34089"></scales>
<clustering>
<clus scale="   35.341">  2  6  1 -1</clus>
<clus scale="   66.928">  2  5  1 -1</clus>
<clus scale="  114.652">  2  3  1 -1</clus>
<clus scale="  114.652">  1  3  2 -1</clus>
</clustering>
</event>
<event>
 6    0  0.5563122E+002  0.1231675E+03  0.7546771E-02  0.1237961E+00
         21   -1    0    0  506  501  0.00000000000E+00  0.00000000000E+00  0.73400384305E+03  0.73400384305E+03  0.00000000000E+00 0.  1.
         21   -1    0    0  503  502 -0.00000000000E+00 -0.00000000000E+00 -0.41410679153E+02  0.41410679153E+02  0.00000000000E+00 0.  1.
         21    1    1    2  503  504 -0.31210759724E+02  0.64398348966E+00  0.27078997101E+02  0.41325516588E+02  0.00000000000E+00 0. -1.
         21    1    1    2  504  501 -0.61738105065E+02 -0.92988412458E+02  0.52493841999E+03  0.53667381458E+03  0.00000000000E+00 0.  1.
         21    1    1    2  505  502  0.59600821535E+02  0.35935013186E+02  0.50330426469E+02  0.85887920739E+02  0.00000000000E+00 0.  1.
         21    1    1    2  506  505  0.33348043254E+02  0.56409415782E+02  0.90245320331E+02  0.11152727030E+03  0.00000000000E+00 0.  1.
<scales pt_clust_3="31.21740" pt_clust_4="114.56872" pt_clust_5="43.41532" pt_clust_6="43.41532"></scales>
<clustering>
<clus scale="   31.217">  2  3  1 -1</clus>
<clus scale="   43.415">  5  6 -1 -1</clus>
<clus scale="  114.569">  1  4  2 -1</clus>
<clus scale="  114.569">  1  3  2 -1</clus>
</clustering>
</event>
<event>
 6    0  0.5563122E+002  0.9692613E+02  0.7546771E-02  0.1286896E+00
         21   -1    0    0  506  501  0.00000000000E+00  0.00000000000E+00  0.97037143950E+02  0.97037143950E+02  0.00000000000E+00 0. -1.
         21   -1    0    0  505  502 -0.00000000000E+00 -0.00000000000E+00 -0.20721390749E+03  0.20721390749E+03  0.00000000000E+00 0. -1.
         21    1    1    2  503  501 -0.43312871649E+01 -0.55336606243E+02  0.26157401424E+01  0.55567455723E+02  0.00000000000E+00 0. -1.
         21    1    1    2  504  502  0.30020698311E+02  0.35900785187E+02 -0.32091481445E+02  0.56744796109E+02  0.00000000000E+00 0. -1.
         21    1    1    2  505  503 -0.53500802730E+02 -0.52840772606E+02 -0.86092791784E+02  0.11430858209E+03  0.00000000000E+00 0. -1.
         21    1    1    2  506  504  0.27811391584E+02  0.72276593663E+02  0.53917695454E+01  0.77630217520E+02  0.00000000000E+00 0. -1.
<scales pt_clust_3="55.50586" pt_clust_4="37.25586" pt_clust_5="84.24845" pt_clust_6="37.25586"></scales>
<clustering>
<clus scale="   37.256">  4  6 -1 -1</clus>
<clus scale="   55.506">  1  3  2 -1</clus>
<clus scale="   84.248">  2  5  1 -1</clus>
<clus scale="   55.506">  1  3  2 -1</clus>
</clustering>
</event>
<event>
 6    0  0.5563122E+002  0.1772709E+03  0.7546771E-02  0.1170471E+00
         21   -1    0    0  504  501  0.00000000000E+00  0.00000000000E+00  0.21495969120E+03  0.21495969120E+03  0.00000000000E+00 0.  1.
         21   -1    0    0  505  502 -0.00000000000E+00 -0.00000000000E+00 -0.10001633495E+04  0.10001633495E+04  0.00000000000E+00 0. -1.
         21    1    1    2  503  501 -0.95889844465E+02  0.73571830182E+02 -0.16386922480E+02  0.12196806015E+03  0.00000000000E+00 0.  1.
         21    1    1    2  504  506  0.16149813573E+03 -0.41498681745E+02  0.64970784140E+02  0.17895527716E+03  0.00000000000E+00 0.  1.
         21    1    1    2  505  503 -0.53278036482E+02  0.61989195788E+01  0.21632293549E+02  0.57835386223E+02  0.00000000000E+00 0.  1.
         21    1    1    2  506  502 -0.12330254780E+02 -0.38272068017E+02 -0.85541981348E+03  0.85636431713E+03  0.00000000000E+00 0. -1.
<scales pt_clust_3="41.78642" pt_clust_4="166.54620" pt_clust_5="41.78642" pt_clust_6="40.20928"></scales>
<clustering>
<clus scale="   40.209">  2  6  1 -1</clus>
<clus scale="   41.786">  3  5 -1 -1</clus>
<clus scale="  166.546">  1  4  2 -1</clus>
<clus scale="  166.546">  1  3  2 -1</clus>
</clustering>
</event>
<event>
 6    0  0.5563122E+002  0.1267433E+03  0.7546771E-02  0.1232370E+00
         21   -1    0    0  503  501  0.00000000000E+00  0.00000000000E+00  0.67323524165E+02  0.67323524165E+02  0.00000000000E+00 0. -1.
         21   -1    0    0  504  502 -0.00000000000E+00 -0.00000000000E+00 -0.17663254870E+04  0.17663254870E+04  0.00000000000E+00 0. -1.
         21    1    1    2  503  505 -0.12482249181E+03  0.34811339822E+01  0.48517069905E+00  0.12487196702E+03  0.00000000000E+00 0. -1.
         21    1    1    2  504  501  0.41370898910E+02 -0.39892106953E+02 -0.10787391332E+04  0.10802689706E+04  0.00000000000E+00 0. -1.
         21    1    1    2  505  506  0.45706671130E+02  0.20163557101E+02 -0.21709432644E+03  0.22276807535E+03  0.00000000000E+00 0.  1.
         21    1    1    2  506  502  0.37744921775E+02  0.16247415870E+02 -0.40365367397E+03  0.40573999821E+03  0.00000000000E+00 0. -1.
<scales pt_clust_3="121.07632" pt_clust_4="57.47114" pt_clust_5="33.98856" pt_clust_6="33.98856"></scales>
<clustering>
<clus scale="   33.989">  5  6 -1 -1</clus>
<clus scale="   57.471">  2  4  1 -1</clus>
<clus scale="  121.076">  1  3  2 -1</clus>
<clus scale="  121.076">  1  3  2 -1</clus>
</clustering>
</event>
<event>
 6    0  0.5563122E+002  0.8525472E+02  0.7546771E-02  0.1314768E+00
         21   -1    0    0  505  501  0.00000000000E+00  0.00000000000E+00  0.59947962459E+03  0.59947962459E+03  0.00000000000E+00 0. -1.
         21   -1    0    0  503  502 -0.00000000000E+00 -0.00000000000E+00 -0.27832211828E+03  0.27832211828E+03  0.00000000000E+00 0.  1.
         21    1    1    2  503  506  0.15897888059E+02 -0.34463698324E+02 -0.17832643827E+03  0.18232061851E+03  0.00000000000E+00 0.  1.
         21    1    1    2  504  502 -0.45095319937E+02  0.23275339156E+02 -0.15731994023E+02  0.53130263777E+02  0.00000000000E+00 0.  1.
         21    1    1    2  505  504 -0.18550481789E+02  0.82242478669E+02 -0.30729547572E+02  0.89734334378E+02  0.00000000000E+00 0.  1.
         21    1    1    2  506  501  0.47747913668E+02 -0.71054119502E+02  0.54594548618E+03  0.55261652621E+03  0.00000000000E+00 0. -1.
<scales pt_clust_3="37.95378" pt_clust_4="41.05744" pt_clust_5="14000.00000" pt_clust_6="85.25472"></scales>
<clustering>
<clus scale="   37.954">  2  3  1 -1</clus>
<clus scale="   41.057">  2  4  1 -1</clus>
<clus scale="   85.255">  1  6  2 -1</clus>
<clus scale="   85.255">  1  3  2 -1</clus>
</clustering>
</event>
<event>
 6    0  0.5563122E+002  0.2307735E+03  0.7546771E-02  0.1126097E+00
         21   -1    0    0  503  501  0.00000000000E+00  0.00000000000E+00  0.69195603739E+03  0.69195603739E+03  0.00000000000E+00 0. -1.
         21   -1    0    0  506  502 -0.00000000000E+00 -0.00000000000E+00 -0.16644091251E+04  0.16644091251E+04  0.00000000000E+00 0. -1.
         21    1    1    2  503  504 -0.83870574757E+02  0.52103929107E+02  0.30687918388E+02  0.10339652351E+03  0.00000000000E+00 0.  1.
         21    1    1    2  504  502 -0.12099639478E+03 -0.90239733775E+02 -0.42506277011E+01  0.15100134085E+03  0.00000000000E+00 0. -1.
         21    1    1    2  505  501  0.89475388192E+02 -0.17567650822E+03  0.52397750003E+03  0.55983971025E+03  0.00000000000E+00 0. -1.
         21    1    1    2  506  505  0.11539158134E+03  0.21381231288E+03 -0.15228678784E+04  0.15421275878E+04  0.00000000000E+00 0. -1.
<scales pt_clust_3="98.73749" pt_clust_4="230.77347" pt_clust_5="131.56336" pt_clust_6="14000.00000"></scales>
<clustering>
<clus scale="   98.737">  1  3  2 -1</clus>
<clus scale="  131.563">  1  5  2 -1</clus>
<clus scale="  230.773">  1  4  2 -1</clus>
<clus scale="   98.737">  1  3  2 -1</clus>
</clustering>
</event>
<event>
 6    0  0.5563122E+002  0.1390470E+03  0.7546771E-02  0.1214617E+00
         21   -1    0    0  505  501  0.00000000000E+00  0.00000000000E+00  0.40805850567E+03  0.40805850567E+03  0.00000000000E+00 0.  1.
         21   -1    0    0  506  502 -0.00000000000E+00 -0.00000000000E+00 -0.62105682802E+02  0.62105682802E+02  0.00000000000E+00 0.  1.
         21    1    1    2  503  501 -0.13416757846E+03 -0.66358954623E+01  0.10061404848E+03  0.16783373013E+03  0.00000000000E+00 0.  1.
         21    1    1    2  504  502  0.55420269214E+02 -0.18359501395E+02  0.63670031031E+02  0.86384896728E+02  0.00000000000E+00 0.  1.
         21    1    1    2  505  504  0.77936702531E+02 -0.84107084506E+01  0.15301893316E+03  0.17192923988E+03  0.00000000000E+00 0.  1.
         21    1    1    2  506  503  0.81060671545E+00  0.33406105308E+02  0.28649810192E+02  0.44016321736E+02  0.00000000000E+00 0.  1.
<scales pt_clust_3="134.39760" pt_clust_4="30.77133" pt_clust_5="30.77133" pt_clust_6="33.41594"></scales>
<clustering>
<clus scale="   30.771">  4  5 -1 -1</clus>
<clus scale="   33.416">  2  6  1 -1</clus>
<clus scale="  134.398">  2  3  1 -1</clus>
<clus scale="  139.047">  1  3  2 -1</clus>
</clustering>
</event>
<event>
 6    0  0.5563122E+002  0.9558323E+02  0.7546771E-02  0.1289868E+00
         21   -1    0    0  506  501  0.00000000000E+00  0.00000000000E+00  0.19984815175E+03  0.19984815175E+03  0.00000000000E+00 0.  1.
         21   -1    0    0  503  502 -0.00000000000E+00 -0.00000000000E+00 -0.31307972357E+03  0.31307972357E+03  0.00000000000E+00 0.  1.
         21    1    1    2  503  504 -0.50009627300E+02  0.27620235031E+02 -0.91637975786E+02  0.10798777159E+03  0.00000000000E+00 0.  1.
         21    1    1    2  504  501  0.21810463921E+02 -0.77714848046E+02  0.28367713557E+02  0.85557121946E+02  0.00000000000E+00 0.  1.
         21    1    1    2  505  502 -0.98299572966E+01  0.69041741593E+02 -0.17443435451E+03  0.18785828216E+03  0.00000000000E+00 0.  1.
         21    1    1    2  506  505  0.38029120676E+02 -0.18947128578E+02  0.12447304492E+03  0.13152469963E+03  0.00000000000E+00 0.  1.
<scales pt_clust_3="52.30058" pt_clust_4="95.58323" pt_clust_5="14000.00000" pt_clust_6="42.48774"></scales>
<clustering>
<clus scale="   42.488">  1  6  2 -1</clus>
<clus scale="   52.301">  2  3  1 -1</clus>
<clus scale="   95.583">  1  4  2 -1</clus>
<clus scale="   42.488">  1  3  2 -1</clus>
</clustering>
</event>
<event>
 6    0  0.5563122E+002  0.1416514E+03  0.7546771E-02  0.1211124E+00
         21   -1    0    0  505  501  0.00000000000E+00  0.00000000000E+00  0.27455902526E+03  0.27455902526E+03  0.00000000000E+00 0.  1.
         21   -1    0    0  503  502 -0.00000000000E+00 -0.00000000000E+00 -0.10863566619E+03  0.10863566619E+03  0.00000000000E+00 0.  1.
         21    1    1    2  503  506  0.42418582693E+02 -0.13869398891E+02  0.25036967853E+02  0.51171731870E+02  0.00000000000E+00 0.  1.
         21    1    1    2  504  502 -0.10980556130E+03  0.78194870488E+02  0.20939098419E+02  0.13641900493E+03  0.00000000000E+00 0.  1.
         21    1    1    2  505  504  0.27711491577E+02  0.20986520640E+02  0.90610775010E+02  0.97049849881E+02  0.00000000000E+00 0.  1.
         21    1    1    2  506  501  0.39675487030E+02 -0.85311992237E+02  0.29336517785E+02  0.98554104766E+02  0.00000000000E+00 0.  1.
<scales pt_clust_3="39.21106" pt_clust_4="131.07307" pt_clust_5="34.76148" pt_clust_6="39.21106"></scales>
<clustering>
<clus scale="   34.761">  1  5  2 -1</clus>
<clus scale="   39.211">  3  6 -1 -1</clus>
<clus scale="  131.073">  2  4  1 -1</clus>
<clus scale="   34.761">  1  3  2 -1</clus>
</clustering>
</event>
<event>
 6    0  0.5563122E+002  0.1086612E+03  0.7546771E-02  0.1263069E+00
         21   -1    0    0  503  501  0.00000000000E+00  0.00000000000E+00  0.15180888342E+03  0.15180888342E+03  0.00000000000E+00 0. -1.
         21   -1    0    0  505  502 -0.00000000000E+00 -0.00000000000E+00 -0.64918053117E+03  0.64918053117E+03  0.00000000000E+00 0. -1.
         21    1    1    2  503  504  0.22695854578E+02  0.87648977669E+02 -0.14197377138E+03  0.16838645094E+03  0.00000000000E+00 0. -1.
         21    1    1    2  504  502 -0.13794368697E+02 -0.84185030385E+02 -0.30652594917E+03  0.31817536276E+03  0.00000000000E+00 0. -1.
         21    1    1    2  505  506 -0.11480547042E+03 -0.20871312226E+02 -0.13382230012E+03  0.17755088207E+03  0.00000000000E+00 0. -1.
         21    1    1    2  506  501  0.10590398454E+03  0.17407364941E+02  0.84950372931E+02  0.13687671882E+03  0.00000000000E+00 0. -1.
<scales pt_clust_3="51.52414" pt_clust_4="85.30770" pt_clust_5="14000.00000" pt_clust_6="108.66118"></scales>
<clustering>
<clus scale="   85.308">  2  4  1 -1</clus>
<clus scale="   51.524">  2  3  1 -1</clus>
<clus scale="  108.661">  1  6  2 -1</clus>
<clus scale="  108.661">  1  3  2 -1</clus>
</clustering>
</event>
<event>
 6    0  0.5563122E+002  0.7620139E+02  0.7546771E-02  0.1340191E+00
         21   -1    0    0  506  501  0.00000000000E+00  0.00000000000E+00  0.35539249686E+03  0.35539249686E+03  0.00000000000E+00 0. -1.
         21   -1    0    0  503  502 -0.00000000000E+00 -0.00000000000E+00 -0.18743859713E+03  0.18743859713E+03  0.00000000000E+00 0. -1.
         21    1    1    2  503  504  0.80971324073E+01  0.59445310606E+02 -0.12264895131E+03  0.13653597974E+03  0.00000000000E+00 0. -1.
         21    1    1    2  504  505  0.29342022731E+02 -0.82461720277E+02  0.67048429813E+02  0.11025598192E+03  0.00000000000E+00 0. -1.
         21    1    1    2  505  501  0.14458786158E+02  0.74130052516E+02  0.20836365585E+03  0.22162972333E+03  0.00000000000E+00 0. -1.
         21    1    1    2  506  502 -0.51897941296E+02 -0.51113642845E+02  0.15190765380E+02  0.74409409005E+02  0.00000000000E+00 0. -1.
<scales pt_clust_3="59.99424" pt_clust_4="14000.00000" pt_clust_5="76.20139" pt_clust_6="52.04114"></scales>
<clustering>
<clus scale="   59.994">  2  3  1 -1</clus>
<clus scale="   52.041">  2  6  1 -1</clus>
<clus scale="   76.201">  1  5  2 -1</clus>
<clus scale="   76.201">  1  3  2 -1</clus>
</clustering>
</event>
<event>
 6    0  0.5563122E+002  0.9826622E+02  0.7546771E-02  0.1283985E+00
         21   -1    0    0  503  501  0.00000000000E+00  0.00000000000E+00  0.32690976775E+03  0.32690976775E+03  0.00000000000E+00 0.  1.
         21   -1    0    0  506  502 -0.00000000000E+00 -0.00000000000E+00 -0.22223921646E+03  0.22223921646E+03  0.00000000000E+00 0.  1.
         21    1    1    2  503  505  0.10188182093E+03 -0.27553179965E+02 -0.31262361596E+02  0.11007460386E+03  0.00000000000E+00 0.  1.
         21    1    1    2  504  501 -0.20950052756E+02  0.10308146296E+03  0.24296844077E+03  0.26476094109E+03  0.00000000000E+00 0.  1.
         21    1    1    2  505  502 -0.10743972409E+02 -0.65828439720E+02 -0.53621637596E+02  0.85580935013E+02  0.00000000000E+00 0.  1.
         21    1    1    2  506  504 -0.70187795764E+02 -0.96998432764E+01 -0.53413890288E+02  0.88732504244E+02  0.00000000000E+00 0.  1.
<scales pt_clust_3="98.26622" pt_clust_4="14000.00000" pt_clust_5="66.69945" pt_clust_6="85.33392"></scales>
<clustering>
<clus scale="   66.699">  2  5  1 -1</clus>
<clus scale="   85.334">  2  6  1 -1</clus>
<clus scale="   98.266">  2  3  1 -1</clus>
<clus scale="   98.266">  1  3  2 -1</clus>
</clustering>
</event>
<event>
 6    0  0.5563122E+002  0.1669608E+03  0.7546771E-02  0.1181055E+00
         21   -1    0    0  503  501  0.00000000000E+00  0.00000000000E+00  0.11615611245E+03  0.11615611245E+03  0.00000000000E+00 0.  1.
         21   -1    0    0  505  502 -0.00000000000E+00 -0.00000000000E+00 -0.55954376325E+03  0.55954376325E+03  0.00000000000E+00 0.  1.
         21    1    1    2  503  504  0.45255969655E+02 -0.61851400316E+02 -0.54124474416E+02  0.93825141840E+02  0.00000000000E+00 0.  1.
         21    1    1    2  504  502  0.11339486688E+02 -0.10132141322E+03 -0.15109947696E+03  0.18227908457E+03  0.00000000000E+00 0.  1.
         21    1    1    2  505  506  0.89381823886E+02  0.14223104566E+03 -0.16302406478E+03  0.23408465667E+03  0.00000000000E+00 0.  1.
         21    1    1    2  506  501 -0.14597728023E+03  0.20941767872E+02 -0.75139634651E+02  0.16551099263E+03  0.00000000000E+00 0.  1.
<scales pt_clust_3="56.77621" pt_clust_4="56.77621" pt_clust_5="153.58270" pt_clust_6="147.47177"></scales>
<clustering>
<clus scale="   56.776">  3  4 -1 -1</clus>
<clus scale="  147.472">  1  6  2 -1</clus>
<clus scale="  153.583">  1  5  2 -1</clus>
<clus scale="  147.472">  1  3  2 -1</clus>
</clustering>
</event>
<event>
 6    0  0.5563122E+002  0.1424566E+03  0.7546771E-02  0.1210061E+00
         21   -1    0    0  504  501  0.00000000000E+00  0.00000000000E+00  0.22988922297E+04  0.22988922297E+04  0.00000000000E+00 0.  1.
         21   -1    0    0  505  502 -0.00000000000E+00 -0.00000000000E+00 -0.13731345577E+04  0.13731345577E+04  0.00000000000E+00 0.  1.
         21    1    1    2  503  501 -0.21089890880E+02 -0.73418911190E+02  0.22369210120E+04  0.22382249070E+04  0.00000000000E+00 0.  1.
         21    1    1    2  504  506 -0.24058306970E+02 -0.79707911303E+02 -0.85198751869E+00  0.83263912599E+02  0.00000000000E+00 0.  1.
         21    1    1    2  505  503  0.20486231994E+02  0.19008795679E+03 -0.44809986819E+03  0.48718231586E+03  0.00000000000E+00 0.  1.
         21    1    1    2  506  502  0.24661965856E+02 -0.36961134301E+02 -0.86221148439E+03  0.86335565199E+03  0.00000000000E+00 0.  1.
<scales pt_clust_3="76.42465" pt_clust_4="14000.00000" pt_clust_5="142.45656" pt_clust_6="44.43352"></scales>
<clustering>
<clus scale="   44.434">  2  6  1 -1</clus>
<clus scale="   76.425">  1  3  2 -1</clus>
<clus scale="  142.457">  2  5  1 -1</clus>
<clus scale="   76.425">  1  3  2 -1</clus>
</clustering>
</event>
<event>
 6    0  0.5563122E+002  0.1424801E+03  0.7546771E-02  0.1210030E+00
         21   -1    0    0  504  501  0.00000000000E+00  0.00000000000E+00  0.33455446098E+03  0.33455446098E+03  0.00000000000E+00 0.  1.
         21   -1    0    0  503  502 -0.00000000000E+00 -0.00000000000E+00 -0.10214930441E+04  0.10214930441E+04  0.00000000000E+00 0.  1.
         21    1    1    2  503  505 -0.10139646761E+03 -0.55078225389E+02  0.36758353648E+01  0.11544854405E+03  0.00000000000E+00 0.  1.
         21    1    1    2  504  506  0.16916645901E+03 -0.35899694951E+02  0.20104525707E+03  0.26518912938E+03  0.00000000000E+00 0.  1.
         21    1    1    2  505  501 -0.82509954972E+00  0.43130489441E+02  0.28419523086E+02  0.51658389456E+02  0.00000000000E+00 0. -1.
         21    1    1    2  506  502 -0.66944891842E+02  0.47847430898E+02 -0.92007919864E+03  0.92375144219E+03  0.00000000000E+00 0.  1.
<scales pt_clust_3="142.48014" pt_clust_4="14000.00000" pt_clust_5="43.13838" pt_clust_6="82.44688"></scales>
<clustering>
<clus scale="   43.138">  1  5  2 -1</clus>
<clus scale="   82.447">  2  6  1 -1</clus>
<clus scale="  142.480">  2  3  1 -1</clus>
<clus scale="   43.138">  1  3  2 -1</clus>
</clustering>
</event>
<event>
 6    0  0.5563122E+002  0.9477694E+02  0.7546771E-02  0.1291679E+00
         21   -1    0    0  503  501  0.00000000000E+00  0.00000000000E+00  0.11892577988E+03  0.11892577988E+03  0.00000000000E+00 0. -1.
         21   -1    0    0  506  502 -0.00000000000E+00 -0.00000000000E+00 -0.29123448725E+03  0.29123448725E+03  0.00000000000E+00 0. -1.
         21    1    1    2  503  504 -0.30590197349E+02  0.16695587856E+02  0.24611333376E+01  0.34936513922E+02  0.00000000000E+00 0. -1.
         21    1    1    2  504  502  0.58115413041E+02 -0.87845141812E+02 -0.27125196121E+02  0.10876555722E+03  0.00000000000E+00 0. -1.
         21    1    1    2  505  501 -0.33737291304E+02 -0.25170336168E+02  0.38329540602E+02  0.56928941059E+02  0.00000000000E+00 0. -1.
         21    1    1    2  506  505  0.62120756118E+01  0.96319890124E+02 -0.18597418519E+03  0.20952925493E+03  0.00000000000E+00 0. -1.
<scales pt_clust_3="34.84972" pt_clust_4="14000.00000" pt_clust_5="51.25903" pt_clust_6="94.77694"></scales>
<clustering>
<clus scale="   34.850">  1  3  2 -1</clus>
<clus scale="   51.259">  1  5  2 -1</clus>
<clus scale="   94.777">  2  6  1 -1</clus>
<clus scale="   34.850">  1  3  2 -1</clus>
</clustering>
</event>
<event>
 6    0  0.5563122E+002  0.1186428E+03  0.7546771E-02  0.1245353E+00
         21   -1    0    0  503  501  0.00000000000E+00  0.00000000000E+00  0.25975574191E+03  0.25975574191E+03  0.00000000000E+00 0. -1.
         21   -1    0    0  505  502 -0.00000000000E+00 -0.00000000000E+00 -0.21762699593E+03  0.21762699593E+03  0.00000000000E+00 0. -1.
         21    1    1    2  503  502  0.69672784545E+02  0.16821161298E+03 -0.17832916426E+02  0.18294112866E+03  0.00000000000E+00 0. -1.
         21    1    1    2  504  506 -0.21726725435E+02 -0.80328678939E+02 -0.11066543627E+02  0.83947695895E+02  0.00000000000E+00 0. -1.
         21    1    1    2  505  504 -0.39184133333E+02 -0.16050946460E+01 -0.48782202736E+02  0.62591340756E+02  0.00000000000E+00 0. -1.
         21    1    1    2  506  501 -0.87619257765E+01 -0.86277839391E+02  0.11981040876E+03  0.14790257253E+03  0.00000000000E+00 0. -1.
<scales pt_clust_3="118.64277" pt_clust_4="14000.00000" pt_clust_5="39.21699" pt_clust_6="87.26849"></scales>
<clustering>
<clus scale="   39.217">  2  5  1 -1</clus>
<clus scale="   87.268">  1  6  2 -1</clus>
<clus scale="  118.643">  1  3  2 -1</clus>
<clus scale="   87.268">  1  3  2 -1</clus>
</clustering>
</event>
<event>
 6    0  0.5563122E+002  0.1408328E+03  0.7546771E-02  0.1212213E+00
         21   -1    0    0  504  501  0.00000000000E+00  0.00000000000E+00  0.20646775739E+03  0.20646775739E+03  0.00000000000E+00 0.  1.
         21   -1    0    0  506  502 -0.00000000000E+00 -0.00000000000E+00 -0.17295816330E+04  0.17295816330E+04  0.00000000000E+00 0.  1.
         21    1    1    2  503  501 -0.59143997969E+02 -0.14509216655E+02 -0.33940706951E+03  0.34482704171E+03  0.00000000000E+00 0.  1.
         21    1    1    2  504  505  0.91461172146E+02  0.90477763795E+02  0.18108277736E+03  0.22213136655E+03  0.00000000000E+00 0.  1.
         21    1    1    2  505  502 -0.18260757078E+02 -0.24437720992E+02 -0.99460617672E+03  0.99507391898E+03  0.00000000000E+00 0.  1.
         21    1    1    2  506  503 -0.14056417099E+02 -0.51530826148E+02 -0.37018340675E+03  0.37401706316E+03  0.00000000000E+00 0.  1.
<scales pt_clust_3="57.32113" pt_clust_4="127.80947" pt_clust_5="30.50668" pt_clust_6="57.32113"></scales>
<clustering>
<clus scale="   30.507">  2  5  1 -1</clus>
<clus scale="   57.321">  3  6 -1 -1</clus>
<clus scale="  127.809">  1  4  2 -1</clus>
<clus scale="  127.809">  1  3  2 -1</clus>
</clustering>
</event>
<event>
 6    0  0.5563122E+002  0.1121519E+03  0.7546771E-02  0.1256636E+00
         21   -1    0    0  506  501  0.00000000000E+00  0.00000000000E+00  0.21731065399E+02  0.21731065399E+02  0.00000000000E+00 0. -1.
         21   -1    0    0  503  502 -0.00000000000E+00 -0.00000000000E+00 -0.96446397553E+03  0.96446397553E+03  0.00000000000E+00 0. -1.
         21    1    1    2  503  504  0.52487498917E+01 -0.57332621243E+02 -0.28598985071E+03  0.29172722454E+03  0.00000000000E+00 0. -1.
         21    1    1    2  504  501 -0.68632125416E+02 -0.37744462394E+02 -0.40562655209E+03  0.41311973184E+03  0.00000000000E+00 0. -1.
         21    1    1    2  505  502  0.70480613758E+01  0.38964920907E+02 -0.13447243581E+03  0.14018122636E+03  0.00000000000E+00 0. -1.
         21    1    1    2  506  505  0.56335314149E+02  0.56112162730E+02 -0.11664407153E+03  0.14116685818E+03  0.00000000000E+00 0. -1.
<scales pt_clust_3="57.57238" pt_clust_4="97.66220" pt_clust_5="38.91002" pt_clust_6="38.91002"></scales>
<clustering>
<clus scale="   38.910">  5  6 -1 -1</clus>
<clus scale="   57.572">  2  3  1 -1</clus>
<clus scale="   97.662">  2  4  1 -1</clus>
<clus scale="  112.152">  1  3  2 -1</clus>
</clustering>
</event>
<event>
 6    0  0.5563122E+002  0.1173786E+03  0.7546771E-02  0.1247485E+00
         21   -1    0    0  506  501  0.00000000000E+00  0.00000000000E+00  0.12730591486E+04  0.12730591486E+04  0.00000000000E+00 0.  1.
         21   -1    0    0  501  502 -0.00000000000E+00 -0.00000000000E+00 -0.13827780671E+03  0.13827780671E+03  0.00000000000E+00 0.  1.
         21    1    1    2  503  504  0.66781831891E+02 -0.27894765667E+02  0.65272218923E+03  0.65672230611E+03  0.00000000000E+00 0.  1.
         21    1    1    2  504  505  0.36651710978E+02 -0.45535372661E+02  0.39193292227E+03  0.39626788116E+03  0.00000000000E+00 0.  1.
         21    1    1    2  505  502 -0.62373081245E+02  0.91952629468E+02 -0.10812788722E+03  0.15503976046E+03  0.00000000000E+00 0.  1.
         21    1    1    2  506  503 -0.41060461623E+02 -0.18522491140E+02  0.19825411759E+03  0.20330700757E+03  0.00000000000E+00 0. -1.
<scales pt_clust_3="33.54878" pt_clust_4="33.54878" pt_clust_5="111.28428" pt_clust_6="45.04491"></scales>
<clustering>
<clus scale="   33.549">  3  4 -1 -1</clus>
<clus scale="   45.045">  1  6  2 -1</clus>
<clus scale="  111.284">  2  5  1 -1</clus>
<clus scale="   45.045">  1  3  2 -1</clus>
</clustering>
</event>
<event>
 6    0  0.5563122E+002  0.1100191E+03  0.7546771E-02  0.1260534E+00
         21   -1    0    0  505  501  0.00000000000E+00  0.00000000000E+00  0.10250900615E+04  0.10250900615E+04  0.00000000000E+00 0. -1.
         21   -1    0    0  504  502 -0.00000000000E+00 -0.00000000000E+00 -0.95739614815E+02  0.95739614815E+02  0.00000000000E+00 0.  1.
         21    1    1    2  503  501  0.61832864172E+02  0.25988309251E+02  0.12005857870E+03  0.13752366207E+03  0.00000000000E+00 0. -1.
         21    1    1    2  504  506 -0.11106156821E+02 -0.29698803776E+02 -0.74005278279E+02  0.80511780990E+02  0.00000000000E+00 0.  1.
         21    1    1    2  505  502 -0.76478960002E+02 -0.54367888579E+02  0.74151704278E+03  0.74743054752E+03  0.00000000000E+00 0. -1.
         21    1    1    2  506  503  0.25752252651E+02  0.58078383104E+02  0.14178010345E+03  0.15536368570E+03  0.00000000000E+00 0. -1.
<scales pt_clust_3="47.22646" pt_clust_4="31.70750" pt_clust_5="98.07685" pt_clust_6="47.22646"></scales>
<clustering>
<clus scale="   31.708">  2  4  1 -1</clus>
<clus scale="   47.226">  3  6 -1 -1</clus>
<clus scale="   98.077">  1  5  2 -1</clus>
<clus scale="   98.077">  1  3  2 -1</clus>
</clustering>
</event>
<event>
 6    0  0.5563122E+002  0.1665202E+03  0.7546771E-02  0.1181526E+00
         21   -1    0    0  503  501  0.00000000000E+00  0.00000000000E+00  0.90613397152E+03  0.90613397152E+03  0.00000000000E+00 0.  1.
         21   -1    0    0  505  502 -0.00000000000E+00 -0.00000000000E+00 -0.24476874703E+03  0.24476874703E+03  0.00000000000E+00 0. -1.
         21    1    1    2  503  506  0.16289173905E+03 -0.20681342197E+02  0.59204306635E+03  0.61439110424E+03  0.00000000000E+00 0.  1.
         21    1    1    2  504  501 -0.10115652920E+03  0.13640145109E+03 -0.39608445104E+02  0.17437553780E+03  0.00000000000E+00 0. -1.
         21    1    1    2  505  504  0.12642928670E+03 -0.17651220202E+02  0.10079235610E+02  0.12805280591E+03  0.00000000000E+00 0.  1.
         21    1    1    2  506  502 -0.18816449655E+03 -0.98068888694E+02  0.98851367632E+02  0.23408327060E+03  0.00000000000E+00 0. -1.
<scales pt_clust_3="166.52021" pt_clust_4="129.37943" pt_clust_5="127.65551" pt_clust_6="14000.00000"></scales>
<clustering>
<clus scale="  127.656">  2  5  1 -1</clus>
<clus scale="  129.379">  2  4  1 -1</clus>
<clus scale="  166.520">  1  3  2 -1</clus>
<clus scale="  166.520">  1  3  2 -1</clus>
</clustering>
</event>
<event>
 6    0  0.5563122E+002  0.8669825E+02  0.7546771E-02  0.1311050E+00
         21   -1    0    0  505  501  0.00000000000E+00  0.00000000000E+00  0.76032798803E+03  0.76032798803E+03  0.00000000000E+00 0. -1.
         21   -1    0    0  503  502 -0.00000000000E+00 -0.00000000000E+00 -0.28184162619E+03  0.28184162619E+03  0.00000000000E+00 0.  1.
         21    1    1    2  503  506  0.26186952730E+02  0.83597700816E+02 -0.25383573563E+03  0.26852730356E+03  0.00000000000E+00 0.  1.
         21    1    1    2  504  501 -0.10062117984E+01 -0.42976570671E+02  0.22299578025E+03  0.22710155459E+03  0.00000000000E+00 0. -1.
         21    1    1    2  505  502 -0.39444351058E+02  0.40890105374E+02  0.42359448100E+03  0.42738757806E+03  0.00000000000E+00 0. -1.
         21    1    1    2  506  504  0.14263610127E+02 -0.81511235519E+02  0.85731836215E+02  0.11915317801E+03  0.00000000000E+00 0. -1.
<scales pt_clust_3="14000.00000" pt_clust_4="42.98835" pt_clust_5="40.80274" pt_clust_6="86.69825"></scales>
<clustering>
<clus scale="   42.988">  1  4  2 -1</clus>
<clus scale="   40.803">  1  5  2 -1</clus>
<clus scale="   86.698">  1  6  2 -1</clus>
<clus scale="   42.988">  1  3  2 -1</clus>
</clustering>
</event>
<event>
 6    0  0.6665593E+002  0.9974896E+02  0.7546771E-02  0.1280825E+00
         21   -1    0    0  506  501  0.00000000000E+00  0.00000000000E+00  0.87098325292E+03  0.87098325292E+03  0.00000000000E+00 0.  1.
         21   -1    0    0  505  502 -0.00000000000E+00 -0.00000000000E+00 -0.20689139847E+04  0.20689139847E+04  0.00000000000E+00 0.  1.
         21    1    1    2  503  501  0.42524838358E+02  0.16030898457E+02  0.11474970357E+02  0.46872449556E+02  0.00000000000E+00 0. -1.
         21    1    1    2  504  502  0.90895827255E+02  0.70471035316E+02 -0.19729537439E+04  0.19763032899E+04  0.00000000000E+00 0.  1.
         21    1    1    2  505  503 -0.35836009829E+02  0.12228336976E+02 -0.65756223123E+02  0.75879066317E+02  0.00000000000E+00 0. -1.
         21    1    1    2  506  504 -0.97584655784E+02 -0.98730270748E+02  0.82930426488E+03  0.84084243182E+03  0.00000000000E+00 0.  1.
<scales pt_clust_3="45.18783" pt_clust_4="99.74896" pt_clust_5="37.86492" pt_clust_6="14000.00000"></scales>
<clustering>
<clus scale="   37.865">  2  5  1 -1</clus>
<clus scale="   45.188">  1  3  2 -1</clus>
<clus scale="   99.749">  2  4  1 -1</clus>
<clus scale="   45.188">  1  3  2 -1</clus>
</clustering>
</event>
<event>
 6    0  0.5563122E+002  0.1713857E+03  0.7546771E-02  0.1176410E+00
         21   -1    0    0  503  501  0.00000000000E+00  0.00000000000E+00  0.56313569361E+03  0.56313569361E+03  0.00000000000E+00 0. -1.
         21   -1    0    0  505  502 -0.00000000000E+00 -0.00000000000E+00 -0.18438107302E+03  0.18438107302E+03  0.00000000000E+00 0. -1.
         21    1    1    2  503  506 -0.54846729977E+02 -0.14951761366E+03  0.44909696421E+03  0.47649948987E+03  0.00000000000E+00 0. -1.
         21    1    1    2  504  501 -0.12526653700E+02  0.69775875381E+02 -0.47054509705E+02  0.85086524913E+02  0.00000000000E+00 0. -1.
         21    1    1    2  505  504  0.16983498154E+02  0.11905975768E+03 -0.10257323549E+02  0.12070160643E+03  0.00000000000E+00 0. -1.
         21    1    1    2  506  502  0.50389885523E+02 -0.39318019398E+02 -0.13030510357E+02  0.65229145423E+02  0.00000000000E+00 0. -1.
<scales pt_clust_3="161.20699" pt_clust_4="44.67133" pt_clust_5="44.67133" pt_clust_6="63.91437"></scales>
<clustering>
<clus scale="   44.671">  4  5 -1 -1</clus>
<clus scale="   63.914">  2  6  1 -1</clus>
<clus scale="  161.207">  1  3  2 -1</clus>
<clus scale="  161.207">  1  3  2 -1</clus>
</clustering>
</event>
<event>
 6    0  0.5563122E+002  0.8391948E+02  0.7546771E-02  0.1318283E+00
         21   -1    0    0  503  501  0.00000000000E+00  0.00000000000E+00  0.18233756598E+03  0.18233756598E+03  0.00000000000E+00 0.  1.
         21   -1    0    0  505  502 -0.00000000000E+00 -0.00000000000E+00 -0.39910248968E+03  0.39910248968E+03  0.00000000000E+00 0.  1.
         21    1    1    2  503  502 -0.54821178725E+02 -0.30726329902E+01  0.21316968152E+02  0.58900049588E+02  0.00000000000E+00 0.  1.
         21    1    1    2  504  506 -0.59668389232E+01 -0.55462702467E+02 -0.18791435424E+03  0.19601918034E+03  0.00000000000E+00 0.  1.
         21    1    1    2  505  504 -0.44060189216E+02 -0.17471507476E+02 -0.15362403612E+03  0.16076970586E+03  0.00000000000E+00 0.  1.
         21    1    1    2  506  501  0.10484820686E+03  0.76006842933E+02  0.10345649852E+03  0.16575111988E+03  0.00000000000E+00 0.  1.
<scales pt_clust_3="58.41205" pt_clust_4="83.91948" pt_clust_5="47.39783" pt_clust_6="14000.00000"></scales>
<clustering>
<clus scale="   47.398">  2  5  1 -1</clus>
<clus scale="   58.412">  1  3  2 -1</clus>
<clus scale="   83.919">  2  4  1 -1</clus>
<clus scale="   58.412">  1  3  2 -1</clus>
</clustering>
</event>
<event>
 6    0  0.5563122E+002  0.9706381E+02  0.7546771E-02  0.1286594E+00
         21   -1    0    0  506  501  0.00000000000E+00  0.00000000000E+00  0.33983387577E+03  0.33983387577E+03  0.00000000000E+00 0. -1.
         21   -1    0    0  503  502 -0.00000000000E+00 -0.00000000000E+00 -0.72539406021E+03  0.72539406021E+03  0.00000000000E+00 0. -1.
         21    1    1    2  503  501 -0.32114207588E+02  0.39623312185E+01  0.24232765403E+03  0.24447845366E+03  0.00000000000E+00 0. -1.
         21    1    1    2  504  502 -0.28547666176E+02  0.48452560613E+02 -0.57608360173E+03  0.57882202451E+03  0.00000000000E+00 0. -1.
         21    1    1    2  505  504  0.27070161406E+02  0.61328565927E+02 -0.94511475964E+02  0.11587236826E+03  0.00000000000E+00 0.  1.
         21    1    1    2  506  505  0.33591712358E+02 -0.11374345776E+03  0.42707239229E+02  0.12605508956E+03  0.00000000000E+00 0. -1.
<scales pt_clust_3="32.35773" pt_clust_4="56.51829" pt_clust_5="14000.00000" pt_clust_6="97.06381"></scales>
<clustering>
<clus scale="   32.358">  1  3  2 -1</clus>
<clus scale="   56.518">  2  4  1 -1</clus>
<clus scale="   97.064">  1  6  2 -1</clus>
<clus scale="   32.358">  1  3  2 -1</clus>
</clustering>
</event>
<event>
 6    0  0.5563122E+002  0.2200500E+03  0.7546771E-02  0.1133846E+00
         21   -1    0    0  504  501  0.00000000000E+00  0.00000000000E+00  0.10826213009E+03  0.10826213009E+03  0.00000000000E+00 0.  1.
         21   -1    0    0  506  502 -0.00000000000E+00 -0.00000000000E+00 -0.65555902695E+03  0.65555902695E+03  0.00000000000E+00 0.  1.
         21    1    1    2  503  502  0.54259011418E+02 -0.92285404895E+02 -0.16653041982E+03  0.19797226322E+03  0.00000000000E+00 0.  1.
         21    1    1    2  504  505 -0.43597759170E+02 -0.27509078438E+02  0.86511228056E+01  0.52271942062E+02  0.00000000000E+00 0. -1.
         21    1    1    2  505  503  0.28766382631E+02 -0.10362453345E+03 -0.13744186834E+03  0.17451594734E+03  0.00000000000E+00 0.  1.
         21    1    1    2  506  501 -0.39427634879E+02  0.22341901679E+03 -0.25197573150E+03  0.33906100442E+03  0.00000000000E+00 0.  1.
<scales pt_clust_3="32.70338" pt_clust_4="51.55108" pt_clust_5="32.70338" pt_clust_6="217.59501"></scales>
<clustering>
<clus scale="   32.703">  3  5 -1 -1</clus>
<clus scale="   51.551">  1  4  2 -1</clus>
<clus scale="  217.595">  1  6  2 -1</clus>
<clus scale="   51.551">  1  3  2 -1</clus>
</clustering>
</event>
<event>
 6    0  0.5563122E+002  0.9338928E+02  0.7546771E-02  0.1294846E+00
         21   -1    0    0  505  501  0.00000000000E+00  0.00000000000E+00  0.52034475665E+03  0.52034475665E+03  0.00000000000E+00 0. -1.
         21   -1    0    0  506  502 -0.00000000000E+00 -0.00000000000E+00 -0.18703266437E+03  0.18703266437E+03  0.00000000000E+00 0. -1.
         21    1    1    2  503  502  0.87776864632E+00 -0.33991083933E+02 -0.64201276416E+02  0.72649626001E+02  0.00000000000E+00 0. -1.
         21    1    1    2  504  501  0.87926954683E+02  0.60664766888E+01  0.40794744958E+03  0.41735964482E+03  0.00000000000E+00 0. -1.
         21    1    1    2  505  503 -0.61305019693E+02 -0.82284497727E+02  0.50179367875E+01  0.10273375149E+03  0.00000000000E+00 0. -1.
         21    1    1    2  506  504 -0.27499703636E+02  0.11020910497E+03 -0.15452017667E+02  0.11463439871E+03  0.00000000000E+00 0. -1.
<scales pt_clust_3="34.00242" pt_clust_4="88.08821" pt_clust_5="14000.00000" pt_clust_6="93.38928"></scales>
<clustering>
<clus scale="   34.002">  2  3  1 -1</clus>
<clus scale="   88.088">  1  4  2 -1</clus>
<clus scale="   93.389">  2  6  1 -1</clus>
<clus scale="   88.088">  1  3  2 -1</clus>
</clustering>
</event>
<event>
 6    0  0.5563122E+002  0.1081652E+03  0.7546771E-02  0.1264006E+00
         21   -1    0    0  505  501  0.00000000000E+00  0.00000000000E+00  0.62067333607E+03  0.62067333607E+03  0.00000000000E+00 0.  1.
         21   -1    0    0  506  502 -0.00000000000E+00 -0.00000000000E+00 -0.90588845249E+03  0.90588845249E+03  0.00000000000E+00 0.  1.
         21    1    1    2  503  502  0.18530520532E+02  0.29107314461E+02 -0.29589526437E+02  0.45454988957E+02  0.00000000000E+00 0. -1.
         21    1    1    2  504  503 -0.55309411230E+02 -0.22735198901E+02 -0.58426992882E+02  0.83604627485E+02  0.00000000000E+00 0.  1.
         21    1    1    2  505  504 -0.41203120999E+02 -0.99955771673E+02  0.59056294455E+03  0.60037775188E+03  0.00000000000E+00 0.  1.
         21    1    1    2  506  501  0.77982011698E+02  0.93583656112E+02 -0.78776154165E+03  0.79712442024E+03  0.00000000000E+00 0.  1.
<scales pt_clust_3="34.50530" pt_clust_4="57.51615" pt_clust_5="14000.00000" pt_clust_6="108.16524"></scales>
<clustering>
<clus scale="   34.505">  2  3  1 -1</clus>
<clus scale="   57.516">  2  4  1 -1</clus>
<clus scale="  108.165">  2  6  1 -1</clus>
<clus scale="  108.165">  1  3  2 -1</clus>
</clustering>
</event>
<event>
 6    0  0.5563122E+002  0.1013818E+03  0.7546771E-02  0.1277417E+00
         21   -1    0    0  504  501  0.00000000000E+00  0.00000000000E+00  0.60920943102E+03  0.60920943102E+03  0.00000000000E+00 0. -1.
         21   -1    0    0  503  502 -0.00000000000E+00 -0.00000000000E+00 -0.91965036083E+02  0.91965036083E+02  0.00000000000E+00 0. -1.
         21    1    1    2  503  505 -0.10965507165E+03 -0.23523851949E+02  0.10090949638E+03  0.15086528033E+03  0.00000000000E+00 0. -1.
         21    1    1    2  504  506  0.12072609408E+03 -0.27654422529E+02  0.12615491940E+03  0.17678976375E+03  0.00000000000E+00 0. -1.
         21    1    1    2  505  501 -0.75272109819E+02  0.30183735925E+02  0.29486142229E+03  0.30581073687E+03  0.00000000000E+00 0. -1.
         21    1    1    2  506  502  0.64201087391E+02  0.20994538553E+02 -0.46814431275E+01  0.67708686156E+02  0.00000000000E+00 0. -1.
<scales pt_clust_3="101.38181" pt_clust_4="14000.00000" pt_clust_5="76.13510" pt_clust_6="67.54665"></scales>
<clustering>
<clus scale="   67.547">  2  6  1 -1</clus>
<clus scale="   76.135">  1  5  2 -1</clus>
<clus scale="  101.382">  2  3  1 -1</clus>
<clus scale="   76.135">  1  3  2 -1</clus>
</clustering>
</event>
<event>
 6    0  0.5563122E+002  0.2147916E+03  0.7546771E-02  0.1137827E+00
         21   -1    0    0  504  501  0.00000000000E+00  0.00000000000E+00  0.13962332462E+04  0.13962332462E+04  0.00000000000E+00 0. -1.
         21   -1    0    0  503  502 -0.00000000000E+00 -0.00000000000E+00 -0.54135106379E+03  0.54135106379E+03  0.00000000000E+00 0. -1.
         21    1    1    2  503  501  0.28846808971E+03 -0.22790187647E+03  0.66489768572E+03  0.75976446124E+03  0.00000000000E+00 0. -1.
         21    1    1    2  504  505 -0.41971141469E+02  0.39600537870E+02  0.36222428983E+03  0.36679178761E+03  0.00000000000E+00 0. -1.
         21    1    1    2  505  506 -0.57195050370E+02  0.97076920778E+02  0.28573361460E+03  0.30714638341E+03  0.00000000000E+00 0.  1.
         21    1    1    2  506  502 -0.18930189788E+03  0.91224417824E+02 -0.45797340774E+03  0.50388167772E+03  0.00000000000E+00 0. -1.
<scales pt_clust_3="14000.00000" pt_clust_4="54.63542" pt_clust_5="185.31922" pt_clust_6="214.79161"></scales>
<clustering>
<clus scale="   54.635">  4  5 -1 -1</clus>
<clus scale="  185.319">  1  4  2 -1</clus>
<clus scale="  214.792">  2  6  1 -1</clus>
<clus scale="  185.319">  1  3  2 -1</clus>
</clustering>
</event>
<event>
 6    0  0.5563122E+002  0.8731692E+02  0.7546771E-02  0.1309482E+00
         21   -1    0    0  506  501  0.00000000000E+00  0.00000000000E+00  0.28729703595E+03  0.28729703595E+03  0.00000000000E+00 0.  1.
         21   -1    0    0  504  502 -0.00000000000E+00 -0.00000000000E+00 -0.17794955669E+03  0.17794955669E+03  0.00000000000E+00 0.  1.
         21    1    1    2  503  501  0.38452982609E+02 -0.41656245676E+02  0.76663447833E+02  0.95347568972E+02  0.00000000000E+00 0.  1.
         21    1    1    2  504  503  0.67048971771E+02  0.60189232477E+02 -0.13571138633E+03  0.16289839993E+03  0.00000000000E+00 0.  1.
         21    1    1    2  505  502 -0.83802811293E+02  0.91903900666E+01  0.12964849034E+03  0.15464832847E+03  0.00000000000E+00 0.  1.
         21    1    1    2  506  505 -0.21699143087E+02 -0.27723376868E+02  0.38746927413E+02  0.52352295266E+02  0.00000000000E+00 0. -1.
<scales pt_clust_3="59.98970" pt_clust_4="14000.00000" pt_clust_5="87.31692" pt_clust_6="35.20566"></scales>
<clustering>
<clus scale="   35.206">  1  6  2 -1</clus>
<clus scale="   59.990">  1  3  2 -1</clus>
<clus scale="   87.317">  1  5  2 -1</clus>
<clus scale="   35.206">  1  3  2 -1</clus>
</clustering>
</event>
<event>
 6    0  0.5563122E+002  0.1040953E+03  0.7546771E-02  0.1271912E+00
         21   -1    0    0  504  501  0.00000000000E+00  0.00000000000E+00  0.54816553700E+03  0.54816553700E+03  0.00000000000E+00 0. -1.
         21   -1    0    0  503  502 -0.00000000000E+00 -0.00000000000E+00 -0.56692360178E+03  0.56692360178E+03  0.00000000000E+00 0.  1.
         21    1    1    2  503  505 -0.37624518474E+02  0.69695924294E+01 -0.60115993188E+02  0.71260874581E+02  0.00000000000E+00 0.  1.
         21    1    1    2  504  502  0.40691105998E+02 -0.25100364669E+02 -0.18031017116E+02  0.51097083989E+02  0.00000000000E+00 0.  1.
         21    1    1    2  505  506 -0.50396552408E+00 -0.86136252942E+02 -0.45744198689E+03  0.46548134164E+03  0.00000000000E+00 0.  1.
         21    1    1    2  506  501 -0.25626220006E+01  0.10426702518E+03  0.51683093241E+03  0.52724983856E+03  0.00000000000E+00 0. -1.
<scales pt_clust_3="38.26460" pt_clust_4="45.35949" pt_clust_5="104.09534" pt_clust_6="14000.00000"></scales>
<clustering>
<clus scale="   38.265">  2  3  1 -1</clus>
<clus scale="   45.359">  2  4  1 -1</clus>
<clus scale="  104.095">  2  5  1 -1</clus>
<clus scale="  104.095">  1  3  2 -1</clus>
</clustering>
</event>
<event>
 6    0  0.5563122E+002  0.1769053E+03  0.7546771E-02  0.1170832E+00
         21   -1    0    0  506  501  0.00000000000E+00  0.00000000000E+00  0.86254763015E+02  0.86254763015E+02  0.00000000000E+00 0.  1.
         21   -1    0    0  505  502 -0.00000000000E+00 -0.00000000000E+00 -0.89759257783E+03  0.89759257783E+03  0.00000000000E+00 0.  1.
         21    1    1    2  503  504 -0.43450484419E+02 -0.22135437452E+02 -0.12021644165E+03  0.12973016238E+03  0.00000000000E+00 0.  1.
         21    1    1    2  504  501 -0.52279553898E+02  0.94380196795E+02 -0.87760910710E+02  0.13907821811E+03  0.00000000000E+00 0.  1.
         21    1    1    2  505  503 -0.56733029485E+02 -0.12053779803E+03 -0.51576489970E+03  0.53269262164E+03  0.00000000000E+00 0.  1.
         21    1    1    2  506  502  0.15246306780E+03  0.48293038690E+02 -0.87595562747E+02  0.18234633871E+03  0.00000000000E+00 0.  1.
<scales pt_clust_3="37.97266" pt_clust_4="107.89242" pt_clust_5="37.97266" pt_clust_6="165.39705"></scales>
<clustering>
<clus scale="   37.973">  3  5 -1 -1</clus>
<clus scale="  107.892">  1  4  2 -1</clus>
<clus scale="  165.397">  1  6  2 -1</clus>
<clus scale="  107.892">  1  3  2 -1</clus>
</clustering>
</event>
<event>
 6    0  0.5563122E+002  0.1230349E+03  0.7546771E-02  0.1238173E+00
         21   -1    0    0  505  501  0.00000000000E+00  0.00000000000E+00  0.10537115379E+03  0.10537115379E+03  0.00000000000E+00 0.  1.
         21   -1    0    0  506  502 -0.00000000000E+00 -0.00000000000E+00 -0.64598839301E+03  0.64598839301E+03  0.00000000000E+00 0.  1.
         21    1    1    2  503  502  0.31532151547E+02 -0.94456462879E+02 -0.21497781761E+03  0.23692142585E+03  0.00000000000E+00 0.  1.
         21    1    1    2  504  501  0.51310810732E+02  0.11156894212E+03  0.21479205776E+01  0.12282117776E+03  0.00000000000E+00 0.  1.
         21    1    1    2  505  503 -0.12202369668E+03 -0.75024985558E+02 -0.23849535839E+03  0.27820597941E+03  0.00000000000E+00 0.  1.
         21    1    1    2  506  504  0.39180734396E+02  0.57912506317E+02 -0.89291983793E+02  0.11341096378E+03  0.00000000000E+00 0.  1.
<scales pt_clust_3="85.11206" pt_clust_4="14000.00000" pt_clust_5="123.03488" pt_clust_6="69.92130"></scales>
<clustering>
<clus scale="   69.921">  2  6  1 -1</clus>
<clus scale="   85.112">  2  3  1 -1</clus>
<clus scale="  123.035">  2  5  1 -1</clus>
<clus scale="  123.035">  1  3  2 -1</clus>
</clustering>
</event>
<event>
 6    0  0.5563122E+002  0.1257573E+03  0.7546771E-02  0.1233891E+00
         21   -1    0    0  503  501  0.00000000000E+00  0.00000000000E+00  0.51906511150E+03  0.51906511150E+03  0.00000000000E+00 0.  1.
         21   -1    0    0  506  502 -0.00000000000E+00 -0.00000000000E+00 -0.69708922083E+03  0.69708922083E+03  0.00000000000E+00 0.  1.
         21    1    1    2  503  505  0.30454748503E+02 -0.91540256323E+02  0.14971761639E+03  0.17810804275E+03  0.00000000000E+00 0.  1.
         21    1    1    2  504  502 -0.33560260305E+02  0.55297719645E+02 -0.50021294835E+03  0.50437795606E+03  0.00000000000E+00 0.  1.
         21    1    1    2  505  504 -0.33611646632E+02  0.39881963785E+02 -0.17583801644E+03  0.18341025557E+03  0.00000000000E+00 0.  1.
         21    1    1    2  506  501  0.36717158434E+02 -0.36394271063E+01  0.34830923906E+03  0.35025807794E+03  0.00000000000E+00 0.  1.
<scales pt_clust_3="115.66509" pt_clust_4="44.16621" pt_clust_5="44.16621" pt_clust_6="36.89709"></scales>
<clustering>
<clus scale="   36.897">  1  6  2 -1</clus>
<clus scale="   44.166">  4  5 -1 -1</clus>
<clus scale="  115.665">  1  3  2 -1</clus>
<clus scale="   36.897">  1  3  2 -1</clus>
</clustering>
</event>
<event>
 6    0  0.5563122E+002  0.9159927E+02  0.7546771E-02  0.1299024E+00
         21   -1    0    0  504  501  0.00000000000E+00  0.00000000000E+00  0.15558806899E+03  0.15558806899E+03  0.00000000000E+00 0. -1.
         21   -1    0    0  505  502 -0.00000000000E+00 -0.00000000000E+00 -0.68829187969E+03  0.68829187969E+03  0.00000000000E+00 0.  1.
         21    1    1    2  503  501 -0.45801412679E+02  0.78433666648E+02  0.12405309463E+03  0.15374908050E+03  0.00000000000E+00 0. -1.
         21    1    1    2  504  506  0.84313624766E+02 -0.85363814791E+02 -0.46908806637E+03  0.48418940737E+03  0.00000000000E+00 0.  1.
         21    1    1    2  505  503  0.87833224426E+01  0.30642954312E+02 -0.68231959014E+02  0.75310939663E+02  0.00000000000E+00 0. -1.
         21    1    1    2  506  502 -0.47295534530E+02 -0.23712806168E+02 -0.11943687995E+03  0.13063052114E+03  0.00000000000E+00 0.  1.
<scales pt_clust_3="14000.00000" pt_clust_4="91.59927" pt_clust_5="31.87691" pt_clust_6="48.76201"></scales>
<clustering>
<clus scale="   31.877">  2  5  1 -1</clus>
<clus scale="   48.762">  2  6  1 -1</clus>
<clus scale="   91.599">  2  4  1 -1</clus>
<clus scale="   91.599">  1  3  2 -1</clus>
</clustering>
</event>
<event>
 6    0  0.5563122E+002  0.1691568E+03  0.7546771E-02  0.1178730E+00
         21   -1    0    0  506  501  0.00000000000E+00  0.00000000000E+00  0.19090391864E+03  0.19090391864E+03  0.00000000000E+00 0.  1.
         21   -1    0    0  505  502 -0.00000000000E+00 -0.00000000000E+00 -0.16633154305E+03  0.16633154305E+03  0.00000000000E+00 0.  1.
         21    1    1    2  503  502  0.43140849924E+02 -0.39831154131E+02  0.10207072123E+02  0.59597299375E+02  0.00000000000E+00 0.  1.
         21    1    1    2  504  501 -0.33925574274E+02  0.88357117950E+02 -0.48066617550E+01  0.94768290475E+02  0.00000000000E+00 0.  1.
         21    1    1    2  505  504 -0.47727190455E+02  0.49678999309E+02 -0.42240112938E+02  0.80809125859E+02  0.00000000000E+00 0.  1.
         21    1    1    2  506  503  0.38511914806E+02 -0.98204963128E+02  0.61412078167E+02  0.12206074598E+03  0.00000000000E+00 0.  1.
<scales pt_clust_3="34.58764" pt_clust_4="45.88737" pt_clust_5="45.88737" pt_clust_6="166.94413"></scales>
<clustering>
<clus scale="   34.588">  3  6 -1 -1</clus>
<clus scale="   45.887">  4  5 -1 -1</clus>
<clus scale="  166.944">  1  3  2 -1</clus>
<clus scale="  166.944">  1  3  2 -1</clus>
</clustering>
</event>
<event>
 6    0  0.5563122E+002  0.1149491E+03  0.7546771E-02  0.1251670E+00
         21   -1    0    0  503  501  0.00000000000E+00  0.00000000000E+00  0.95110316298E+03  0.95110316298E+03  0.00000000000E+00 0. -1.
         21   -1    0    0  504  502 -0.00000000000E+00 -0.00000000000E+00 -0.74344744971E+03  0.74344744971E+03  0.00000000000E+00 0. -1.
         21    1    1    2  503  505 -0.12190756932E+03  0.12358116913E+02  0.12391682637E+03  0.17426863851E+03  0.00000000000E+00 0. -1.
         21    1    1    2  504  506  0.29762709395E+01 -0.44154513285E+02  0.68946090204E+02  0.81927056498E+02  0.00000000000E+00 0. -1.
         21    1    1    2  505  502  0.98634782631E+02  0.60033877735E+02 -0.70667657345E+03  0.71604794971E+03  0.00000000000E+00 0. -1.
         21    1    1    2  506  501  0.20296515748E+02 -0.28237481364E+02  0.72146937016E+03  0.72230696797E+03  0.00000000000E+00 0. -1.
<scales pt_clust_3="114.94911" pt_clust_4="54.31294" pt_clust_5="14000.00000" pt_clust_6="34.77505"></scales>
<clustering>
<clus scale="   34.775">  1  6  2 -1</clus>
<clus scale="   54.313">  1  4  2 -1</clus>
<clus scale="  114.949">  1  3  2 -1</clus>
<clus scale="   34.775">  1  3  2 -1</clus>
</clustering>
</event>
<event>
 6    0  0.5563122E+002  0.1426375E+03  0.7546771E-02  0.1209823E+00
         21   -1    0    0  504  501  0.00000000000E+00  0.00000000000E+00  0.64315722204E+02  0.64315722204E+02  0.00000000000E+00 0.  1.
         21   -1    0    0  505  502 -0.00000000000E+00 -0.00000000000E+00 -0.48772895935E+03  0.48772895935E+03  0.00000000000E+00 0.  1.
         21    1    1    2  503  506  0.34811534554E+01  0.43604430448E+02 -0.18878981325E+02  0.47643265211E+02  0.00000000000E+00 0.  1.
         21    1    1    2  504  502  0.90915287984E+02 -0.10863639397E+03 -0.32645854898E+03  0.35586885209E+03  0.00000000000E+00 0.  1.
         21    1    1    2  505  503 -0.53618220751E+02  0.63374265673E+02 -0.65757674453E+02  0.10590223272E+03  0.00000000000E+00 0.  1.
         21    1    1    2  506  501 -0.40778220689E+02  0.16576978519E+01 -0.12318032390E+02  0.42630331534E+02  0.00000000000E+00 0.  1.
<scales pt_clust_3="35.96495" pt_clust_4="133.75642" pt_clust_5="35.96495" pt_clust_6="40.81190"></scales>
<clustering>
<clus scale="   35.965">  3  5 -1 -1</clus>
<clus scale="   40.812">  1  6  2 -1</clus>
<clus scale="  133.756">  2  4  1 -1</clus>
<clus scale="   40.812">  1  3  2 -1</clus>
</clustering>
</event>
<event>
 6    0  0.5563122E+002  0.1069151E+03  0.7546771E-02  0.1266392E+00
         21   -1    0    0  504  501  0.00000000000E+00  0.00000000000E+00  0.42447271599E+02  0.42447271599E+02  0.00000000000E+00 0. -1.
         21   -1    0    0  506  502 -0.00000000000E+00 -0.00000000000E+00 -0.11502151482E+04  0.11502151482E+04  0.00000000000E+00 0. -1.
         21    1    1    2  503  501 -0.79127123070E+02 -0.70128553988E+02 -0.91018970234E+02  0.13951189423E+03  0.00000000000E+00 0. -1.
         21    1    1    2  504  502  0.61725010583E+02  0.94677070615E+02 -0.30189282483E+03  0.32235539752E+03  0.00000000000E+00 0. -1.
         21    1    1    2  505  503  0.80634497295E+01 -0.81125523856E+02 -0.26383965026E+03  0.27614802352E+03  0.00000000000E+00 0. -1.
         21    1    1    2  506  505  0.93386627571E+01  0.56577007229E+02 -0.45101643125E+03  0.45464710450E+03  0.00000000000E+00 0. -1.
<scales pt_clust_3="106.91509" pt_clust_4="14000.00000" pt_clust_5="60.36219" pt_clust_6="57.34255"></scales>
<clustering>
<clus scale="   57.343">  2  6  1 -1</clus>
<clus scale="   60.362">  2  5  1 -1</clus>
<clus scale="  106.915">  1  3  2 -1</clus>
<clus scale="  106.915">  1  3  2 -1</clus>
</clustering>
</event>
<event>
 6    0  0.5563122E+002  0.1112805E+03  0.7546771E-02  0.1258217E+00
         21   -1    0    0  506  501  0.00000000000E+00  0.00000000000E+00  0.24088222116E+04  0.24088222116E+04  0.00000000000E+00 0.  1.
         21   -1    0    0  504  502 -0.00000000000E+00 -0.00000000000E+00 -0.43134781637E+02  0.43134781637E+02  0.00000000000E+00 0.  1.
         21    1    1    2  503  505  0.32082620819E+02 -0.32931817714E+02  0.13449244268E+03  0.14213379723E+03  0.00000000000E+00 0.  1.
         21    1    1    2  504  501  0.16067405286E+02  0.11640891851E+03  0.18377388786E+04  0.18414921623E+04  0.00000000000E+00 0.  1.
         21    1    1    2  505  502 -0.94356428066E+02 -0.52878954330E+02  0.47790058487E+02  0.11825061953E+03  0.00000000000E+00 0.  1.
         21    1    1    2  506  503  0.46206401961E+02 -0.30598146465E+02  0.34566605023E+03  0.35008041423E+03  0.00000000000E+00 0.  1.
<scales pt_clust_3="35.94509" pt_clust_4="104.04768" pt_clust_5="108.16339" pt_clust_6="35.94509"></scales>
<clustering>
<clus scale="   35.945">  3  6 -1 -1</clus>
<clus scale="  108.163">  2  5  1 -1</clus>
<clus scale="  104.048">  1  4  2 -1</clus>
<clus scale="  104.048">  1  3  2 -1</clus>
</clustering>
</event>
<event>
 6    0  0.5563122E+002  0.1086027E+03  0.7546771E-02  0.1263180E+00
         21   -1    0    0  506  501  0.00000000000E+00  0.00000000000E+00  0.45602041148E+03  0.45602041148E+03  0.00000000000E+00 0.  1.
         21   -1    0    0  503  502 -0.00000000000E+00 -0.00000000000E+00 -0.18443278760E+03  0.18443278760E+03  0.00000000000E+00 0.  1.
         21    1    1    2  503  504  0.38761804154E+02  0.47801035490E+02 -0.72558214944E+02  0.95142582534E+02  0.00000000000E+00 0.  1.
         21    1    1    2  504  505 -0.32539437724E+02  0.71213677381E+02 -0.56766029200E+02  0.96708763433E+02  0.00000000000E+00 0.  1.
         21    1    1    2  505  501  0.55451656164E+02  0.43669031408E+00  0.19467584899E+03  0.20241976942E+03  0.00000000000E+00 0.  1.
         21    1    1    2  506  502 -0.61674022594E+02 -0.11945140319E+03  0.20623601903E+03  0.24618208369E+03  0.00000000000E+00 0.  1.
<scales pt_clust_3="63.11655" pt_clust_4="108.60270" pt_clust_5="55.45338" pt_clust_6="14000.00000"></scales>
<clustering>
<clus scale="   55.453">  1  5  2 -1</clus>
<clus scale="   63.117">  2  3  1 -1</clus>
<clus scale="  108.603">  2  4  1 -1</clus>
<clus scale="   55.453">  1  3  2 -1</clus>
</clustering>
</event>
<event>
 6    0  0.5563122E+002  0.1872883E+03  0.7546771E-02  0.1160930E+00
         21   -1    0    0  504  501  0.00000000000E+00  0.00000000000E+00  0.45243182467E+03  0.45243182467E+03  0.00000000000E+00 0. -1.
         21   -1    0    0  503  502 -0.00000000000E+00 -0.00000000000E+00 -0.32381252073E+03  0.32381252073E+03  0.00000000000E+00 0.  1.
         21    1    1    2  503  506 -0.89083062509E+02 -0.39580772349E+02 -0.43291398165E+01  0.97576488035E+02  0.00000000000E+00 0.  1.
         21    1    1    2  504  502 -0.15195554569E+03 -0.22502780766E+01  0.32017977642E+03  0.35441591506E+03  0.00000000000E+00 0. -1.
         21    1    1    2  505  501  0.10013671714E+03 -0.32267895914E+02 -0.66647846028E+02  0.12454121650E+03  0.00000000000E+00 0.  1.
         21    1    1    2  506  505  0.14090189106E+03  0.74098946340E+02 -0.12058348664E+03  0.19971072581E+03  0.00000000000E+00 0.  1.
<scales pt_clust_3="97.48041" pt_clust_4="157.61533" pt_clust_5="82.24004" pt_clust_6="82.24004"></scales>
<clustering>
<clus scale="   82.240">  5  6 -1 -1</clus>
<clus scale="   97.480">  2  3  1 -1</clus>
<clus scale="  157.615">  1  4  2 -1</clus>
<clus scale="  157.615">  1  3  2 -1</clus>
</clustering>
</event>
<event>
 6    0  0.5563122E+002  0.1810354E+03  0.7546771E-02  0.1166805E+00
         21   -1    0    0  504  501  0.00000000000E+00  0.00000000000E+00  0.36414270787E+03  0.36414270787E+03  0.00000000000E+00 0. -1.
         21   -1    0    0  505  502 -0.00000000000E+00 -0.00000000000E+00 -0.24321446435E+03  0.24321446435E+03  0.00000000000E+00 0. -1.
         21    1    1    2  503  502  0.20209989330E+02  0.80830689503E+02  0.12506657231E+02  0.84252362040E+02  0.00000000000E+00 0. -1.
         21    1    1    2  504  506 -0.34257823222E+02  0.13633570870E+02  0.89409390998E+02  0.96713555954E+02  0.00000000000E+00 0.  1.
         21    1    1    2  505  501  0.87159966953E+02 -0.20109554216E+03 -0.10871221815E+03  0.24465204534E+03  0.00000000000E+00 0. -1.
         21    1    1    2  506  503 -0.73112133061E+02  0.10663128179E+03  0.12772441345E+03  0.18173920889E+03  0.00000000000E+00 0. -1.
<scales pt_clust_3="83.31893" pt_clust_4="35.41081" pt_clust_5="168.45444" pt_clust_6="35.41081"></scales>
<clustering>
<clus scale="   35.411">  4  6 -1 -1</clus>
<clus scale="   83.319">  2  3  1 -1</clus>
<clus scale="  168.454">  2  5  1 -1</clus>
<clus scale="  181.035">  1  3  2 -1</clus>
</clustering>
</event>
<event>
 6    0  0.5563122E+002  0.8267262E+02  0.7546771E-02  0.1321634E+00
         21   -1    0    0  504  501  0.00000000000E+00  0.00000000000E+00  0.28439838650E+03  0.28439838650E+03  0.00000000000E+00 0.  1.
         21   -1    0    0  506  502 -0.00000000000E+00 -0.00000000000E+00 -0.28087499638E+03  0.28087499638E+03  0.00000000000E+00 0. -1.
         21    1    1    2  503  505 -0.49647347940E+02  0.87118802809E+01  0.28761781239E+02  0.58034438702E+02  0.00000000000E+00 0. -1.
         21    1    1    2  504  502  0.83593061089E+02  0.99445713253E+02  0.19648685090E+03  0.23555112465E+03  0.00000000000E+00 0.  1.
         21    1    1    2  505  501 -0.38060100997E+01 -0.32631421054E+02  0.27206044990E+01  0.32965088226E+02  0.00000000000E+00 0. -1.
         21    1    1    2  506  503 -0.30139703050E+02 -0.75526172480E+02 -0.22444584651E+03  0.23872273131E+03  0.00000000000E+00 0. -1.
<scales pt_clust_3="50.38180" pt_clust_4="82.67262" pt_clust_5="32.85263" pt_clust_6="14000.00000"></scales>
<clustering>
<clus scale="   32.853">  1  5  2 -1</clus>
<clus scale="   50.382">  1  3  2 -1</clus>
<clus scale="   82.673">  1  4  2 -1</clus>
<clus scale="   32.853">  1  3  2 -1</clus>
</clustering>
</event>
<event>
 6    0  0.5563122E+002  0.5821206E+02  0.7546771E-02  0.1405492E+00
         21   -1    0    0  503  501  0.00000000000E+00  0.00000000000E+00  0.21409108372E+03  0.21409108372E+03  0.00000000000E+00 0.  1.
         21   -1    0    0  506  502 -0.00000000000E+00 -0.00000000000E+00 -0.11538512232E+04  0.11538512232E+04  0.00000000000E+00 0.  1.
         21    1    1    2  503  502 -0.69892934185E+02  0.31851534868E+02  0.19122886651E+03  0.20607770842E+03  0.00000000000E+00 0.  1.
         21    1    1    2  504  505  0.63594580366E+02  0.58508596991E+02 -0.66901340009E+03  0.67457131282E+03  0.00000000000E+00 0.  1.
         21    1    1    2  505  501  0.12632533160E+02 -0.35915330020E+02 -0.22111793392E+02  0.44027528110E+02  0.00000000000E+00 0.  1.
         21    1    1    2  506  504 -0.63341793405E+01 -0.54444801840E+02 -0.43986381255E+03  0.44326575760E+03  0.00000000000E+00 0.  1.
<scales pt_clust_3="58.21206" pt_clust_4="14000.00000" pt_clust_5="38.07219" pt_clust_6="55.09871"></scales>
<clustering>
<clus scale="   38.072">  1  5  2 -1</clus>
<clus scale="   55.099">  2  6  1 -1</clus>
<clus scale="   58.212">  1  3  2 -1</clus>
<clus scale="   38.072">  1  3  2 -1</clus>
</clustering>
</event>
<event>
 6    0  0.5563122E+002  0.1898643E+03  0.7546771E-02  0.1158584E+00
         21   -1    0    0  503  501  0.00000000000E+00  0.00000000000E+00  0.17521922937E+03  0.17521922937E+03  0.00000000000E+00 0.  1.
         21   -1    0    0  505  502 -0.00000000000E+00 -0.00000000000E+00 -0.12866656883E+04  0.12866656883E+04  0.00000000000E+00 0. -1.
         21    1    1    2  503  502 -0.43611029390E+02  0.14595962025E+02 -0.79738502429E+02  0.92049947102E+02  0.00000000000E+00 0. -1.
         21    1    1    2  504  501 -0.14558579298E+02  0.29634455915E+02  0.10455409655E+03  0.10964356941E+03  0.00000000000E+00 0.  1.
         21    1    1    2  505  506 -0.27825080015E+02 -0.19276582073E+03 -0.10503547626E+04  0.10682593431E+04  0.00000000000E+00 0. -1.
         21    1    1    2  506  504  0.85994688703E+02  0.14853540279E+03 -0.85907290455E+02  0.19193205809E+03  0.00000000000E+00 0. -1.
<scales pt_clust_3="48.13303" pt_clust_4="33.01747" pt_clust_5="14000.00000" pt_clust_6="189.86426"></scales>
<clustering>
<clus scale="   33.017">  1  4  2 -1</clus>
<clus scale="   48.133">  1  3  2 -1</clus>
<clus scale="  189.864">  1  6  2 -1</clus>
<clus scale="   33.017">  1  3  2 -1</clus>
</clustering>
</event>
<event>
 6    0  0.5563122E+002  0.1479088E+03  0.7546771E-02  0.1203066E+00
         21   -1    0    0  505  501  0.00000000000E+00  0.00000000000E+00  0.26945454290E+03  0.26945454290E+03  0.00000000000E+00 0.  1.
         21   -1    0    0  503  502 -0.00000000000E+00 -0.00000000000E+00 -0.41958891183E+03  0.41958891183E+03  0.00000000000E+00 0.  1.
         21    1    1    2  503  504 -0.16699825829E+02 -0.57585247434E+02 -0.27228283145E+03  0.27880617856E+03  0.00000000000E+00 0.  1.
         21    1    1    2  504  506 -0.16452967561E+02  0.17700294960E+03  0.46656954943E+02  0.18378687590E+03  0.00000000000E+00 0.  1.
         21    1    1    2  505  502  0.76991391678E+02 -0.10341860529E+03 -0.97205604262E+01  0.12929644855E+03  0.00000000000E+00 0.  1.
         21    1    1    2  506  501 -0.43838598289E+02 -0.15999096869E+02  0.85212068002E+02  0.97153951714E+02  0.00000000000E+00 0.  1.
<scales pt_clust_3="60.46632" pt_clust_4="147.90884" pt_clust_5="14000.00000" pt_clust_6="46.66684"></scales>
<clustering>
<clus scale="   46.667">  1  6  2 -1</clus>
<clus scale="   60.466">  2  3  1 -1</clus>
<clus scale="  147.909">  1  4  2 -1</clus>
<clus scale="   46.667">  1  3  2 -1</clus>
</clustering>
</event>
<event>
 6    0  0.5563122E+002  0.9378900E+02  0.7546771E-02  0.1293927E+00
         21   -1    0    0  504  501  0.00000000000E+00  0.00000000000E+00  0.25866666320E+04  0.25866666320E+04  0.00000000000E+00 0.  1.
         21   -1    0    0  505  502 -0.00000000000E+00 -0.00000000000E+00 -0.10143785636E+03  0.10143785636E+03  0.00000000000E+00 0.  1.
         21    1    1    2  503  501  0.69107788677E+02 -0.29054551800E+02  0.33131226125E+03  0.33968789777E+03  0.00000000000E+00 0.  1.
         21    1    1    2  504  506  0.42493405183E+02  0.14997646601E+02  0.15671031293E+04  0.15677508848E+04  0.00000000000E+00 0.  1.
         21    1    1    2  505  503 -0.69591358092E+02  0.65324547508E+02 -0.71353140270E+02  0.11917014834E+03  0.00000000000E+00 0.  1.
         21    1    1    2  506  502 -0.42009835767E+02 -0.51267642309E+02  0.65816652538E+03  0.66149555749E+03  0.00000000000E+00 0.  1.
<scales pt_clust_3="14000.00000" pt_clust_4="45.06239" pt_clust_5="93.78900" pt_clust_6="44.01568"></scales>
<clustering>
<clus scale="   45.062">  1  4  2 -1</clus>
<clus scale="   44.016">  1  6  2 -1</clus>
<clus scale="   93.789">  2  5  1 -1</clus>
<clus scale="   45.062">  1  3  2 -1</clus>
</clustering>
</event>
<event>
 6    0  0.5563122E+002  0.2157233E+03  0.7546771E-02  0.1137112E+00
         21   -1    0    0  506  501  0.00000000000E+00  0.00000000000E+00  0.20212097244E+04  0.20212097244E+04  0.00000000000E+00 0.  1.
         21   -1    0    0  505  502 -0.00000000000E+00 -0.00000000000E+00 -0.12261739798E+03  0.12261739798E+03  0.00000000000E+00 0. -1.
         21    1    1    2  503  502 -0.26735188933E-01  0.46137243508E+02  0.31788360644E+02  0.56028080689E+02  0.00000000000E+00 0.  1.
         21    1    1    2  504  501  0.12946608921E+03  0.63870448184E+02  0.54419462667E+01  0.14446631851E+03  0.00000000000E+00 0. -1.
         21    1    1    2  505  504  0.88744160918E+02 -0.63099616700E+02  0.52732729862E+02  0.12098689402E+03  0.00000000000E+00 0. -1.
         21    1    1    2  506  503 -0.21818351494E+03 -0.46908074992E+02  0.18086292897E+04  0.18223458292E+04  0.00000000000E+00 0.  1.
<scales pt_clust_3="46.13725" pt_clust_4="14000.00000" pt_clust_5="101.29363" pt_clust_6="215.72332"></scales>
<clustering>
<clus scale="   46.137">  2  3  1 -1</clus>
<clus scale="  101.294">  2  5  1 -1</clus>
<clus scale="  215.723">  1  6  2 -1</clus>
<clus scale="  215.723">  1  3  2 -1</clus>
</clustering>
</event>
<event>
 6    0  0.5563122E+002  0.7652153E+02  0.7546771E-02  0.1339223E+00
         21   -1    0    0  506  501  0.00000000000E+00  0.00000000000E+00  0.44617783020E+02  0.44617783020E+02  0.00000000000E+00 0.  1.
         21   -1    0    0  501  502 -0.00000000000E+00 -0.00000000000E+00 -0.21025761662E+04  0.21025761662E+04  0.00000000000E+00 0. -1.
         21    1    1    2  503  505 -0.24923549461E+02  0.92669791189E+02 -0.59970897060E+03  0.60733822779E+03  0.00000000000E+00 0. -1.
         21    1    1    2  504  503  0.42268938655E+02  0.17999703233E+02 -0.21496741702E+03  0.21982184348E+03  0.00000000000E+00 0. -1.
         21    1    1    2  505  502 -0.14262431334E+02 -0.71783780703E+02 -0.12704125625E+04  0.12725189221E+04  0.00000000000E+00 0. -1.
         21    1    1    2  506  504 -0.30829578604E+01 -0.38885713719E+02  0.27130566988E+02  0.47514955810E+02  0.00000000000E+00 0.  1.
<scales pt_clust_3="14000.00000" pt_clust_4="41.55260" pt_clust_5="76.52153" pt_clust_6="39.00773"></scales>
<clustering>
<clus scale="   39.008">  1  6  2 -1</clus>
<clus scale="   41.553">  1  4  2 -1</clus>
<clus scale="   76.522">  2  5  1 -1</clus>
<clus scale="   39.008">  1  3  2 -1</clus>
</clustering>
</event>
<event>
 6    0  0.5563122E+002  0.9554379E+02  0.7546771E-02  0.1289956E+00
         21   -1    0    0  506  501  0.00000000000E+00  0.00000000000E+00  0.14942224027E+04  0.14942224027E+04  0.00000000000E+00 0. -1.
         21   -1    0    0  505  502 -0.00000000000E+00 -0.00000000000E+00 -0.21881418576E+03  0.21881418576E+03  0.00000000000E+00 0. -1.
         21    1    1    2  503  501 -0.49863332707E+01 -0.54790492735E+02  0.14267327506E+04  0.14277931234E+04  0.00000000000E+00 0. -1.
         21    1    1    2  504  503  0.67315968728E+02  0.97079721874E+02 -0.73488028524E+02  0.13912728841E+03  0.00000000000E+00 0. -1.
         21    1    1    2  505  504 -0.46925710435E+02 -0.69332518065E+02 -0.78809820341E+02  0.11497829423E+03  0.00000000000E+00 0. -1.
         21    1    1    2  506  502 -0.15403925023E+02  0.27043288925E+02  0.97331525580E+00  0.31137882468E+02  0.00000000000E+00 0.  1.
<scales pt_clust_3="54.95049" pt_clust_4="14000.00000" pt_clust_5="95.54379" pt_clust_6="31.12267"></scales>
<clustering>
<clus scale="   31.123">  2  6  1 -1</clus>
<clus scale="   54.950">  1  3  2 -1</clus>
<clus scale="   95.544">  2  5  1 -1</clus>
<clus scale="   54.950">  1  3  2 -1</clus>
</clustering>
</event>
<event>
 6    0  0.5563122E+002  0.2527024E+03  0.7546771E-02  0.1111609E+00
         21   -1    0    0  504  501  0.00000000000E+00  0.00000000000E+00  0.17790608608E+03  0.17790608608E+03  0.00000000000E+00 0. -1.
         21   -1    0    0  505  502 -0.00000000000E+00 -0.00000000000E+00 -0.77598287996E+03  0.77598287996E+03  0.00000000000E+00 0. -1.
         21    1    1    2  503  506 -0.66506210035E+01 -0.70325841758E+02 -0.21047151777E+03  0.22200949208E+03  0.00000000000E+00 0. -1.
         21    1    1    2  504  502 -0.44809435543E+02  0.34249821592E+02 -0.10039912139E+03  0.11515606527E+03  0.00000000000E+00 0. -1.
         21    1    1    2  505  503 -0.19201599881E+02 -0.19430033227E+03 -0.31865100906E+03  0.37371083224E+03  0.00000000000E+00 0. -1.
         21    1    1    2  506  501  0.70661656428E+02  0.23037635244E+03  0.31444854340E+02  0.24301257646E+03  0.00000000000E+00 0. -1.
<scales pt_clust_3="39.05880" pt_clust_4="56.39979" pt_clust_5="39.05880" pt_clust_6="244.21667"></scales>
<clustering>
<clus scale="   39.059">  3  5 -1 -1</clus>
<clus scale="   56.400">  2  4  1 -1</clus>
<clus scale="  244.217">  1  6  2 -1</clus>
<clus scale="  244.217">  1  3  2 -1</clus>
</clustering>
</event>
<event>
 6    0  0.5563122E+002  0.7277077E+02  0.7546771E-02  0.1350917E+00
         21   -1    0    0  506  501  0.00000000000E+00  0.00000000000E+00  0.87517156513E+03  0.87517156513E+03  0.00000000000E+00 0. -1.
         21   -1    0    0  503  502 -0.00000000000E+00 -0.00000000000E+00 -0.69919263348E+02  0.69919263348E+02  0.00000000000E+00 0.  1.
         21    1    1    2  503  505  0.27152267443E+02 -0.13835409320E+02  0.97767605475E+01  0.32003893906E+02  0.00000000000E+00 0. -1.
         21    1    1    2  504  502 -0.26936122652E+01  0.71511962097E+02  0.57684647573E+01  0.71794787106E+02  0.00000000000E+00 0.  1.
         21    1    1    2  505  501 -0.28479814401E+02 -0.12611982953E+03  0.15047437358E+03  0.19839316604E+03  0.00000000000E+00 0. -1.
         21    1    1    2  506  504  0.40211592226E+01  0.68443276756E+02  0.63923270290E+03  0.64289898142E+03  0.00000000000E+00 0. -1.
<scales pt_clust_3="30.47399" pt_clust_4="64.96842" pt_clust_5="72.77077" pt_clust_6="14000.00000"></scales>
<clustering>
<clus scale="   30.474">  2  3  1 -1</clus>
<clus scale="   64.968">  2  4  1 -1</clus>
<clus scale="   72.771">  2  5  1 -1</clus>
<clus scale="   72.771">  1  3  2 -1</clus>
</clustering>
</event>
<event>
 6    0  0.5563122E+002  0.1700991E+03  0.7546771E-02  0.1177745E+00
         21   -1    0    0  503  501  0.00000000000E+00  0.00000000000E+00  0.25880399151E+03  0.25880399151E+03  0.00000000000E+00 0. -1.
         21   -1    0    0  505  502 -0.00000000000E+00 -0.00000000000E+00 -0.85572624679E+03  0.85572624679E+03  0.00000000000E+00 0.  1.
         21    1    1    2  503  504  0.12261288112E+03  0.14667058780E+03  0.12596253696E+03  0.22893829007E+03  0.00000000000E+00 0. -1.
         21    1    1    2  504  502  0.26045612896E+02 -0.17045046643E+02 -0.32520347090E+02  0.45016447450E+02  0.00000000000E+00 0.  1.
         21    1    1    2  505  506 -0.16236476358E+03 -0.80926787742E+02 -0.74461512888E+03  0.76639621058E+03  0.00000000000E+00 0.  1.
         21    1    1    2  506  501  0.13706269571E+02 -0.48698753417E+02  0.54250683730E+02  0.74179290203E+02  0.00000000000E+00 0. -1.
<scales pt_clust_3="170.09908" pt_clust_4="31.12728" pt_clust_5="14000.00000" pt_clust_6="50.87761"></scales>
<clustering>
<clus scale="   31.127">  2  4  1 -1</clus>
<clus scale="   50.878">  1  6  2 -1</clus>
<clus scale="  170.099">  1  3  2 -1</clus>
<clus scale="   50.878">  1  3  2 -1</clus>
</clustering>
</event>
<event>
 6    0  0.5563122E+002  0.9039422E+02  0.7546771E-02  0.1301900E+00
         21   -1    0    0  506  501  0.00000000000E+00  0.00000000000E+00  0.83831212781E+03  0.83831212781E+03  0.00000000000E+00 0. -1.
         21   -1    0    0  503  502 -0.00000000000E+00 -0.00000000000E+00 -0.10810029714E+03  0.10810029714E+03  0.00000000000E+00 0.  1.
         21    1    1    2  503  501 -0.82103824715E+02  0.51206775388E+02  0.23412786099E+02  0.99555664988E+02  0.00000000000E+00 0.  1.
         21    1    1    2  504  505  0.22276067929E+02  0.29056442062E+02  0.26452297624E+02  0.45168839671E+02  0.00000000000E+00 0.  1.
         21    1    1    2  505  502  0.25840153636E+02 -0.93010512866E+02 -0.21503756866E+02  0.98899345816E+02  0.00000000000E+00 0.  1.
         21    1    1    2  506  504  0.33987603149E+02  0.12747295417E+02  0.70185050381E+03  0.70278857447E+03  0.00000000000E+00 0. -1.
<scales pt_clust_3="90.39422" pt_clust_4="45.00746" pt_clust_5="14000.00000" pt_clust_6="36.29946"></scales>
<clustering>
<clus scale="   36.299">  1  6  2 -1</clus>
<clus scale="   45.007">  1  4  2 -1</clus>
<clus scale="   90.394">  1  3  2 -1</clus>
<clus scale="   36.299">  1  3  2 -1</clus>
</clustering>
</event>
<event>
 6    0  0.5563122E+002  0.6885639E+02  0.7546771E-02  0.1364026E+00
         21   -1    0    0  506  501  0.00000000000E+00  0.00000000000E+00  0.35615068501E+03  0.35615068501E+03  0.00000000000E+00 0.  1.
         21   -1    0    0  504  502 -0.00000000000E+00 -0.00000000000E+00 -0.21706715750E+04  0.21706715750E+04  0.00000000000E+00 0.  1.
         21    1    1    2  503  502  0.18599778407E+02  0.41401358649E+02 -0.19885880849E+04  0.19891059790E+04  0.00000000000E+00 0.  1.
         21    1    1    2  504  505 -0.89224202153E+02 -0.47447927067E+02 -0.63613464852E+02  0.11941079073E+03  0.00000000000E+00 0.  1.
         21    1    1    2  505  501  0.18167247195E+02  0.46936044876E+02  0.31346178638E+03  0.31747650731E+03  0.00000000000E+00 0.  1.
         21    1    1    2  506  503  0.52457176550E+02 -0.40889476458E+02 -0.75781126597E+02  0.10082898296E+03  0.00000000000E+00 0.  1.
<scales pt_clust_3="45.38749" pt_clust_4="68.85639" pt_clust_5="50.82971" pt_clust_6="14000.00000"></scales>
<clustering>
<clus scale="   45.387">  2  3  1 -1</clus>
<clus scale="   50.830">  1  5  2 -1</clus>
<clus scale="   68.856">  1  4  2 -1</clus>
<clus scale="   50.830">  1  3  2 -1</clus>
</clustering>
</event>
<event>
 6    0  0.5563122E+002  0.1437110E+03  0.7546771E-02  0.1208421E+00
         21   -1    0    0  502  501  0.00000000000E+00  0.00000000000E+00  0.23724251028E+03  0.23724251028E+03  0.00000000000E+00 0. -1.
         21   -1    0    0  503  502 -0.00000000000E+00 -0.00000000000E+00 -0.98337690847E+03  0.98337690847E+03  0.00000000000E+00 0. -1.
         21    1    1    2  503  506 -0.50782513275E+01 -0.30869734196E+02 -0.80619617000E+03  0.80680294599E+03  0.00000000000E+00 0. -1.
         21    1    1    2  504  501  0.70926719851E+02 -0.11870749897E+03  0.13162163350E+03  0.19090920435E+03  0.00000000000E+00 0. -1.
         21    1    1    2  505  504 -0.10078501786E+03  0.12792730934E+03 -0.32224109428E+02  0.16601629296E+03  0.00000000000E+00 0. -1.
         21    1    1    2  506  505  0.34936549335E+02  0.21649923829E+02 -0.39335752267E+02  0.56890975450E+02  0.00000000000E+00 0.  1.
<scales pt_clust_3="31.28465" pt_clust_4="14000.00000" pt_clust_5="143.71097" pt_clust_6="36.07755"></scales>
<clustering>
<clus scale="   31.285">  2  3  1 -1</clus>
<clus scale="   36.078">  2  6  1 -1</clus>
<clus scale="  143.711">  2  5  1 -1</clus>
<clus scale="  143.711">  1  3  2 -1</clus>
</clustering>
</event>
<event>
 6    0  0.5563122E+002  0.1437626E+03  0.7546771E-02  0.1208354E+00
         21   -1    0    0  503  501  0.00000000000E+00  0.00000000000E+00  0.14470693274E+04  0.14470693274E+04  0.00000000000E+00 0. -1.
         21   -1    0    0  505  502 -0.00000000000E+00 -0.00000000000E+00 -0.16639120670E+03  0.16639120670E+03  0.00000000000E+00 0. -1.
         21    1    1    2  503  504  0.41576222278E+02  0.22555951449E+02  0.12907302410E+04  0.12915966508E+04  0.00000000000E+00 0. -1.
         21    1    1    2  504  502  0.69706790020E+02 -0.11099138583E+03 -0.80165402676E+02  0.15363793831E+03  0.00000000000E+00 0. -1.
         21    1    1    2  505  506 -0.38376488202E+02  0.65409747815E+02  0.27313138887E+02  0.80605195315E+02  0.00000000000E+00 0. -1.
         21    1    1    2  506  501 -0.72906524097E+02  0.23025686562E+02  0.42800143473E+02  0.87620749705E+02  0.00000000000E+00 0. -1.
<scales pt_clust_3="47.30067" pt_clust_4="132.24341" pt_clust_5="51.51511" pt_clust_6="51.51511"></scales>
<clustering>
<clus scale="   47.301">  1  3  2 -1</clus>
<clus scale="   51.515">  5  6 -1 -1</clus>
<clus scale="  132.243">  2  4  1 -1</clus>
<clus scale="   47.301">  1  3  2 -1</clus>
</clustering>
</event>
<event>
 6    0  0.5563122E+002  0.1252405E+03  0.7546771E-02  0.1234694E+00
         21   -1    0    0  504  501  0.00000000000E+00  0.00000000000E+00  0.15953141883E+02  0.15953141883E+02  0.00000000000E+00 0. -1.
         21   -1    0    0  505  502 -0.00000000000E+00 -0.00000000000E+00 -0.28586577015E+04  0.28586577015E+04  0.00000000000E+00 0. -1.
         21    1    1    2  503  501  0.11527671089E+02 -0.45244456824E+02 -0.65188873774E+02  0.80184395851E+02  0.00000000000E+00 0. -1.
         21    1    1    2  504  502 -0.30019364552E+02  0.20446396174E+02 -0.34372430056E+03  0.34563797847E+03  0.00000000000E+00 0. -1.
         21    1    1    2  505  506 -0.21379734245E+02  0.89778680147E+02 -0.22181165966E+04  0.22200357070E+04  0.00000000000E+00 0. -1.
         21    1    1    2  506  503  0.39871427708E+02 -0.64980619497E+02 -0.21567478870E+03  0.22875276204E+03  0.00000000000E+00 0. -1.
<scales pt_clust_3="32.88992" pt_clust_4="36.32103" pt_clust_5="117.97820" pt_clust_6="32.88992"></scales>
<clustering>
<clus scale="   32.890">  3  6 -1 -1</clus>
<clus scale="   36.321">  2  4  1 -1</clus>
<clus scale="  117.978">  2  5  1 -1</clus>
<clus scale="  125.241">  1  3  2 -1</clus>
</clustering>
</event>
<event>
 6    0  0.5563122E+002  0.1132809E+03  0.7546771E-02  0.1254612E+00
         21   -1    0    0  503  501  0.00000000000E+00  0.00000000000E+00  0.61491582317E+02  0.61491582317E+02  0.00000000000E+00 0.  1.
         21   -1    0    0  504  502 -0.00000000000E+00 -0.00000000000E+00 -0.31991394207E+03  0.31991394207E+03  0.00000000000E+00 0.  1.
         21    1    1    2  503  506  0.59708090767E+02  0.72584488742E+02 -0.30217078707E+02  0.98725052315E+02  0.00000000000E+00 0.  1.
         21    1    1    2  504  501  0.30063880659E+02  0.99922453495E+00 -0.87592166763E+02  0.92613298442E+02  0.00000000000E+00 0.  1.
         21    1    1    2  505  502 -0.13900564138E+02 -0.43269400995E+02 -0.40763492310E+02  0.61050217453E+02  0.00000000000E+00 0.  1.
         21    1    1    2  506  505 -0.75871407288E+02 -0.30314312282E+02 -0.99849621969E+02  0.12901695617E+03  0.00000000000E+00 0.  1.
<scales pt_clust_3="99.76291" pt_clust_4="30.08048" pt_clust_5="43.05796" pt_clust_6="43.05796"></scales>
<clustering>
<clus scale="   30.080">  2  4  1 -1</clus>
<clus scale="   43.058">  5  6 -1 -1</clus>
<clus scale="   99.763">  1  3  2 -1</clus>
<clus scale="   99.763">  1  3  2 -1</clus>
</clustering>
</event>
<event>
 6    0  0.5563122E+002  0.2876205E+03  0.7546771E-02  0.1091598E+00
         21   -1    0    0  506  501  0.00000000000E+00  0.00000000000E+00  0.32435867159E+04  0.32435867159E+04  0.00000000000E+00 0.  1.
         21   -1    0    0  504  502 -0.00000000000E+00 -0.00000000000E+00 -0.71328941659E+02  0.71328941659E+02  0.00000000000E+00 0.  1.
         21    1    1    2  503  502 -0.42464978525E+02 -0.47871068891E+01 -0.51471714700E+00  0.42737053329E+02  0.00000000000E+00 0.  1.
         21    1    1    2  504  501 -0.18913503864E+03  0.17110308358E+03  0.34340762541E+03  0.42775825561E+03  0.00000000000E+00 0.  1.
         21    1    1    2  505  503  0.31826441816E+02 -0.50957711415E+02  0.71002721841E+03  0.71256456664E+03  0.00000000000E+00 0. -1.
         21    1    1    2  506  505  0.19977357534E+03 -0.11535826527E+03  0.21193376476E+04  0.21318557820E+04  0.00000000000E+00 0.  1.
<scales pt_clust_3="42.73395" pt_clust_4="280.36326" pt_clust_5="32.76473" pt_clust_6="32.76473"></scales>
<clustering>
<clus scale="   32.765">  5  6 -1 -1</clus>
<clus scale="   42.734">  2  3  1 -1</clus>
<clus scale="  280.363">  2  4  1 -1</clus>
<clus scale="  287.621">  1  3  2 -1</clus>
</clustering>
</event>
<event>
 6    0  0.5563122E+002  0.1531229E+03  0.7546771E-02  0.1196687E+00
         21   -1    0    0  506  501  0.00000000000E+00  0.00000000000E+00  0.14540682715E+03  0.14540682715E+03  0.00000000000E+00 0.  1.
         21   -1    0    0  501  502 -0.00000000000E+00 -0.00000000000E+00 -0.10945486836E+04  0.10945486836E+04  0.00000000000E+00 0.  1.
         21    1    1    2  503  505 -0.20166689657E+02 -0.65648919735E+02  0.42637193127E+02  0.80835674500E+02  0.00000000000E+00 0.  1.
         21    1    1    2  504  502  0.13918356467E+03  0.71856443721E+02 -0.92033753720E+03  0.93357195521E+03  0.00000000000E+00 0.  1.
         21    1    1    2  505  504 -0.15154331576E+03  0.15201794471E+02 -0.95506311648E+02  0.17977187397E+03  0.00000000000E+00 0.  1.
         21    1    1    2  506  503  0.32526440746E+02 -0.21409318457E+02  0.24064799233E+02  0.45776007105E+02  0.00000000000E+00 0. -1.
<scales pt_clust_3="77.63735" pt_clust_4="14000.00000" pt_clust_5="153.12288" pt_clust_6="38.94006"></scales>
<clustering>
<clus scale="   38.940">  1  6  2 -1</clus>
<clus scale="   77.637">  1  3  2 -1</clus>
<clus scale="  153.123">  1  5  2 -1</clus>
<clus scale="   38.940">  1  3  2 -1</clus>
</clustering>
</event>
<event>
 6    0  0.5563122E+002  0.9211222E+02  0.7546771E-02  0.1297816E+00
         21   -1    0    0  505  501  0.00000000000E+00  0.00000000000E+00  0.29021137696E+04  0.29021137696E+04  0.00000000000E+00 0. -1.
         21   -1    0    0  504  502 -0.00000000000E+00 -0.00000000000E+00 -0.45930642928E+03  0.45930642928E+03  0.00000000000E+00 0.  1.
         21    1    1    2  503  502  0.29941535061E+02  0.30797888116E+02 -0.65291313313E+02  0.78153445402E+02  0.00000000000E+00 0.  1.
         21    1    1    2  504  506  0.83063724387E+01  0.34874365965E+02 -0.17224919071E+03  0.17594033342E+03  0.00000000000E+00 0.  1.
         21    1    1    2  505  503  0.53939525649E+02 -0.68681888316E+02 -0.20379010179E+03  0.22171395941E+03  0.00000000000E+00 0.  1.
         21    1    1    2  506  501 -0.92187433148E+02  0.30096342351E+01  0.28841379462E+04  0.28856124607E+04  0.00000000000E+00 0. -1.
<scales pt_clust_3="50.90728" pt_clust_4="35.84993" pt_clust_5="14000.00000" pt_clust_6="92.11222"></scales>
<clustering>
<clus scale="   35.850">  2  4  1 -1</clus>
<clus scale="   50.907">  2  3  1 -1</clus>
<clus scale="   92.112">  1  6  2 -1</clus>
<clus scale="   92.112">  1  3  2 -1</clus>
</clustering>
</event>
<event>
 6    0  0.1105963E+003  0.1349695E+03  0.7546771E-02  0.1220263E+00
         21   -1    0    0  505  501  0.00000000000E+00  0.00000000000E+00  0.13476844545E+04  0.13476844545E+04  0.00000000000E+00 0. -1.
         21   -1    0    0  504  502 -0.00000000000E+00 -0.00000000000E+00 -0.20579785520E+03  0.20579785520E+03  0.00000000000E+00 0.  1.
         21    1    1    2  503  501 -0.13434289270E+02  0.11267680172E+03  0.12059153712E+04  0.12112425126E+04  0.00000000000E+00 0. -1.
         21    1    1    2  504  503 -0.59214352433E+02 -0.12362352428E+03 -0.16073166202E+03  0.21124341994E+03  0.00000000000E+00 0.  1.
         21    1    1    2  505  506  0.35892039916E+02  0.21845113002E+02  0.77408326338E+02  0.88076651150E+02  0.00000000000E+00 0. -1.
         21    1    1    2  506  502  0.36756601788E+02 -0.10898390438E+02  0.19294563731E+02  0.42919725986E+02  0.00000000000E+00 0.  1.
<scales pt_clust_3="134.96952" pt_clust_4="14000.00000" pt_clust_5="42.73195" pt_clust_6="38.33827"></scales>
<clustering>
<clus scale="   38.338">  2  6  1 -1</clus>
<clus scale="   42.732">  1  5  2 -1</clus>
<clus scale="  134.970">  1  3  2 -1</clus>
<clus scale="   42.732">  1  3  2 -1</clus>
</clustering>
</event>
<event>
 6    0  0.5563122E+002  0.1226915E+03  0.7546771E-02  0.1238722E+00
         21   -1    0    0  506  501  0.00000000000E+00  0.00000000000E+00  0.60450226505E+02  0.60450226505E+02  0.00000000000E+00 0. -1.
         21   -1    0    0  505  502 -0.00000000000E+00 -0.00000000000E+00 -0.12921233407E+04  0.12921233407E+04  0.00000000000E+00 0. -1.
         21    1    1    2  503  504 -0.12686380828E+03  0.15669272246E+03 -0.25256693992E+03  0.32316728526E+03  0.00000000000E+00 0. -1.
         21    1    1    2  504  501  0.94558311150E+02 -0.58232752794E+02 -0.15861904288E+03  0.19362935849E+03  0.00000000000E+00 0. -1.
         21    1    1    2  505  503 -0.33201617396E+02  0.40893334428E+01 -0.11104525881E+03  0.11597465046E+03  0.00000000000E+00 0. -1.
         21    1    1    2  506  502  0.65507114528E+02 -0.10254930311E+03 -0.70944187257E+03  0.71980227297E+03  0.00000000000E+00 0. -1.
<scales pt_clust_3="14000.00000" pt_clust_4="106.52632" pt_clust_5="33.45250" pt_clust_6="122.69150"></scales>
<clustering>
<clus scale="   33.453">  2  5  1 -1</clus>
<clus scale="  106.526">  1  4  2 -1</clus>
<clus scale="  122.692">  2  6  1 -1</clus>
<clus scale="  106.526">  1  3  2 -1</clus>
</clustering>
</event>
<event>
 6    0  0.5563122E+002  0.8167510E+02  0.7546771E-02  0.1324364E+00
         21   -1    0    0  506  501  0.00000000000E+00  0.00000000000E+00  0.48704354247E+02  0.48704354247E+02  0.00000000000E+00 0. -1.
         21   -1    0    0  504  502 -0.00000000000E+00 -0.00000000000E+00 -0.36343824320E+04  0.36343824320E+04  0.00000000000E+00 0. -1.
         21    1    1    2  503  502  0.60692452508E+02 -0.53401245470E+02 -0.33809395628E+04  0.33819059115E+04  0.00000000000E+00 0. -1.
         21    1    1    2  504  501  0.43480932678E+02 -0.11044027984E+02  0.30721840866E+01  0.44966658490E+02  0.00000000000E+00 0. -1.
         21    1    1    2  505  503 -0.77746659886E+02  0.85681514816E+02 -0.15408811850E+03  0.19268890308E+03  0.00000000000E+00 0.  1.
         21    1    1    2  506  505 -0.26426725301E+02 -0.21236241362E+02 -0.53722580524E+02  0.63525313187E+02  0.00000000000E+00 0.  1.
<scales pt_clust_3="81.67510" pt_clust_4="36.81300" pt_clust_5="14000.00000" pt_clust_6="33.90206"></scales>
<clustering>
<clus scale="   33.902">  1  6  2 -1</clus>
<clus scale="   36.813">  1  4  2 -1</clus>
<clus scale="   81.675">  2  3  1 -1</clus>
<clus scale="   33.902">  1  3  2 -1</clus>
</clustering>
</event>
<event>
 6    0  0.5563122E+002  0.1021800E+03  0.7546771E-02  0.1275777E+00
         21   -1    0    0  504  501  0.00000000000E+00  0.00000000000E+00  0.51011470819E+03  0.51011470819E+03  0.00000000000E+00 0.  1.
         21   -1    0    0  505  502 -0.00000000000E+00 -0.00000000000E+00 -0.13250389555E+03  0.13250389555E+03  0.00000000000E+00 0.  1.
         21    1    1    2  503  501  0.25535246233E+00 -0.90412143770E+02  0.29263745688E+03  0.30628598093E+03  0.00000000000E+00 0.  1.
         21    1    1    2  504  502 -0.21933922178E+02 -0.34219313146E+02  0.41281162195E+02  0.57932656477E+02  0.00000000000E+00 0.  1.
         21    1    1    2  505  506 -0.28474915693E+02  0.30277713634E+02 -0.94779805445E+02  0.10349286104E+03  0.00000000000E+00 0.  1.
         21    1    1    2  506  503  0.50153485409E+02  0.94353743282E+02  0.13847199902E+03  0.17490710530E+03  0.00000000000E+00 0.  1.
<scales pt_clust_3="102.17998" pt_clust_4="40.64552" pt_clust_5="41.47195" pt_clust_6="14000.00000"></scales>
<clustering>
<clus scale="   40.646">  1  4  2 -1</clus>
<clus scale="   41.472">  2  5  1 -1</clus>
<clus scale="  102.180">  1  3  2 -1</clus>
<clus scale="   40.646">  1  3  2 -1</clus>
</clustering>
</event>
<event>
 6    0  0.5563122E+002  0.1087181E+03  0.7546771E-02  0.1262962E+00
         21   -1    0    0  505  501  0.00000000000E+00  0.00000000000E+00  0.43566779808E+03  0.43566779808E+03  0.00000000000E+00 0. -1.
         21   -1    0    0  501  502 -0.00000000000E+00 -0.00000000000E+00 -0.13756562764E+03  0.13756562764E+03  0.00000000000E+00 0. -1.
         21    1    1    2  503  504 -0.14611530484E+03  0.56066409340E+02  0.28388151433E+03  0.32416329025E+03  0.00000000000E+00 0. -1.
         21    1    1    2  504  502  0.10343451995E+03  0.24592993785E+02 -0.61319966811E+02  0.12273407672E+03  0.00000000000E+00 0. -1.
         21    1    1    2  505  506  0.37606953602E+02 -0.27129005846E+02  0.25685549890E+02  0.53009559426E+02  0.00000000000E+00 0.  1.
         21    1    1    2  506  503  0.50738312930E+01 -0.53530397279E+02  0.49855073032E+02  0.73326499329E+02  0.00000000000E+00 0. -1.
<scales pt_clust_3="14000.00000" pt_clust_4="108.71810" pt_clust_5="40.76364" pt_clust_6="101.26408"></scales>
<clustering>
<clus scale="   40.764">  5  6 -1 -1</clus>
<clus scale="  101.264">  1  5  2 -1</clus>
<clus scale="  108.718">  2  4  1 -1</clus>
<clus scale="  101.264">  1  3  2 -1</clus>
</clustering>
</event>
<event>
 6    0  0.5563122E+002  0.7304664E+02  0.7546771E-02  0.1350029E+00
         21   -1    0    0  506  501  0.00000000000E+00  0.00000000000E+00  0.29603948127E+03  0.29603948127E+03  0.00000000000E+00 0.  1.
         21   -1    0    0  505  502 -0.00000000000E+00 -0.00000000000E+00 -0.84188457554E+03  0.84188457554E+03  0.00000000000E+00 0. -1.
         21    1    1    2  503  502 -0.54418569781E+02  0.16385139978E+02  0.54598448187E+02  0.78808908720E+02  0.00000000000E+00 0.  1.
         21    1    1    2  504  501  0.88775390540E+02  0.85122106506E+02  0.19004342732E+03  0.22636993451E+03  0.00000000000E+00 0.  1.
         21    1    1    2  505  504 -0.15020920420E+02 -0.71249725152E+02 -0.79338578889E+03  0.79672025291E+03  0.00000000000E+00 0. -1.
         21    1    1    2  506  503 -0.19335900338E+02 -0.30257521332E+02  0.28988191069E+01  0.36024960670E+02  0.00000000000E+00 0.  1.
<scales pt_clust_3="59.77675" pt_clust_4="73.04664" pt_clust_5="14000.00000" pt_clust_6="35.90814"></scales>
<clustering>
<clus scale="   35.908">  1  6  2 -1</clus>
<clus scale="   59.777">  1  3  2 -1</clus>
<clus scale="   73.047">  1  4  2 -1</clus>
<clus scale="   35.908">  1  3  2 -1</clus>
</clustering>
</event>
<event>
 6    0  0.5563122E+002  0.1927282E+03  0.7546771E-02  0.1156023E+00
         21   -1    0    0  502  501  0.00000000000E+00  0.00000000000E+00  0.89588986082E+03  0.89588986082E+03  0.00000000000E+00 0.  1.
         21   -1    0    0  503  502 -0.00000000000E+00 -0.00000000000E+00 -0.32975272859E+03  0.32975272859E+03  0.00000000000E+00 0.  1.
         21    1    1    2  503  506  0.16711090451E+03  0.72087517664E+02 -0.27630292634E+03  0.33085642160E+03  0.00000000000E+00 0.  1.
         21    1    1    2  504  501  0.52653894949E+02  0.14678394784E+02  0.21761405160E+03  0.22437415934E+03  0.00000000000E+00 0.  1.
         21    1    1    2  505  504 -0.11944594903E+03 -0.16939252770E+02  0.29973997534E+03  0.32310729772E+03  0.00000000000E+00 0.  1.
         21    1    1    2  506  505 -0.10031885043E+03 -0.69826659677E+02  0.32508603163E+03  0.34730471076E+03  0.00000000000E+00 0.  1.
<scales pt_clust_3="184.18557" pt_clust_4="54.66158" pt_clust_5="56.37680" pt_clust_6="56.37680"></scales>
<clustering>
<clus scale="   54.662">  1  4  2 -1</clus>
<clus scale="   56.377">  5  6 -1 -1</clus>
<clus scale="  184.186">  2  3  1 -1</clus>
<clus scale="   54.662">  1  3  2 -1</clus>
</clustering>
</event>
<event>
 6    0  0.5563122E+002  0.1642267E+03  0.7546771E-02  0.1184006E+00
         21   -1    0    0  506  501  0.00000000000E+00  0.00000000000E+00  0.53360355550E+03  0.53360355550E+03  0.00000000000E+00 0. -1.
         21   -1    0    0  504  502 -0.00000000000E+00 -0.00000000000E+00 -0.23690107513E+03  0.23690107513E+03  0.00000000000E+00 0. -1.
         21    1    1    2  503  505  0.25305154566E+02 -0.68585081282E+02  0.33461086116E+03  0.34250356586E+03  0.00000000000E+00 0. -1.
         21    1    1    2  504  501 -0.34350278071E+01  0.16069854190E+03 -0.18300126069E+03  0.24356781847E+03  0.00000000000E+00 0. -1.
         21    1    1    2  505  502  0.18675171292E+02 -0.37732480613E+02  0.80099233119E+02  0.90489719097E+02  0.00000000000E+00 0.  1.
         21    1    1    2  506  503 -0.40545298051E+02 -0.54380980002E+02  0.64993646775E+02  0.93943527191E+02  0.00000000000E+00 0. -1.
<scales pt_clust_3="36.08509" pt_clust_4="157.19214" pt_clust_5="36.08509" pt_clust_6="67.83224"></scales>
<clustering>
<clus scale="   36.085">  3  5 -1 -1</clus>
<clus scale="   67.832">  1  6  2 -1</clus>
<clus scale="  157.192">  2  4  1 -1</clus>
<clus scale="   67.832">  1  3  2 -1</clus>
</clustering>
</event>
<event>
 6    0  0.5563122E+002  0.1579823E+03  0.7546771E-02  0.1190994E+00
         21   -1    0    0  505  501  0.00000000000E+00  0.00000000000E+00  0.84897939457E+03  0.84897939457E+03  0.00000000000E+00 0. -1.
         21   -1    0    0  504  502 -0.00000000000E+00 -0.00000000000E+00 -0.71423579479E+03  0.71423579479E+03  0.00000000000E+00 0.  1.
         21    1    1    2  503  502 -0.99253918103E+02  0.10514237272E+03 -0.59538541809E+03  0.61269083139E+03  0.00000000000E+00 0.  1.
         21    1    1    2  504  506 -0.24519600907E+02 -0.19664005941E+02 -0.74630901681E+02  0.80979351960E+02  0.00000000000E+00 0. -1.
         21    1    1    2  505  503  0.10857226661E+03 -0.11499353364E+03  0.81848204340E+03  0.83362120008E+03  0.00000000000E+00 0. -1.
         21    1    1    2  506  501  0.15201252400E+02  0.29515166861E+02 -0.13722123850E+02  0.35923805928E+02  0.00000000000E+00 0.  1.
<scales pt_clust_3="157.98226" pt_clust_4="31.43062" pt_clust_5="14000.00000" pt_clust_6="32.08390"></scales>
<clustering>
<clus scale="   31.431">  2  4  1 -1</clus>
<clus scale="   32.084">  2  6  1 -1</clus>
<clus scale="  157.982">  2  3  1 -1</clus>
<clus scale="  157.982">  1  3  2 -1</clus>
</clustering>
</event>
<event>
 6    0  0.5563122E+002  0.9490820E+02  0.7546771E-02  0.1291383E+00
         21   -1    0    0  503  501  0.00000000000E+00  0.00000000000E+00  0.41054162066E+03  0.41054162066E+03  0.00000000000E+00 0.  1.
         21   -1    0    0  505  502 -0.00000000000E+00 -0.00000000000E+00 -0.14270111739E+03  0.14270111739E+03  0.00000000000E+00 0. -1.
         21    1    1    2  503  504 -0.33397952813E+02 -0.13948762431E+02  0.27147469849E+02  0.45243522682E+02  0.00000000000E+00 0. -1.
         21    1    1    2  504  502 -0.83792339021E+02 -0.49695735310E+02 -0.61763397435E+02  0.11534964001E+03  0.00000000000E+00 0. -1.
         21    1    1    2  505  506  0.92142406848E+02  0.17639331365E+02  0.86538010108E+01  0.94213891878E+02  0.00000000000E+00 0. -1.
         21    1    1    2  506  501  0.25047884986E+02  0.46005166376E+02  0.29380262984E+03  0.29843568348E+03  0.00000000000E+00 0.  1.
<scales pt_clust_3="36.19380" pt_clust_4="14000.00000" pt_clust_5="94.90820" pt_clust_6="34.99813"></scales>
<clustering>
<clus scale="   36.194">  1  3  2 -1</clus>
<clus scale="   34.998">  1  6  2 -1</clus>
<clus scale="   94.908">  1  5  2 -1</clus>
<clus scale="   36.194">  1  3  2 -1</clus>
</clustering>
</event>
<event>
 6    0  0.5563122E+002  0.9594602E+02  0.7546771E-02  0.1289060E+00
         21   -1    0    0  504  501  0.00000000000E+00  0.00000000000E+00  0.21756208784E+03  0.21756208784E+03  0.00000000000E+00 0.  1.
         21   -1    0    0  505  502 -0.00000000000E+00 -0.00000000000E+00 -0.67831816641E+03  0.67831816641E+03  0.00000000000E+00 0.  1.
         21    1    1    2  503  502 -0.49953315210E+02  0.43256271253E+02 -0.12241775394E+03  0.13911342560E+03  0.00000000000E+00 0.  1.
         21    1    1    2  504  503  0.36749072115E+02  0.14280774771E+02  0.18120468970E+03  0.18544426224E+03  0.00000000000E+00 0.  1.
         21    1    1    2  505  506 -0.54755526061E+02 -0.89524311030E+02 -0.46945731518E+03  0.48104359540E+03  0.00000000000E+00 0.  1.
         21    1    1    2  506  501  0.67959769157E+02  0.31987265005E+02 -0.50085699155E+02  0.90278971008E+02  0.00000000000E+00 0.  1.
<scales pt_clust_3="62.16830" pt_clust_4="39.42632" pt_clust_5="95.94602" pt_clust_6="14000.00000"></scales>
<clustering>
<clus scale="   39.426">  1  4  2 -1</clus>
<clus scale="   62.168">  1  3  2 -1</clus>
<clus scale="   95.946">  2  5  1 -1</clus>
<clus scale="   39.426">  1  3  2 -1</clus>
</clustering>
</event>
<event>
 6    0  0.5563122E+002  0.1068722E+03  0.7546771E-02  0.1266474E+00
         21   -1    0    0  506  501  0.00000000000E+00  0.00000000000E+00  0.90620379709E+02  0.90620379709E+02  0.00000000000E+00 0. -1.
         21   -1    0    0  503  502 -0.00000000000E+00 -0.00000000000E+00 -0.25604985242E+03  0.25604985242E+03  0.00000000000E+00 0. -1.
         21    1    1    2  503  504  0.53999270687E+02 -0.88815194946E+02 -0.62443489318E+02  0.12125695628E+03  0.00000000000E+00 0. -1.
         21    1    1    2  504  501  0.21741239406E+02  0.39245329703E+02 -0.26345018532E+02  0.52028236525E+02  0.00000000000E+00 0. -1.
         21    1    1    2  505  502 -0.75335827193E+02  0.80989057336E+02 -0.86539003998E+02  0.14044113885E+03  0.00000000000E+00 0. -1.
         21    1    1    2  506  505 -0.40468289950E+00 -0.31419192093E+02  0.98980391380E+01  0.32943900480E+02  0.00000000000E+00 0. -1.
<scales pt_clust_3="106.87225" pt_clust_4="39.82420" pt_clust_5="14000.00000" pt_clust_6="31.42180"></scales>
<clustering>
<clus scale="   31.422">  1  6  2 -1</clus>
<clus scale="   39.824">  1  4  2 -1</clus>
<clus scale="  106.872">  1  3  2 -1</clus>
<clus scale="   31.422">  1  3  2 -1</clus>
</clustering>
</event>
<event>
 6    0  0.5563122E+002  0.5878721E+02  0.7546771E-02  0.1402993E+00
         21   -1    0    0  503  501  0.00000000000E+00  0.00000000000E+00  0.52285856481E+03  0.52285856481E+03  0.00000000000E+00 0. -1.
         21   -1    0    0  506  502 -0.00000000000E+00 -0.00000000000E+00 -0.64437317462E+02  0.64437317462E+02  0.00000000000E+00 0.  1.
         21    1    1    2  503  505 -0.85985605640E+01  0.50623072316E+02  0.26898471796E+03  0.27384194198E+03  0.00000000000E+00 0. -1.
         21    1    1    2  504  501  0.11949004678E+02 -0.10153886708E+03  0.17048489848E+03  0.19879140034E+03  0.00000000000E+00 0.  1.
         21    1    1    2  505  502  0.34086976808E+02  0.50501452764E+02 -0.16476775793E+02  0.63117373675E+02  0.00000000000E+00 0.  1.
         21    1    1    2  506  504 -0.37437420922E+02  0.41434199550E+00  0.35428406703E+02  0.51545166273E+02  0.00000000000E+00 0.  1.
<scales pt_clust_3="58.78721" pt_clust_4="14000.00000" pt_clust_5="51.36833" pt_clust_6="37.43971"></scales>
<clustering>
<clus scale="   37.440">  2  6  1 -1</clus>
<clus scale="   51.368">  2  5  1 -1</clus>
<clus scale="   58.787">  1  3  2 -1</clus>
<clus scale="   58.787">  1  3  2 -1</clus>
</clustering>
</event>
<event>
 6    0  0.5563122E+002  0.7008885E+02  0.7546771E-02  0.1359791E+00
         21   -1    0    0  504  501  0.00000000000E+00  0.00000000000E+00  0.77595248208E+03  0.77595248208E+03  0.00000000000E+00 0. -1.
         21   -1    0    0  505  502 -0.00000000000E+00 -0.00000000000E+00 -0.17135016817E+03  0.17135016817E+03  0.00000000000E+00 0.  1.
         21    1    1    2  503  506  0.70256206068E+02 -0.86781198577E+01  0.48323503470E+02  0.85711173384E+02  0.00000000000E+00 0.  1.
         21    1    1    2  504  503 -0.49722280322E+02  0.12615044632E+02  0.22095189382E+03  0.22682853413E+03  0.00000000000E+00 0. -1.
         21    1    1    2  505  501  0.17604754120E+02  0.55162744922E+02  0.47492725059E+03  0.47844409197E+03  0.00000000000E+00 0. -1.
         21    1    1    2  506  502 -0.38138679866E+02 -0.59099669696E+02 -0.13960033397E+03  0.15631885076E+03  0.00000000000E+00 0.  1.
<scales pt_clust_3="64.61663" pt_clust_4="51.29761" pt_clust_5="70.08885" pt_clust_6="14000.00000"></scales>
<clustering>
<clus scale="   51.298">  1  4  2 -1</clus>
<clus scale="   64.617">  1  3  2 -1</clus>
<clus scale="   70.089">  1  5  2 -1</clus>
<clus scale="   51.298">  1  3  2 -1</clus>
</clustering>
</event>
<event>
 6    0  0.5563122E+002  0.9514926E+02  0.7546771E-02  0.1290840E+00
         21   -1    0    0  504  501  0.00000000000E+00  0.00000000000E+00  0.13835144353E+03  0.13835144353E+03  0.00000000000E+00 0. -1.
         21   -1    0    0  505  502 -0.00000000000E+00 -0.00000000000E+00 -0.55781338452E+03  0.55781338452E+03  0.00000000000E+00 0.  1.
         21    1    1    2  503  502 -0.79655609380E+01  0.56728746922E+02 -0.15116171307E+03  0.16165229472E+03  0.00000000000E+00 0.  1.
         21    1    1    2  504  506  0.77175245993E+02  0.69432481782E+01  0.10792000088E+03  0.13285689248E+03  0.00000000000E+00 0. -1.
         21    1    1    2  505  501 -0.35744311400E+02 -0.87519748023E+02 -0.30626289821E+03  0.32052195699E+03  0.00000000000E+00 0.  1.
         21    1    1    2  506  503 -0.33465373655E+02  0.23847752923E+02 -0.69957330588E+02  0.81133683857E+02  0.00000000000E+00 0.  1.
<scales pt_clust_3="36.35332" pt_clust_4="77.48695" pt_clust_5="84.91806" pt_clust_6="36.35332"></scales>
<clustering>
<clus scale="   36.353">  3  6 -1 -1</clus>
<clus scale="   77.487">  1  4  2 -1</clus>
<clus scale="   84.918">  2  5  1 -1</clus>
<clus scale="   77.487">  1  3  2 -1</clus>
</clustering>
</event>
<event>
 6    0  0.5563122E+002  0.9853389E+02  0.7546771E-02  0.1283410E+00
         21   -1    0    0  503  501  0.00000000000E+00  0.00000000000E+00  0.13095503065E+04  0.13095503065E+04  0.00000000000E+00 0. -1.
         21   -1    0    0  505  502 -0.00000000000E+00 -0.00000000000E+00 -0.22735248598E+02  0.22735248598E+02  0.00000000000E+00 0. -1.
         21    1    1    2  503  502  0.10199568940E+03 -0.13800169798E+02  0.61143929595E+03  0.62004159374E+03  0.00000000000E+00 0. -1.
         21    1    1    2  504  506  0.64519759761E+01 -0.54083433417E+02  0.11459753612E+03  0.12688278468E+03  0.00000000000E+00 0. -1.
         21    1    1    2  505  504 -0.32844107926E+02 -0.38154421513E+01  0.30634463438E+02  0.45075085961E+02  0.00000000000E+00 0. -1.
         21    1    1    2  506  501 -0.75603557455E+02  0.71699045367E+02  0.53014376244E+03  0.54028609076E+03  0.00000000000E+00 0. -1.
<scales pt_clust_3="98.53389" pt_clust_4="55.97874" pt_clust_5="33.06498" pt_clust_6="14000.00000"></scales>
<clustering>
<clus scale="   33.065">  2  5  1 -1</clus>
<clus scale="   55.979">  2  4  1 -1</clus>
<clus scale="   98.534">  1  3  2 -1</clus>
<clus scale="   98.534">  1  3  2 -1</clus>
</clustering>
</event>
<event>
 6    0  0.5563122E+002  0.1888310E+03  0.7546771E-02  0.1159520E+00
         21   -1    0    0  503  501  0.00000000000E+00  0.00000000000E+00  0.95927475189E+03  0.95927475189E+03  0.00000000000E+00 0.  1.
         21   -1    0    0  506  502 -0.00000000000E+00 -0.00000000000E+00 -0.14154757821E+04  0.14154757821E+04  0.00000000000E+00 0.  1.
         21    1    1    2  503  504  0.41089988661E+02  0.84610763267E+01  0.25721026284E+03  0.26060908712E+03  0.00000000000E+00 0.  1.
         21    1    1    2  504  505  0.89734507314E+02 -0.14658265771E+03  0.67165240724E+03  0.69329338197E+03  0.00000000000E+00 0.  1.
         21    1    1    2  505  502 -0.16997028557E+02  0.82578994067E+02 -0.10558669242E+03  0.13511750019E+03  0.00000000000E+00 0.  1.
         21    1    1    2  506  501 -0.11382746742E+03  0.55542587313E+02 -0.12794770079E+04  0.12857305647E+04  0.00000000000E+00 0.  1.
<scales pt_clust_3="41.95208" pt_clust_4="188.83096" pt_clust_5="84.31479" pt_clust_6="14000.00000"></scales>
<clustering>
<clus scale="   41.952">  1  3  2 -1</clus>
<clus scale="   84.315">  2  5  1 -1</clus>
<clus scale="  188.831">  1  4  2 -1</clus>
<clus scale="   41.952">  1  3  2 -1</clus>
</clustering>
</event>
<event>
 6    0  0.5563122E+002  0.2137205E+03  0.7546771E-02  0.1138653E+00
         21   -1    0    0  504  501  0.00000000000E+00  0.00000000000E+00  0.32029132765E+03  0.32029132765E+03  0.00000000000E+00 0. -1.
         21   -1    0    0  506  502 -0.00000000000E+00 -0.00000000000E+00 -0.55283379958E+03  0.55283379958E+03  0.00000000000E+00 0. -1.
         21    1    1    2  503  501 -0.59959161623E+02 -0.54654969756E+02  0.17025408853E+02  0.82898319212E+02  0.00000000000E+00 0.  1.
         21    1    1    2  504  505 -0.16161919941E+03  0.40293976534E+02  0.18337315676E+03  0.24772986251E+03  0.00000000000E+00 0. -1.
         21    1    1    2  505  502 -0.16789222489E+02  0.33200828136E+02 -0.21745449545E+03  0.22061421208E+03  0.00000000000E+00 0. -1.
         21    1    1    2  506  503  0.23836758352E+03 -0.18839834914E+02 -0.21548654209E+03  0.32188273342E+03  0.00000000000E+00 0. -1.
<scales pt_clust_3="80.22659" pt_clust_4="213.72052" pt_clust_5="37.20448" pt_clust_6="14000.00000"></scales>
<clustering>
<clus scale="   37.204">  2  5  1 -1</clus>
<clus scale="   80.227">  1  3  2 -1</clus>
<clus scale="  213.721">  1  4  2 -1</clus>
<clus scale="   80.227">  1  3  2 -1</clus>
</clustering>
</event>
<event>
 6    0  0.5563122E+002  0.1429293E+03  0.7546771E-02  0.1209441E+00
         21   -1    0    0  504  501  0.00000000000E+00  0.00000000000E+00  0.44890983796E+02  0.44890983796E+02  0.00000000000E+00 0.  1.
         21   -1    0    0  503  502 -0.00000000000E+00 -0.00000000000E+00 -0.59998326768E+03  0.59998326768E+03  0.00000000000E+00 0.  1.
         21    1    1    2  503  506  0.15158142421E+02  0.34825977623E+02 -0.90920857884E+02  0.98535376375E+02  0.00000000000E+00 0. -1.
         21    1    1    2  504  502 -0.14587596602E+03 -0.23731921283E+02 -0.27946313332E+03  0.31613706589E+03  0.00000000000E+00 0.  1.
         21    1    1    2  505  501  0.53354892828E+02 -0.19216852374E+02 -0.55274762766E+02  0.79191738222E+02  0.00000000000E+00 0.  1.
         21    1    1    2  506  505  0.77362930767E+02  0.81227960339E+01 -0.12943352992E+03  0.15101007099E+03  0.00000000000E+00 0.  1.
<scales pt_clust_3="37.98181" pt_clust_4="136.97918" pt_clust_5="34.84533" pt_clust_6="34.84533"></scales>
<clustering>
<clus scale="   34.845">  5  6 -1 -1</clus>
<clus scale="   37.982">  2  3  1 -1</clus>
<clus scale="  136.979">  2  4  1 -1</clus>
<clus scale="  142.929">  1  3  2 -1</clus>
</clustering>
</event>
<event>
 6    0  0.5563122E+002  0.8478572E+02  0.7546771E-02  0.1315994E+00
         21   -1    0    0  505  501  0.00000000000E+00  0.00000000000E+00  0.20202390486E+03  0.20202390486E+03  0.00000000000E+00 0. -1.
         21   -1    0    0  506  502 -0.00000000000E+00 -0.00000000000E+00 -0.11150107857E+04  0.11150107857E+04  0.00000000000E+00 0. -1.
         21    1    1    2  503  504 -0.10031220927E+03 -0.15530568334E+02 -0.26771682561E+03  0.28631457629E+03  0.00000000000E+00 0. -1.
         21    1    1    2  504  502  0.35311654475E+02 -0.66990985588E+00 -0.77216545503E+03  0.77297273669E+03  0.00000000000E+00 0. -1.
         21    1    1    2  505  503  0.20139506882E+02  0.87609548453E+02  0.14583528598E+03  0.17131539147E+03  0.00000000000E+00 0. -1.
         21    1    1    2  506  501  0.44861047914E+02 -0.71409070263E+02 -0.18939886184E+02  0.86431986118E+02  0.00000000000E+00 0. -1.
<scales pt_clust_3="73.52531" pt_clust_4="35.31801" pt_clust_5="84.78572" pt_clust_6="14000.00000"></scales>
<clustering>
<clus scale="   35.318">  2  4  1 -1</clus>
<clus scale="   73.525">  2  3  1 -1</clus>
<clus scale="   84.786">  1  5  2 -1</clus>
<clus scale="   84.786">  1  3  2 -1</clus>
</clustering>
</event>
<event>
 6    0  0.5563122E+002  0.3175554E+03  0.7546771E-02  0.1076780E+00
         21   -1    0    0  503  501  0.00000000000E+00  0.00000000000E+00  0.15104486808E+03  0.15104486808E+03  0.00000000000E+00 0. -1.
         21   -1    0    0  505  502 -0.00000000000E+00 -0.00000000000E+00 -0.14165355720E+04  0.14165355720E+04  0.00000000000E+00 0. -1.
         21    1    1    2  503  502  0.51494751162E+02  0.11606176660E+03 -0.21021684640E+03  0.24558738888E+03  0.00000000000E+00 0. -1.
         21    1    1    2  504  501 -0.38007060015E+02 -0.67518667079E+02 -0.15123061513E+02  0.78943106125E+02  0.00000000000E+00 0. -1.
         21    1    1    2  505  506 -0.29229193318E+03 -0.14964481221E+03 -0.78834661597E+03  0.85400148181E+03  0.00000000000E+00 0. -1.
         21    1    1    2  506  504  0.27880424203E+03  0.10110171269E+03 -0.25180417999E+03  0.38904846324E+03  0.00000000000E+00 0. -1.
<scales pt_clust_3="115.52790" pt_clust_4="77.48101" pt_clust_5="317.55535" pt_clust_6="14000.00000"></scales>
<clustering>
<clus scale="   77.481">  1  4  2 -1</clus>
<clus scale="  115.528">  1  3  2 -1</clus>
<clus scale="  317.555">  2  5  1 -1</clus>
<clus scale="   77.481">  1  3  2 -1</clus>
</clustering>
</event>
<event>
 6    0  0.5563122E+002  0.1122052E+03  0.7546771E-02  0.1256540E+00
         21   -1    0    0  504  501  0.00000000000E+00  0.00000000000E+00  0.49146976430E+03  0.49146976430E+03  0.00000000000E+00 0.  1.
         21   -1    0    0  506  502 -0.00000000000E+00 -0.00000000000E+00 -0.16846942732E+04  0.16846942732E+04  0.00000000000E+00 0. -1.
         21    1    1    2  503  502  0.37395457732E+02 -0.32828973281E+02 -0.15942007612E+03  0.16700575564E+03  0.00000000000E+00 0.  1.
         21    1    1    2  504  505  0.10308230941E+02 -0.52217155997E+02  0.43872074154E+03  0.44193752959E+03  0.00000000000E+00 0.  1.
         21    1    1    2  505  503 -0.66640037369E+02  0.14737582965E+03 -0.93831565815E+02  0.18698901702E+03  0.00000000000E+00 0. -1.
         21    1    1    2  506  501  0.18936348696E+02 -0.62329700368E+02 -0.13786936085E+04  0.13802317352E+04  0.00000000000E+00 0. -1.
<scales pt_clust_3="49.76105" pt_clust_4="53.26662" pt_clust_5="112.20518" pt_clust_6="14000.00000"></scales>
<clustering>
<clus scale="   49.761">  2  3  1 -1</clus>
<clus scale="   53.267">  1  4  2 -1</clus>
<clus scale="  112.205">  1  5  2 -1</clus>
<clus scale="   53.267">  1  3  2 -1</clus>
</clustering>
</event>
<event>
 6    0  0.5563122E+002  0.1649524E+03  0.7546771E-02  0.1183216E+00
         21   -1    0    0  503  501  0.00000000000E+00  0.00000000000E+00  0.12690616481E+04  0.12690616481E+04  0.00000000000E+00 0.  1.
         21   -1    0    0  505  502 -0.00000000000E+00 -0.00000000000E+00 -0.11238158648E+03  0.11238158648E+03  0.00000000000E+00 0.  1.
         21    1    1    2  503  504  0.42423230761E+02  0.80117792851E+02  0.23190368716E+03  0.24899379783E+03  0.00000000000E+00 0.  1.
         21    1    1    2  504  502  0.43153631923E+02  0.24832925395E+01  0.65609584051E+01  0.43720119684E+02  0.00000000000E+00 0. -1.
         21    1    1    2  505  506  0.64880782209E+02 -0.13742239878E+03 -0.46836703179E+01  0.15204067993E+03  0.00000000000E+00 0.  1.
         21    1    1    2  506  501 -0.15045764489E+03  0.54821313386E+02  0.92289908639E+03  0.93668863715E+03  0.00000000000E+00 0.  1.
<scales pt_clust_3="92.75715" pt_clust_4="43.22502" pt_clust_5="164.95242" pt_clust_6="14000.00000"></scales>
<clustering>
<clus scale="   43.225">  2  4  1 -1</clus>
<clus scale="   92.757">  1  3  2 -1</clus>
<clus scale="  164.952">  2  5  1 -1</clus>
<clus scale="   92.757">  1  3  2 -1</clus>
</clustering>
</event>
<event>
 6    0  0.5563122E+002  0.9977607E+02  0.7546771E-02  0.1280768E+00
         21   -1    0    0  503  501  0.00000000000E+00  0.00000000000E+00  0.42370035067E+03  0.42370035067E+03  0.00000000000E+00 0.  1.
         21   -1    0    0  505  502 -0.00000000000E+00 -0.00000000000E+00 -0.21679220655E+03  0.21679220655E+03  0.00000000000E+00 0.  1.
         21    1    1    2  503  504 -0.55691751210E+02  0.32744672855E+02 -0.22850603715E+02  0.68526891388E+02  0.00000000000E+00 0.  1.
         21    1    1    2  504  502 -0.30272038467E+02  0.20617091075E+02 -0.13765029420E+03  0.14243968636E+03  0.00000000000E+00 0.  1.
         21    1    1    2  505  506 -0.21496467417E+02 -0.55493632851E+02  0.15397793297E+02  0.61471403407E+02  0.00000000000E+00 0. -1.
         21    1    1    2  506  501  0.10746025709E+03  0.21318689210E+01  0.35201124874E+03  0.36805457606E+03  0.00000000000E+00 0.  1.
<scales pt_clust_3="99.77607" pt_clust_4="36.62596" pt_clust_5="58.01998" pt_clust_6="14000.00000"></scales>
<clustering>
<clus scale="   36.626">  2  4  1 -1</clus>
<clus scale="   58.020">  2  5  1 -1</clus>
<clus scale="   99.776">  2  3  1 -1</clus>
<clus scale="   99.776">  1  3  2 -1</clus>
</clustering>
</event>
<event>
 6    0  0.5563122E+002  0.2247100E+03  0.7546771E-02  0.1130419E+00
         21   -1    0    0  503  501  0.00000000000E+00  0.00000000000E+00  0.49747957979E+03  0.49747957979E+03  0.00000000000E+00 0. -1.
         21   -1    0    0  504  502 -0.00000000000E+00 -0.00000000000E+00 -0.10261425154E+04  0.10261425154E+04  0.00000000000E+00 0.  1.
         21    1    1    2  503  505  0.32840007725E+02 -0.50263980826E+02  0.39012724389E+03  0.39472040776E+03  0.00000000000E+00 0. -1.
         21    1    1    2  504  501 -0.30262786991E+02  0.19740582862E+02 -0.20274262554E+03  0.20593712414E+03  0.00000000000E+00 0.  1.
         21    1    1    2  505  506 -0.63794950532E+02 -0.18307987269E+03 -0.23082185300E+02  0.19524554483E+03  0.00000000000E+00 0. -1.
         21    1    1    2  506  502  0.61217729798E+02  0.21360327065E+03 -0.69296536867E+03  0.72771901847E+03  0.00000000000E+00 0.  1.
<scales pt_clust_3="59.94868" pt_clust_4="36.13208" pt_clust_5="224.71000" pt_clust_6="14000.00000"></scales>
<clustering>
<clus scale="   36.132">  2  4  1 -1</clus>
<clus scale="   59.949">  1  3  2 -1</clus>
<clus scale="  224.710">  1  5  2 -1</clus>
<clus scale="   59.949">  1  3  2 -1</clus>
</clustering>
</event>
<event>
 6    0  0.5563122E+002  0.3214430E+03  0.7546771E-02  0.1074987E+00
         21   -1    0    0  505  501  0.00000000000E+00  0.00000000000E+00  0.81379152562E+03  0.81379152562E+03  0.00000000000E+00 0.  1.
         21   -1    0    0  503  502 -0.00000000000E+00 -0.00000000000E+00 -0.28880737866E+03  0.28880737866E+03  0.00000000000E+00 0. -1.
         21    1    1    2  503  501  0.21513941678E+03  0.23295074207E+03 -0.13268289277E+03  0.34373793349E+03  0.00000000000E+00 0. -1.
         21    1    1    2  504  502 -0.12651245497E+03 -0.15686193993E+03  0.39179021105E+03  0.44057988939E+03  0.00000000000E+00 0.  1.
         21    1    1    2  505  506 -0.71685580007E+02  0.22263068865E+02  0.10881507227E+03  0.13219374633E+03  0.00000000000E+00 0.  1.
         21    1    1    2  506  504 -0.16941381805E+02 -0.98351871007E+02  0.15706175641E+03  0.18608733507E+03  0.00000000000E+00 0.  1.
<scales pt_clust_3="312.35459" pt_clust_4="53.41029" pt_clust_5="75.06308" pt_clust_6="53.41029"></scales>
<clustering>
<clus scale="   53.410">  4  6 -1 -1</clus>
<clus scale="   75.063">  1  5  2 -1</clus>
<clus scale="  312.355">  2  3  1 -1</clus>
<clus scale="   75.063">  1  3  2 -1</clus>
</clustering>
</event>
<event>
 6    0  0.5563122E+002  0.8619423E+02  0.7546771E-02  0.1312339E+00
         21   -1    0    0  503  501  0.00000000000E+00  0.00000000000E+00  0.70204250335E+02  0.70204250335E+02  0.00000000000E+00 0. -1.
         21   -1    0    0  506  502 -0.00000000000E+00 -0.00000000000E+00 -0.15628580688E+04  0.15628580688E+04  0.00000000000E+00 0. -1.
         21    1    1    2  503  504 -0.37346788500E+01  0.39916848576E+02  0.35587194075E+02  0.53607378303E+02  0.00000000000E+00 0. -1.
         21    1    1    2  504  505 -0.58360229282E+02  0.15849835279E+02 -0.11639830041E+03  0.13117049203E+03  0.00000000000E+00 0. -1.
         21    1    1    2  505  502 -0.41218340119E+02  0.16719962040E+02 -0.12060834451E+04  0.12069033868E+04  0.00000000000E+00 0. -1.
         21    1    1    2  506  501  0.10331324825E+03 -0.72486645895E+02 -0.20575926711E+03  0.24138106201E+03  0.00000000000E+00 0. -1.
<scales pt_clust_3="40.09118" pt_clust_4="86.19423" pt_clust_5="44.77969" pt_clust_6="14000.00000"></scales>
<clustering>
<clus scale="   40.091">  1  3  2 -1</clus>
<clus scale="   44.780">  2  5  1 -1</clus>
<clus scale="   86.194">  1  4  2 -1</clus>
<clus scale="   40.091">  1  3  2 -1</clus>
</clustering>
</event>
<event>
 6    0  0.5563122E+002  0.1038186E+03  0.7546771E-02  0.1272465E+00
         21   -1    0    0  504  501  0.00000000000E+00  0.00000000000E+00  0.28869944159E+03  0.28869944159E+03  0.00000000000E+00 0. -1.
         21   -1    0    0  503  502 -0.00000000000E+00 -0.00000000000E+00 -0.46024377514E+03  0.46024377514E+03  0.00000000000E+00 0.  1.
         21    1    1    2  503  506 -0.91969502174E+02  0.11772706736E+03  0.26899320564E+02  0.15179468096E+03  0.00000000000E+00 0. -1.
         21    1    1    2  504  505  0.30054093515E+02 -0.10884031193E+02  0.15375130898E+02  0.35469780407E+02  0.00000000000E+00 0. -1.
         21    1    1    2  505  502  0.33209190787E+02 -0.37107279151E+02 -0.37786321153E+03  0.38113043324E+03  0.00000000000E+00 0.  1.
         21    1    1    2  506  501  0.28706217872E+02 -0.69735757020E+02  0.16404442651E+03  0.18054832212E+03  0.00000000000E+00 0. -1.
<scales pt_clust_3="103.81858" pt_clust_4="31.96421" pt_clust_5="49.97237" pt_clust_6="14000.00000"></scales>
<clustering>
<clus scale="   31.964">  1  4  2 -1</clus>
<clus scale="   49.972">  2  5  1 -1</clus>
<clus scale="  103.819">  2  3  1 -1</clus>
<clus scale="   31.964">  1  3  2 -1</clus>
</clustering>
</event>
<event>
 6    0  0.5563122E+002  0.7483867E+02  0.7546771E-02  0.1344371E+00
         21   -1    0    0  506  501  0.00000000000E+00  0.00000000000E+00  0.20637829701E+04  0.20637829701E+04  0.00000000000E+00 0. -1.
         21   -1    0    0  505  502 -0.00000000000E+00 -0.00000000000E+00 -0.17441262306E+03  0.17441262306E+03  0.00000000000E+00 0. -1.
         21    1    1    2  503  502 -0.11545042368E+03 -0.52191130468E+02  0.92918162399E+03  0.93777993409E+03  0.00000000000E+00 0. -1.
         21    1    1    2  504  501  0.55086365297E+02  0.16158152661E+02  0.26195910060E+03  0.26817562142E+03  0.00000000000E+00 0. -1.
         21    1    1    2  505  504  0.72820879077E+02 -0.16183828688E+02 -0.15779199165E+03  0.17453684244E+03  0.00000000000E+00 0. -1.
         21    1    1    2  506  503 -0.12456820690E+02  0.52216806495E+02  0.85602161414E+03  0.85770319525E+03  0.00000000000E+00 0. -1.
<scales pt_clust_3="74.83867" pt_clust_4="59.19279" pt_clust_5="14000.00000" pt_clust_6="53.68209"></scales>
<clustering>
<clus scale="   53.682">  1  6  2 -1</clus>
<clus scale="   59.193">  1  4  2 -1</clus>
<clus scale="   74.839">  1  3  2 -1</clus>
<clus scale="   53.682">  1  3  2 -1</clus>
</clustering>
</event>
<event>
 6    0  0.5563122E+002  0.1496723E+03  0.7546771E-02  0.1200876E+00
         21   -1    0    0  503  501  0.00000000000E+00  0.00000000000E+00  0.67578756486E+03  0.67578756486E+03  0.00000000000E+00 0. -1.
         21   -1    0    0  505  502 -0.00000000000E+00 -0.00000000000E+00 -0.14972548822E+03  0.14972548822E+03  0.00000000000E+00 0.  1.
         21    1    1    2  503  506 -0.10850763277E+03 -0.10118698159E+03  0.55268745428E+03  0.57225530467E+03  0.00000000000E+00 0. -1.
         21    1    1    2  504  501  0.12071686777E+03  0.11150747904E+03 -0.48447674784E+02  0.17132909046E+03  0.00000000000E+00 0.  1.
         21    1    1    2  505  504 -0.24758792868E+01  0.31586689126E+02  0.22568198984E+02  0.38899518167E+02  0.00000000000E+00 0.  1.
         21    1    1    2  506  502 -0.97333557183E+01 -0.41907186579E+02 -0.74590183863E+00  0.43029139778E+02  0.00000000000E+00 0.  1.
<scales pt_clust_3="14000.00000" pt_clust_4="149.67229" pt_clust_5="31.68357" pt_clust_6="38.38054"></scales>
<clustering>
<clus scale="   31.684">  2  5  1 -1</clus>
<clus scale="   38.381">  2  6  1 -1</clus>
<clus scale="  149.672">  2  4  1 -1</clus>
<clus scale="  149.672">  1  3  2 -1</clus>
</clustering>
</event>
<event>
 6    0  0.5563122E+002  0.1733749E+03  0.7546771E-02  0.1174373E+00
         21   -1    0    0  504  501  0.00000000000E+00  0.00000000000E+00  0.13692768415E+03  0.13692768415E+03  0.00000000000E+00 0. -1.
         21   -1    0    0  505  502 -0.00000000000E+00 -0.00000000000E+00 -0.25672808275E+03  0.25672808275E+03  0.00000000000E+00 0. -1.
         21    1    1    2  503  506  0.38618895506E+02 -0.18122833338E+02 -0.48917405111E+02  0.64905844892E+02  0.00000000000E+00 0. -1.
         21    1    1    2  504  502 -0.12914727037E+03  0.92468128759E+02 -0.17686243649E+02  0.15981919626E+03  0.00000000000E+00 0. -1.
         21    1    1    2  505  503  0.21301361901E+02  0.22446508197E+02 -0.37935383279E+02  0.48955970561E+02  0.00000000000E+00 0.  1.
         21    1    1    2  506  501  0.69227012964E+02 -0.96791803618E+02 -0.15261366568E+02  0.11997475518E+03  0.00000000000E+00 0. -1.
<scales pt_clust_3="45.19184" pt_clust_4="157.58510" pt_clust_5="30.94501" pt_clust_6="45.19184"></scales>
<clustering>
<clus scale="   30.945">  2  5  1 -1</clus>
<clus scale="   45.192">  3  6 -1 -1</clus>
<clus scale="  157.585">  1  4  2 -1</clus>
<clus scale="  157.585">  1  3  2 -1</clus>
</clustering>
</event>
<event>
 6    0  0.5563122E+002  0.3296989E+03  0.7546771E-02  0.1071270E+00
         21   -1    0    0  503  501  0.00000000000E+00  0.00000000000E+00  0.21275975840E+03  0.21275975840E+03  0.00000000000E+00 0. -1.
         21   -1    0    0  506  502 -0.00000000000E+00 -0.00000000000E+00 -0.13544104100E+04  0.13544104100E+04  0.00000000000E+00 0. -1.
         21    1    1    2  503  504  0.14612455796E+03  0.23315226696E+03 -0.22711559003E+03  0.35678264709E+03  0.00000000000E+00 0. -1.
         21    1    1    2  504  505  0.25593420797E+03 -0.11913978294E+02 -0.35879351322E+03  0.44088212350E+03  0.00000000000E+00 0. -1.
         21    1    1    2  505  502 -0.45981763823E+02  0.22234982691E+02 -0.21162888486E+03  0.21770508025E+03  0.00000000000E+00 0.  1.
         21    1    1    2  506  501 -0.35607700211E+03 -0.24347327136E+03 -0.34411266350E+03  0.55180031758E+03  0.00000000000E+00 0. -1.
<scales pt_clust_3="329.69887" pt_clust_4="239.83845" pt_clust_5="51.07560" pt_clust_6="14000.00000"></scales>
<clustering>
<clus scale="   51.076">  2  5  1 -1</clus>
<clus scale="  239.838">  2  4  1 -1</clus>
<clus scale="  329.699">  1  3  2 -1</clus>
<clus scale="  329.699">  1  3  2 -1</clus>
</clustering>
</event>
<event>
 6    0  0.5563122E+002  0.1289493E+03  0.7546771E-02  0.1229023E+00
         21   -1    0    0  503  501  0.00000000000E+00  0.00000000000E+00  0.11443585814E+04  0.11443585814E+04  0.00000000000E+00 0. -1.
         21   -1    0    0  506  502 -0.00000000000E+00 -0.00000000000E+00 -0.17172318729E+03  0.17172318729E+03  0.00000000000E+00 0.  1.
         21    1    1    2  503  504  0.30774373780E+01  0.39556777524E+02  0.54000261283E+03  0.54145824505E+03  0.00000000000E+00 0. -1.
         21    1    1    2  504  505  0.55323631628E+02  0.82069990254E+02  0.55427228834E+03  0.56303992500E+03  0.00000000000E+00 0. -1.
         21    1    1    2  505  502 -0.12813713841E+02 -0.83857606422E+02 -0.12636070287E+03  0.15219499547E+03  0.00000000000E+00 0.  1.
         21    1    1    2  506  501 -0.45587355165E+02 -0.37769161356E+02  0.47211958462E+01  0.59388603206E+02  0.00000000000E+00 0. -1.
<scales pt_clust_3="39.67631" pt_clust_4="128.94931" pt_clust_5="14000.00000" pt_clust_6="57.75447"></scales>
<clustering>
<clus scale="   39.676">  1  3  2 -1</clus>
<clus scale="   57.754">  2  6  1 -1</clus>
<clus scale="  128.949">  1  4  2 -1</clus>
<clus scale="   39.676">  1  3  2 -1</clus>
</clustering>
</event>
<event>
 6    0  0.5563122E+002  0.9965255E+02  0.7546771E-02  0.1281028E+00
         21   -1    0    0  503  501  0.00000000000E+00  0.00000000000E+00  0.43157247215E+03  0.43157247215E+03  0.00000000000E+00 0.  1.
         21   -1    0    0  506  502 -0.00000000000E+00 -0.00000000000E+00 -0.75069369064E+03  0.75069369064E+03  0.00000000000E+00 0.  1.
         21    1    1    2  503  504  0.45283516346E+02  0.45279500442E+00  0.13300932955E+03  0.14050723691E+03  0.00000000000E+00 0.  1.
         21    1    1    2  504  502 -0.12717924512E+03 -0.14492661923E+02  0.14117494030E+03  0.19056484830E+03  0.00000000000E+00 0.  1.
         21    1    1    2  505  501 -0.39848316443E+01 -0.35776404719E+02  0.12293918340E+03  0.12810102589E+03  0.00000000000E+00 0.  1.
         21    1    1    2  506  505  0.85880560419E+02  0.49816271637E+02 -0.71624467175E+03  0.72309305168E+03  0.00000000000E+00 0.  1.
<scales pt_clust_3="46.19308" pt_clust_4="99.65255" pt_clust_5="35.99764" pt_clust_6="14000.00000"></scales>
<clustering>
<clus scale="   35.998">  1  5  2 -1</clus>
<clus scale="   46.193">  1  3  2 -1</clus>
<clus scale="   99.653">  1  4  2 -1</clus>
<clus scale="   35.998">  1  3  2 -1</clus>
</clustering>
</event>
<event>
 6    0  0.5563122E+002  0.9909681E+02  0.7546771E-02  0.1282207E+00
         21   -1    0    0  506  501  0.00000000000E+00  0.00000000000E+00  0.28270381961E+03  0.28270381961E+03  0.00000000000E+00 0.  1.
         21   -1    0    0  503  502 -0.00000000000E+00 -0.00000000000E+00 -0.88554903845E+02  0.88554903845E+02  0.00000000000E+00 0. -1.
         21    1    1    2  503  504 -0.35705096647E+02 -0.17554630456E+01 -0.18548126821E+02  0.40273671122E+02  0.00000000000E+00 0. -1.
         21    1    1    2  504  501 -0.17864347451E+02  0.10282029269E+03  0.14822838330E+03  0.18128100043E+03  0.00000000000E+00 0. -1.
         21    1    1    2  505  502 -0.16154738692E+02 -0.27907823213E+02  0.55454359990E+01  0.32719627735E+02  0.00000000000E+00 0. -1.
         21    1    1    2  506  505  0.69724182789E+02 -0.73157006435E+02  0.58923223284E+02  0.11698442417E+03  0.00000000000E+00 0.  1.
<scales pt_clust_3="43.92030" pt_clust_4="14000.00000" pt_clust_5="32.24627" pt_clust_6="99.09681"></scales>
<clustering>
<clus scale="   32.246">  2  5  1 -1</clus>
<clus scale="   43.920">  2  3  1 -1</clus>
<clus scale="   99.097">  2  6  1 -1</clus>
<clus scale="   99.097">  1  3  2 -1</clus>
</clustering>
</event>
<event>
 6    0  0.5563122E+002  0.8723978E+02  0.7546771E-02  0.1309677E+00
         21   -1    0    0  503  501  0.00000000000E+00  0.00000000000E+00  0.38165575272E+03  0.38165575272E+03  0.00000000000E+00 0.  1.
         21   -1    0    0  504  502 -0.00000000000E+00 -0.00000000000E+00 -0.77910977520E+02  0.77910977520E+02  0.00000000000E+00 0.  1.
         21    1    1    2  503  502  0.81358154158E+02 -0.88254597709E+02  0.96769765209E+02  0.15418304292E+03  0.00000000000E+00 0.  1.
         21    1    1    2  504  505 -0.65424097543E+02  0.41456212375E+02  0.41010971907E+01  0.77561260188E+02  0.00000000000E+00 0.  1.
         21    1    1    2  505  506  0.16438478822E+02  0.62400900806E+02  0.10158885806E+03  0.12035112002E+03  0.00000000000E+00 0. -1.
         21    1    1    2  506  501 -0.32372535437E+02 -0.15602515472E+02  0.10128505473E+03  0.10747130711E+03  0.00000000000E+00 0.  1.
<scales pt_clust_3="14000.00000" pt_clust_4="87.23978" pt_clust_5="56.26446" pt_clust_6="35.93633"></scales>
<clustering>
<clus scale="   35.936">  1  6  2 -1</clus>
<clus scale="   56.264">  1  5  2 -1</clus>
<clus scale="   87.240">  2  4  1 -1</clus>
<clus scale="   35.936">  1  3  2 -1</clus>
</clustering>
</event>
<event>
 6    0  0.5563122E+002  0.7417040E+02  0.7546771E-02  0.1346459E+00
         21   -1    0    0  505  501  0.00000000000E+00  0.00000000000E+00  0.15148749986E+04  0.15148749986E+04  0.00000000000E+00 0. -1.
         21   -1    0    0  506  502 -0.00000000000E+00 -0.00000000000E+00 -0.23422661060E+02  0.23422661060E+02  0.00000000000E+00 0. -1.
         21    1    1    2  503  504  0.24499077993E+02 -0.78405062472E+02  0.30295677998E+03  0.31389547493E+03  0.00000000000E+00 0. -1.
         21    1    1    2  504  502 -0.26852349680E+02 -0.18202239404E+02  0.33281327189E+02  0.46475982422E+02  0.00000000000E+00 0. -1.
         21    1    1    2  505  503  0.54969934664E+02  0.47105366212E+02  0.10360347905E+04  0.10385608775E+04  0.00000000000E+00 0. -1.
         21    1    1    2  506  501 -0.52616662977E+02  0.49501935665E+02  0.11917943984E+03  0.13936532473E+03  0.00000000000E+00 0.  1.
<scales pt_clust_3="14000.00000" pt_clust_4="32.44026" pt_clust_5="69.97284" pt_clust_6="74.17040"></scales>
<clustering>
<clus scale="   32.440">  2  4  1 -1</clus>
<clus scale="   69.973">  1  5  2 -1</clus>
<clus scale="   74.170">  2  6  1 -1</clus>
<clus scale="   69.973">  1  3  2 -1</clus>
</clustering>
</event>
<event>
 6    0  0.5563122E+002  0.1008840E+03  0.7546771E-02  0.1278448E+00
         21   -1    0    0  506  501  0.00000000000E+00  0.00000000000E+00  0.63261813781E+03  0.63261813781E+03  0.00000000000E+00 0.  1.
         21   -1    0    0  501  502 -0.00000000000E+00 -0.00000000000E+00 -0.16228667584E+03  0.16228667584E+03  0.00000000000E+00 0.  1.
         21    1    1    2  503  502  0.50704918722E+02 -0.72715316563E+02 -0.62142277600E+02  0.10825972802E+03  0.00000000000E+00 0.  1.
         21    1    1    2  504  503  0.24572581602E+02  0.24600079006E+02 -0.15905116858E+02  0.38235433775E+02  0.00000000000E+00 0.  1.
         21    1    1    2  505  504 -0.10030233418E+02  0.80100737446E+02 -0.13503623311E+02  0.81847917288E+02  0.00000000000E+00 0. -1.
         21    1    1    2  506  505 -0.65247266906E+02 -0.31985499889E+02  0.56188247974E+03  0.56656173457E+03  0.00000000000E+00 0.  1.
<scales pt_clust_3="88.29597" pt_clust_4="32.02674" pt_clust_5="32.02674" pt_clust_6="72.66552"></scales>
<clustering>
<clus scale="   32.027">  4  5 -1 -1</clus>
<clus scale="   72.666">  1  6  2 -1</clus>
<clus scale="   88.296">  2  3  1 -1</clus>
<clus scale="   72.666">  1  3  2 -1</clus>
</clustering>
</event>
<event>
 6    0  0.5563122E+002  0.9030711E+02  0.7546771E-02  0.1302110E+00
         21   -1    0    0  505  501  0.00000000000E+00  0.00000000000E+00  0.12327945708E+04  0.12327945708E+04  0.00000000000E+00 0.  1.
         21   -1    0    0  503  502 -0.00000000000E+00 -0.00000000000E+00 -0.12239742974E+03  0.12239742974E+03  0.00000000000E+00 0.  1.
         21    1    1    2  503  501  0.62183755133E+02  0.84913098146E+02  0.45859002218E+03  0.47051233999E+03  0.00000000000E+00 0.  1.
         21    1    1    2  504  502 -0.50815492904E+02 -0.73909344275E+02 -0.85829123061E+02  0.12414283651E+03  0.00000000000E+00 0.  1.
         21    1    1    2  505  506 -0.26689608984E+02  0.28672390595E+02  0.70708610149E+03  0.70817031577E+03  0.00000000000E+00 0.  1.
         21    1    1    2  506  504  0.15321346755E+02 -0.39676144466E+02  0.30550140412E+02  0.52366508240E+02  0.00000000000E+00 0.  1.
<scales pt_clust_3="14000.00000" pt_clust_4="90.30711" pt_clust_5="39.17194" pt_clust_6="39.67778"></scales>
<clustering>
<clus scale="   39.172">  1  5  2 -1</clus>
<clus scale="   39.678">  1  6  2 -1</clus>
<clus scale="   90.307">  2  4  1 -1</clus>
<clus scale="   39.172">  1  3  2 -1</clus>
</clustering>
</event>
<event>
 6    0  0.5563122E+002  0.1719576E+03  0.7546771E-02  0.1175822E+00
         21   -1    0    0  504  501  0.00000000000E+00  0.00000000000E+00  0.88672553672E+03  0.88672553672E+03  0.00000000000E+00 0. -1.
         21   -1    0    0  506  502 -0.00000000000E+00 -0.00000000000E+00 -0.12553093398E+03  0.12553093398E+03  0.00000000000E+00 0. -1.
         21    1    1    2  503  502 -0.32195732214E+02  0.48016556060E+02  0.23420958798E+02  0.62375445006E+02  0.00000000000E+00 0.  1.
         21    1    1    2  504  503 -0.43493008136E+02  0.15170995322E+03  0.70978497894E+03  0.72711915667E+03  0.00000000000E+00 0. -1.
         21    1    1    2  505  501  0.65698099222E+02 -0.13766855919E+03 -0.32377818676E+01  0.15257573746E+03  0.00000000000E+00 0. -1.
         21    1    1    2  506  505  0.99906411285E+01 -0.62057950096E+02  0.31226446868E+02  0.70186131567E+02  0.00000000000E+00 0. -1.
<scales pt_clust_3="57.81137" pt_clust_4="162.32496" pt_clust_5="36.42607" pt_clust_6="36.42607"></scales>
<clustering>
<clus scale="   36.426">  5  6 -1 -1</clus>
<clus scale="   57.811">  2  3  1 -1</clus>
<clus scale="  162.325">  1  4  2 -1</clus>
<clus scale="  162.325">  1  3  2 -1</clus>
</clustering>
</event>
<event>
 6    0  0.5563122E+002  0.1386878E+03  0.7546771E-02  0.1215106E+00
         21   -1    0    0  504  501  0.00000000000E+00  0.00000000000E+00  0.33133171546E+03  0.33133171546E+03  0.00000000000E+00 0.  1.
         21   -1    0    0  506  502 -0.00000000000E+00 -0.00000000000E+00 -0.77009848061E+03  0.77009848061E+03  0.00000000000E+00 0. -1.
         21    1    1    2  503  502  0.92597693262E+02 -0.91849091115E+02 -0.71473631917E+03  0.72653877686E+03  0.00000000000E+00 0. -1.
         21    1    1    2  504  503  0.27032999020E+02 -0.53870685151E+02  0.63753946428E+02  0.87734824555E+02  0.00000000000E+00 0.  1.
         21    1    1    2  505  501 -0.82102502545E+02  0.70720084918E+02  0.10345438451E+03  0.14981642437E+03  0.00000000000E+00 0.  1.
         21    1    1    2  506  505 -0.37528189736E+02  0.74999691348E+02  0.10876122308E+03  0.13734017028E+03  0.00000000000E+00 0.  1.
<scales pt_clust_3="131.74446" pt_clust_4="60.27299" pt_clust_5="38.12107" pt_clust_6="38.12107"></scales>
<clustering>
<clus scale="   38.121">  5  6 -1 -1</clus>
<clus scale="   60.273">  1  4  2 -1</clus>
<clus scale="  131.744">  2  3  1 -1</clus>
<clus scale="   60.273">  1  3  2 -1</clus>
</clustering>
</event>
<event>
 6    0  0.5563122E+002  0.8617408E+02  0.7546771E-02  0.1312390E+00
         21   -1    0    0  504  501  0.00000000000E+00  0.00000000000E+00  0.30939875895E+03  0.30939875895E+03  0.00000000000E+00 0.  1.
         21   -1    0    0  505  502 -0.00000000000E+00 -0.00000000000E+00 -0.20527472101E+03  0.20527472101E+03  0.00000000000E+00 0.  1.
         21    1    1    2  503  501  0.24637168537E+02 -0.56400854198E+02  0.11071824360E+03  0.12667508000E+03  0.00000000000E+00 0.  1.
         21    1    1    2  504  506  0.87628130468E+02  0.45049751810E+02  0.14146829026E+03  0.17239909088E+03  0.00000000000E+00 0.  1.
         21    1    1    2  505  503 -0.49886994740E+02  0.97393060295E+01 -0.14440914321E+03  0.15309332764E+03  0.00000000000E+00 0.  1.
         21    1    1    2  506  502 -0.62378304265E+02  0.16117963584E+01 -0.36533526974E+01  0.62505981445E+02  0.00000000000E+00 0.  1.
<scales pt_clust_3="57.77090" pt_clust_4="14000.00000" pt_clust_5="50.82879" pt_clust_6="86.17408"></scales>
<clustering>
<clus scale="   50.829">  2  5  1 -1</clus>
<clus scale="   57.771">  1  3  2 -1</clus>
<clus scale="   86.174">  2  6  1 -1</clus>
<clus scale="   57.771">  1  3  2 -1</clus>
</clustering>
</event>
<event>
 6    0  0.5563122E+002  0.1425059E+03  0.7546771E-02  0.1209996E+00
         21   -1    0    0  505  501  0.00000000000E+00  0.00000000000E+00  0.10768460676E+04  0.10768460676E+04  0.00000000000E+00 0. -1.
         21   -1    0    0  503  502 -0.00000000000E+00 -0.00000000000E+00 -0.24207967951E+03  0.24207967951E+03  0.00000000000E+00 0.  1.
         21    1    1    2  503  506  0.43633620745E+02 -0.58361033414E+02 -0.16672815996E+03  0.18195653988E+03  0.00000000000E+00 0.  1.
         21    1    1    2  504  502  0.81425258787E+02 -0.38343516704E+02 -0.24850761297E+02  0.93369472414E+02  0.00000000000E+00 0.  1.
         21    1    1    2  505  504 -0.11508107308E+03  0.50818416782E+02  0.51663993686E+03  0.53173582654E+03  0.00000000000E+00 0. -1.
         21    1    1    2  506  501 -0.99778064499E+01  0.45886133336E+02  0.50970537247E+03  0.51186390826E+03  0.00000000000E+00 0.  1.
<scales pt_clust_3="72.29486" pt_clust_4="142.50595" pt_clust_5="14000.00000" pt_clust_6="46.95843"></scales>
<clustering>
<clus scale="   46.958">  1  6  2 -1</clus>
<clus scale="   72.295">  2  3  1 -1</clus>
<clus scale="  142.506">  2  4  1 -1</clus>
<clus scale="   46.958">  1  3  2 -1</clus>
</clustering>
</event>
<event>
 6    0  0.5563122E+002  0.1505230E+03  0.7546771E-02  0.1199832E+00
         21   -1    0    0  503  501  0.00000000000E+00  0.00000000000E+00  0.20538061830E+03  0.20538061830E+03  0.00000000000E+00 0. -1.
         21   -1    0    0  505  502 -0.00000000000E+00 -0.00000000000E+00 -0.29541943926E+03  0.29541943926E+03  0.00000000000E+00 0. -1.
         21    1    1    2  503  506  0.50167365160E+02  0.11144359842E+03 -0.82410808817E+02  0.14740414365E+03  0.00000000000E+00 0. -1.
         21    1    1    2  504  501 -0.91147458138E+02 -0.10340663803E+03  0.11731495178E+03  0.18100715407E+03  0.00000000000E+00 0. -1.
         21    1    1    2  505  504 -0.50794959428E+01 -0.43990817163E+02 -0.99009465813E+02  0.10846136452E+03  0.00000000000E+00 0. -1.
         21    1    1    2  506  502  0.46059588921E+02  0.35953856772E+02 -0.25933498106E+02  0.63927395320E+02  0.00000000000E+00 0. -1.
<scales pt_clust_3="30.43072" pt_clust_4="143.94536" pt_clust_5="44.28310" pt_clust_6="30.43072"></scales>
<clustering>
<clus scale="   30.431">  3  6 -1 -1</clus>
<clus scale="   44.283">  2  5  1 -1</clus>
<clus scale="  143.945">  1  4  2 -1</clus>
<clus scale="  143.945">  1  3  2 -1</clus>
</clustering>
</event>
<event>
 6    0  0.5563122E+002  0.1385016E+03  0.7546771E-02  0.1215359E+00
         21   -1    0    0  505  501  0.00000000000E+00  0.00000000000E+00  0.15555795123E+03  0.15555795123E+03  0.00000000000E+00 0.  1.
         21   -1    0    0  504  502 -0.00000000000E+00 -0.00000000000E+00 -0.16466826450E+04  0.16466826450E+04  0.00000000000E+00 0. -1.
         21    1    1    2  503  502  0.31774115254E+02  0.14407586049E+03 -0.93829538815E+03  0.94982402759E+03  0.00000000000E+00 0. -1.
         21    1    1    2  504  501  0.61492905554E+02  0.27583739311E+02 -0.11819872545E+03  0.13606314272E+03  0.00000000000E+00 0. -1.
         21    1    1    2  505  506 -0.10885487319E+03 -0.43858165484E+02  0.10749582471E+03  0.15914859229E+03  0.00000000000E+00 0.  1.
         21    1    1    2  506  503  0.15587852378E+02 -0.12780143431E+03 -0.54212640490E+03  0.55720483366E+03  0.00000000000E+00 0. -1.
<scales pt_clust_3="138.50165" pt_clust_4="67.39614" pt_clust_5="116.21349" pt_clust_6="14000.00000"></scales>
<clustering>
<clus scale="   67.396">  2  4  1 -1</clus>
<clus scale="  116.213">  1  5  2 -1</clus>
<clus scale="  138.502">  2  3  1 -1</clus>
<clus scale="  116.213">  1  3  2 -1</clus>
</clustering>
</event>
<event>
 6    0  0.5563122E+002  0.1033315E+03  0.7546771E-02  0.1273442E+00
         21   -1    0    0  506  501  0.00000000000E+00  0.00000000000E+00  0.12597723111E+03  0.12597723111E+03  0.00000000000E+00 0. -1.
         21   -1    0    0  505  502 -0.00000000000E+00 -0.00000000000E+00 -0.92383533345E+03  0.92383533345E+03  0.00000000000E+00 0. -1.
         21    1    1    2  503  504  0.97747701137E+02  0.16359653189E+02 -0.20678273732E+03  0.22930624018E+03  0.00000000000E+00 0. -1.
         21    1    1    2  504  502  0.34229487451E+02 -0.46594222726E+01 -0.59328680431E+03  0.59429167939E+03  0.00000000000E+00 0. -1.
         21    1    1    2  505  501 -0.35594771188E+02  0.27539896919E+02 -0.81206329731E+02  0.92843425436E+02  0.00000000000E+00 0.  1.
         21    1    1    2  506  503 -0.96382417399E+02 -0.39240127835E+02  0.83417769023E+02  0.13337121955E+03  0.00000000000E+00 0. -1.
<scales pt_clust_3="14000.00000" pt_clust_4="34.54516" pt_clust_5="37.39270" pt_clust_6="103.33153"></scales>
<clustering>
<clus scale="   34.545">  2  4  1 -1</clus>
<clus scale="   37.393">  2  5  1 -1</clus>
<clus scale="  103.332">  1  6  2 -1</clus>
<clus scale="  103.332">  1  3  2 -1</clus>
</clustering>
</event>
<event>
 6    0  0.5563122E+002  0.1249607E+03  0.7546771E-02  0.1235131E+00
         21   -1    0    0  504  501  0.00000000000E+00  0.00000000000E+00  0.84746520764E+02  0.84746520764E+02  0.00000000000E+00 0.  1.
         21   -1    0    0  505  502 -0.00000000000E+00 -0.00000000000E+00 -0.65763926685E+03  0.65763926685E+03  0.00000000000E+00 0. -1.
         21    1    1    2  503  502  0.47553302741E+02 -0.14534590959E+02 -0.29514885165E+03  0.29930822837E+03  0.00000000000E+00 0. -1.
         21    1    1    2  504  506 -0.16562384805E+02 -0.33866498006E+02 -0.25230811126E+02  0.45363488707E+02  0.00000000000E+00 0. -1.
         21    1    1    2  505  501 -0.83793575255E+02  0.96571244223E+02  0.74801851576E+01  0.12807545290E+03  0.00000000000E+00 0.  1.
         21    1    1    2  506  503  0.52802657318E+02 -0.48170155258E+02 -0.25999326847E+03  0.26963861765E+03  0.00000000000E+00 0. -1.
<scales pt_clust_3="32.46041" pt_clust_4="37.69950" pt_clust_5="118.74614" pt_clust_6="32.46041"></scales>
<clustering>
<clus scale="   32.460">  3  6 -1 -1</clus>
<clus scale="   37.699">  1  4  2 -1</clus>
<clus scale="  118.746">  1  5  2 -1</clus>
<clus scale="   37.699">  1  3  2 -1</clus>
</clustering>
</event>
<event>
 6    0  0.5563122E+002  0.1555087E+03  0.7546771E-02  0.1193863E+00
         21   -1    0    0  506  501  0.00000000000E+00  0.00000000000E+00  0.53148436013E+03  0.53148436013E+03  0.00000000000E+00 0. -1.
         21   -1    0    0  503  502 -0.00000000000E+00 -0.00000000000E+00 -0.60819434145E+02  0.60819434145E+02  0.00000000000E+00 0. -1.
         21    1    1    2  503  505  0.28218225133E+02 -0.25953391922E+02  0.11273029060E+02  0.39961581126E+02  0.00000000000E+00 0. -1.
         21    1    1    2  504  501 -0.20683900071E+02 -0.64369805402E+02  0.15731615201E+03  0.17122986670E+03  0.00000000000E+00 0. -1.
         21    1    1    2  505  504 -0.76674326797E+01 -0.69896716150E+02  0.71016895106E+02  0.99938680415E+02  0.00000000000E+00 0. -1.
         21    1    1    2  506  502  0.13310761825E+00  0.16021991347E+03  0.23105884981E+03  0.28117366603E+03  0.00000000000E+00 0. -1.
<scales pt_clust_3="38.33858" pt_clust_4="48.05785" pt_clust_5="48.05785" pt_clust_6="147.03013"></scales>
<clustering>
<clus scale="   38.339">  2  3  1 -1</clus>
<clus scale="   48.058">  4  5 -1 -1</clus>
<clus scale="  147.030">  2  6  1 -1</clus>
<clus scale="  155.509">  1  3  2 -1</clus>
</clustering>
</event>
<event>
 6    0  0.5563122E+002  0.7809211E+02  0.7546771E-02  0.1334555E+00
         21   -1    0    0  506  501  0.00000000000E+00  0.00000000000E+00  0.28431795357E+03  0.28431795357E+03  0.00000000000E+00 0. -1.
         21   -1    0    0  505  502 -0.00000000000E+00 -0.00000000000E+00 -0.17375732529E+03  0.17375732529E+03  0.00000000000E+00 0. -1.
         21    1    1    2  503  501 -0.77716242059E+02 -0.20056434123E-01  0.19082361363E+03  0.20604238933E+03  0.00000000000E+00 0. -1.
         21    1    1    2  504  502  0.40924286924E+02  0.16171551496E+02 -0.10259096358E+03  0.11162984434E+03  0.00000000000E+00 0. -1.
         21    1    1    2  505  503 -0.43042008137E+02  0.10707340619E+02  0.33296418943E+02  0.55460915265E+02  0.00000000000E+00 0. -1.
         21    1    1    2  506  504  0.79833963272E+02 -0.26858835681E+02 -0.10968440716E+02  0.84942129933E+02  0.00000000000E+00 0. -1.
<scales pt_clust_3="78.09211" pt_clust_4="44.00359" pt_clust_5="38.63397" pt_clust_6="14000.00000"></scales>
<clustering>
<clus scale="   44.004">  2  4  1 -1</clus>
<clus scale="   38.634">  2  5  1 -1</clus>
<clus scale="   78.092">  1  3  2 -1</clus>
<clus scale="   78.092">  1  3  2 -1</clus>
</clustering>
</event>
<event>
 6    0  0.5563122E+002  0.9629418E+02  0.7546771E-02  0.1288288E+00
         21   -1    0    0  504  501  0.00000000000E+00  0.00000000000E+00  0.60795074798E+03  0.60795074798E+03  0.00000000000E+00 0.  1.
         21   -1    0    0  503  502 -0.00000000000E+00 -0.00000000000E+00 -0.18302569423E+04  0.18302569423E+04  0.00000000000E+00 0. -1.
         21    1    1    2  503  506 -0.34063105508E+02  0.48870609982E+02 -0.79656398214E+03  0.79878833825E+03  0.00000000000E+00 0. -1.
         21    1    1    2  504  502 -0.78457560621E+02  0.16933932038E+02  0.59935627393E+03  0.60470678016E+03  0.00000000000E+00 0.  1.
         21    1    1    2  505  501  0.67019806735E+02 -0.58841246807E+02 -0.52714993814E+03  0.53464100489E+03  0.00000000000E+00 0. -1.
         21    1    1    2  506  505  0.45500859393E+02 -0.69632952128E+01 -0.49794854795E+03  0.50007156696E+03  0.00000000000E+00 0. -1.
<scales pt_clust_3="59.57039" pt_clust_4="80.37728" pt_clust_5="38.09694" pt_clust_6="38.09694"></scales>
<clustering>
<clus scale="   38.097">  5  6 -1 -1</clus>
<clus scale="   59.570">  2  3  1 -1</clus>
<clus scale="   80.377">  1  4  2 -1</clus>
<clus scale="   80.377">  1  3  2 -1</clus>
</clustering>
</event>
<event>
 6    0  0.5563122E+002  0.1509636E+03  0.7546771E-02  0.1199294E+00
         21   -1    0    0  504  501  0.00000000000E+00  0.00000000000E+00  0.80626738852E+03  0.80626738852E+03  0.00000000000E+00 0. -1.
         21   -1    0    0  503  502 -0.00000000000E+00 -0.00000000000E+00 -0.17711501836E+03  0.17711501836E+03  0.00000000000E+00 0. -1.
         21    1    1    2  503  506  0.63700134663E+02  0.12652124426E+03  0.78473009797E+02  0.16193623953E+03  0.00000000000E+00 0. -1.
         21    1    1    2  504  505 -0.90284035723E+02 -0.49115303898E+02 -0.53323141735E+02  0.11578807204E+03  0.00000000000E+00 0. -1.
         21    1    1    2  505  502 -0.19045828673E+02 -0.46835023629E+02 -0.36782379775E+02  0.62523647447E+02  0.00000000000E+00 0.  1.
         21    1    1    2  506  501  0.45629729733E+02 -0.30570916736E+02  0.64078488188E+03  0.64313444786E+03  0.00000000000E+00 0. -1.
<scales pt_clust_3="142.38475" pt_clust_4="35.18476" pt_clust_5="35.18476" pt_clust_6="54.92407"></scales>
<clustering>
<clus scale="   35.185">  4  5 -1 -1</clus>
<clus scale="   54.924">  1  6  2 -1</clus>
<clus scale="  142.385">  1  3  2 -1</clus>
<clus scale="   54.924">  1  3  2 -1</clus>
</clustering>
</event>
<event>
 6    0  0.5563122E+002  0.7038716E+02  0.7546771E-02  0.1358781E+00
         21   -1    0    0  505  501  0.00000000000E+00  0.00000000000E+00  0.80409692822E+03  0.80409692822E+03  0.00000000000E+00 0.  1.
         21   -1    0    0  503  502 -0.00000000000E+00 -0.00000000000E+00 -0.14110233114E+03  0.14110233114E+03  0.00000000000E+00 0.  1.
         21    1    1    2  503  501  0.39071760291E+02 -0.53135509063E+02  0.20502144471E+03  0.21536893362E+03  0.00000000000E+00 0. -1.
         21    1    1    2  504  502  0.69228072387E+02 -0.24371500197E+01 -0.11248124970E+03  0.13210033021E+03  0.00000000000E+00 0.  1.
         21    1    1    2  505  506 -0.88990438629E+01  0.68876975057E+02  0.32948270754E+03  0.33672256420E+03  0.00000000000E+00 0.  1.
         21    1    1    2  506  504 -0.99400788814E+02 -0.13304315975E+02  0.24097169453E+03  0.26100743132E+03  0.00000000000E+00 0.  1.
<scales pt_clust_3="65.95441" pt_clust_4="14000.00000" pt_clust_5="41.18535" pt_clust_6="70.38716"></scales>
<clustering>
<clus scale="   65.954">  1  3  2 -1</clus>
<clus scale="   41.185">  1  5  2 -1</clus>
<clus scale="   70.387">  1  6  2 -1</clus>
<clus scale="   65.954">  1  3  2 -1</clus>
</clustering>
</event>
<event>
 6    0  0.5563122E+002  0.1277173E+03  0.7546771E-02  0.1230883E+00
         21   -1    0    0  505  501  0.00000000000E+00  0.00000000000E+00  0.24100308713E+04  0.24100308713E+04  0.00000000000E+00 0.  1.
         21   -1    0    0  506  502 -0.00000000000E+00 -0.00000000000E+00 -0.71504309429E+03  0.71504309429E+03  0.00000000000E+00 0. -1.
         21    1    1    2  503  501 -0.27492081255E+02 -0.40854723457E+02  0.23891766880E+04  0.23896841149E+04  0.00000000000E+00 0.  1.
         21    1    1    2  504  503  0.18082405047E+02  0.44674257505E+02 -0.92132903568E+02  0.10397708678E+03  0.00000000000E+00 0. -1.
         21    1    1    2  505  502 -0.62464061477E+02 -0.60784773660E+02 -0.18655764679E+03  0.20591333920E+03  0.00000000000E+00 0. -1.
         21    1    1    2  506  504  0.71873737685E+02  0.56965239612E+02 -0.41549836062E+03  0.42549942464E+03  0.00000000000E+00 0. -1.
<scales pt_clust_3="49.24351" pt_clust_4="47.16549" pt_clust_5="109.90232" pt_clust_6="47.16549"></scales>
<clustering>
<clus scale="   47.165">  4  6 -1 -1</clus>
<clus scale="   49.244">  1  3  2 -1</clus>
<clus scale="  109.902">  1  5  2 -1</clus>
<clus scale="   49.244">  1  3  2 -1</clus>
</clustering>
</event>
<event>
 6    0  0.5563122E+002  0.2174748E+03  0.7546771E-02  0.1135780E+00
         21   -1    0    0  504  501  0.00000000000E+00  0.00000000000E+00  0.13303490874E+04  0.13303490874E+04  0.00000000000E+00 0.  1.
         21   -1    0    0  506  502 -0.00000000000E+00 -0.00000000000E+00 -0.85467717161E+02  0.85467717161E+02  0.00000000000E+00 0. -1.
         21    1    1    2  503  502  0.17614190555E+03 -0.68970446036E+02  0.47575022788E+03  0.51197770718E+03  0.00000000000E+00 0. -1.
         21    1    1    2  504  503  0.95296266424E+02 -0.23229438140E+02  0.35162625152E+03  0.36505068956E+03  0.00000000000E+00 0. -1.
         21    1    1    2  505  501 -0.86749513134E+02  0.26365385619E+02  0.29256728718E+03  0.30629435044E+03  0.00000000000E+00 0.  1.
         21    1    1    2  506  505 -0.18468865884E+03  0.65834498558E+02  0.12493760363E+03  0.23249405735E+03  0.00000000000E+00 0.  1.
<scales pt_clust_3="35.62417" pt_clust_4="35.62417" pt_clust_5="90.66759" pt_clust_6="211.77307"></scales>
<clustering>
<clus scale="   35.624">  3  4 -1 -1</clus>
<clus scale="   90.668">  1  5  2 -1</clus>
<clus scale="  211.773">  2  6  1 -1</clus>
<clus scale="   90.668">  1  3  2 -1</clus>
</clustering>
</event>
<event>
 6    0  0.6568380E+002  0.1149419E+03  0.7546771E-02  0.1251683E+00
         21   -1    0    0  504  501  0.00000000000E+00  0.00000000000E+00  0.41674180656E+03  0.41674180656E+03  0.00000000000E+00 0. -1.
         21   -1    0    0  506  502 -0.00000000000E+00 -0.00000000000E+00 -0.38919196347E+03  0.38919196347E+03  0.00000000000E+00 0. -1.
         21    1    1    2  503  501  0.22639856550E+02  0.31555455942E+02  0.78466532034E+02  0.87551736440E+02  0.00000000000E+00 0. -1.
         21    1    1    2  504  505  0.95524626577E+02 -0.27375553298E+02  0.30384561757E+03  0.31968192710E+03  0.00000000000E+00 0. -1.
         21    1    1    2  505  502 -0.40791650038E+02 -0.10661341537E+02 -0.74503565042E+01  0.42815075945E+02  0.00000000000E+00 0.  1.
         21    1    1    2  506  503 -0.77372833090E+02  0.64814388938E+01 -0.34731195000E+03  0.35588503054E+03  0.00000000000E+00 0. -1.
<scales pt_clust_3="38.83697" pt_clust_4="14000.00000" pt_clust_5="40.59981" pt_clust_6="114.94188"></scales>
<clustering>
<clus scale="   38.837">  1  3  2 -1</clus>
<clus scale="   40.600">  2  5  1 -1</clus>
<clus scale="  114.942">  2  6  1 -1</clus>
<clus scale="   38.837">  1  3  2 -1</clus>
</clustering>
</event>
<event>
 6    0  0.5563122E+002  0.1096894E+03  0.7546771E-02  0.1261146E+00
         21   -1    0    0  503  501  0.00000000000E+00  0.00000000000E+00  0.35368623344E+03  0.35368623344E+03  0.00000000000E+00 0.  1.
         21   -1    0    0  505  502 -0.00000000000E+00 -0.00000000000E+00 -0.16477281015E+03  0.16477281015E+03  0.00000000000E+00 0. -1.
         21    1    1    2  503  504 -0.61239242166E+02  0.11151069946E+03  0.18023576484E+03  0.22061235642E+03  0.00000000000E+00 0.  1.
         21    1    1    2  504  502 -0.26592000844E+02 -0.18841412991E+02 -0.13594411318E+02  0.35312057027E+02  0.00000000000E+00 0.  1.
         21    1    1    2  505  506  0.93035014475E+02  0.74468803344E+01 -0.77337583089E+02  0.12121085637E+03  0.00000000000E+00 0. -1.
         21    1    1    2  506  501 -0.52037714649E+01 -0.10011616680E+03  0.99609652854E+02  0.14132377378E+03  0.00000000000E+00 0.  1.
<scales pt_clust_3="14000.00000" pt_clust_4="32.59039" pt_clust_5="74.45433" pt_clust_6="109.68935"></scales>
<clustering>
<clus scale="   32.590">  2  4  1 -1</clus>
<clus scale="   74.454">  2  5  1 -1</clus>
<clus scale="  109.689">  2  6  1 -1</clus>
<clus scale="  109.689">  1  3  2 -1</clus>
</clustering>
</event>
<event>
 6    0  0.5563122E+002  0.2983207E+03  0.7546771E-02  0.1086083E+00
         21   -1    0    0  504  501  0.00000000000E+00  0.00000000000E+00  0.56152357200E+03  0.56152357200E+03  0.00000000000E+00 0. -1.
         21   -1    0    0  505  502 -0.00000000000E+00 -0.00000000000E+00 -0.41997259642E+03  0.41997259642E+03  0.00000000000E+00 0. -1.
         21    1    1    2  503  502  0.17495916655E+03  0.14111918504E+03 -0.91765316660E+02  0.24278840106E+03  0.00000000000E+00 0. -1.
         21    1    1    2  504  503  0.70034680339E+02  0.83911594501E+02 -0.74539088140E+02  0.13229545647E+03  0.00000000000E+00 0. -1.
         21    1    1    2  505  506 -0.15370538444E+03 -0.20345332660E+03 -0.29101022152E+02  0.25664269092E+03  0.00000000000E+00 0. -1.
         21    1    1    2  506  501 -0.91288462446E+02 -0.21577452943E+02  0.33695640254E+03  0.34976961998E+03  0.00000000000E+00 0. -1.
<scales pt_clust_3="33.94644" pt_clust_4="33.94644" pt_clust_5="294.32180" pt_clust_6="93.80389"></scales>
<clustering>
<clus scale="   33.946">  3  4 -1 -1</clus>
<clus scale="   93.804">  1  6  2 -1</clus>
<clus scale="  294.322">  1  5  2 -1</clus>
<clus scale="   93.804">  1  3  2 -1</clus>
</clustering>
</event>
<event>
 6    0  0.5563122E+002  0.2476466E+03  0.7546771E-02  0.1114801E+00
         21   -1    0    0  505  501  0.00000000000E+00  0.00000000000E+00  0.93442841585E+03  0.93442841585E+03  0.00000000000E+00 0.  1.
         21   -1    0    0  504  502 -0.00000000000E+00 -0.00000000000E+00 -0.98650048868E+02  0.98650048868E+02  0.00000000000E+00 0.  1.
         21    1    1    2  503  501 -0.52389036732E+01  0.38531176825E+02  0.18217774561E+03  0.18628158442E+03  0.00000000000E+00 0. -1.
         21    1    1    2  504  503  0.13024050017E+03  0.18792813914E+03  0.14273576503E+03  0.26954233802E+03  0.00000000000E+00 0.  1.
         21    1    1    2  505  506 -0.48879766481E+02 -0.39427879225E+02  0.16788921392E+03  0.17925004151E+03  0.00000000000E+00 0.  1.
         21    1    1    2  506  502 -0.76121830018E+02 -0.18703143674E+03  0.34297564242E+03  0.39800450077E+03  0.00000000000E+00 0.  1.
<scales pt_clust_3="38.88570" pt_clust_4="236.63933" pt_clust_5="41.05217" pt_clust_6="41.05217"></scales>
<clustering>
<clus scale="   38.886">  1  3  2 -1</clus>
<clus scale="   41.052">  5  6 -1 -1</clus>
<clus scale="  236.639">  2  4  1 -1</clus>
<clus scale="   38.886">  1  3  2 -1</clus>
</clustering>
</event>
<event>
 6    0  0.5563122E+002  0.7306313E+02  0.7546771E-02  0.1349976E+00
         21   -1    0    0  503  501  0.00000000000E+00  0.00000000000E+00  0.23601175093E+03  0.23601175093E+03  0.00000000000E+00 0.  1.
         21   -1    0    0  505  502 -0.00000000000E+00 -0.00000000000E+00 -0.14630296950E+03  0.14630296950E+03  0.00000000000E+00 0. -1.
         21    1    1    2  503  504 -0.65881212053E+02  0.10307360339E+03  0.10355027079E+03  0.16027214480E+03  0.00000000000E+00 0.  1.
         21    1    1    2  504  502  0.57267796149E+02 -0.38484278036E+02 -0.76872923159E+02  0.10329611051E+03  0.00000000000E+00 0. -1.
         21    1    1    2  505  506 -0.31525757177E+02 -0.43854972090E+02  0.24244525698E+02  0.59202440566E+02  0.00000000000E+00 0. -1.
         21    1    1    2  506  501  0.40139173081E+02 -0.20734353262E+02  0.38786908097E+02  0.59544024558E+02  0.00000000000E+00 0. -1.
<scales pt_clust_3="14000.00000" pt_clust_4="73.06313" pt_clust_5="53.47771" pt_clust_6="45.17817"></scales>
<clustering>
<clus scale="   45.178">  1  6  2 -1</clus>
<clus scale="   53.478">  1  5  2 -1</clus>
<clus scale="   73.063">  2  4  1 -1</clus>
<clus scale="   45.178">  1  3  2 -1</clus>
</clustering>
</event>
<event>
 6    0  0.5563122E+002  0.2577411E+03  0.7546771E-02  0.1108508E+00
         21   -1    0    0  504  501  0.00000000000E+00  0.00000000000E+00  0.58975328130E+03  0.58975328130E+03  0.00000000000E+00 0.  1.
         21   -1    0    0  503  502 -0.00000000000E+00 -0.00000000000E+00 -0.23506143962E+03  0.23506143962E+03  0.00000000000E+00 0.  1.
         21    1    1    2  503  501 -0.76365847619E+01 -0.25492364864E+03 -0.48138048200E+02  0.25954124093E+03  0.00000000000E+00 0.  1.
         21    1    1    2  504  506  0.30726544856E+02 -0.29038560683E+02  0.97628365699E+02  0.10638917405E+03  0.00000000000E+00 0.  1.
         21    1    1    2  505  502  0.45356121761E+02  0.26272744443E+03  0.20816766582E+03  0.33825532506E+03  0.00000000000E+00 0.  1.
         21    1    1    2  506  505 -0.68446081855E+02  0.21234764890E+02  0.97033858350E+02  0.12062898088E+03  0.00000000000E+00 0.  1.
<scales pt_clust_3="257.74107" pt_clust_4="42.27716" pt_clust_5="14000.00000" pt_clust_6="63.33284"></scales>
<clustering>
<clus scale="   42.277">  1  4  2 -1</clus>
<clus scale="   63.333">  1  6  2 -1</clus>
<clus scale="  257.741">  2  3  1 -1</clus>
<clus scale="   42.277">  1  3  2 -1</clus>
</clustering>
</event>
<event>
 6    0  0.5563122E+002  0.1398511E+03  0.7546771E-02  0.1213529E+00
         21   -1    0    0  503  501  0.00000000000E+00  0.00000000000E+00  0.69748900595E+03  0.69748900595E+03  0.00000000000E+00 0. -1.
         21   -1    0    0  506  502 -0.00000000000E+00 -0.00000000000E+00 -0.92417644132E+02  0.92417644132E+02  0.00000000000E+00 0. -1.
         21    1    1    2  503  504  0.51808911541E+02 -0.31533270980E+02  0.12909133479E+03  0.14262918079E+03  0.00000000000E+00 0. -1.
         21    1    1    2  504  502 -0.94198807664E+02 -0.13756301388E+03  0.42241588116E+02  0.17199229611E+03  0.00000000000E+00 0. -1.
         21    1    1    2  505  501  0.50223940072E+02  0.12338675789E+03  0.38765458495E+03  0.40990585921E+03  0.00000000000E+00 0. -1.
         21    1    1    2  506  505 -0.78340439496E+01  0.45709526973E+02  0.46083853961E+02  0.65379313981E+02  0.00000000000E+00 0. -1.
<scales pt_clust_3="58.23023" pt_clust_4="14000.00000" pt_clust_5="139.85115" pt_clust_6="46.37600"></scales>
<clustering>
<clus scale="   46.376">  2  6  1 -1</clus>
<clus scale="   58.230">  1  3  2 -1</clus>
<clus scale="  139.851">  1  5  2 -1</clus>
<clus scale="   58.230">  1  3  2 -1</clus>
</clustering>
</event>
<event>
 6    0  0.5563122E+002  0.2135823E+03  0.7546771E-02  0.1138760E+00
         21   -1    0    0  506  501  0.00000000000E+00  0.00000000000E+00  0.11484905333E+03  0.11484905333E+03  0.00000000000E+00 0.  1.
         21   -1    0    0  504  502 -0.00000000000E+00 -0.00000000000E+00 -0.78936867934E+03  0.78936867934E+03  0.00000000000E+00 0.  1.
         21    1    1    2  503  502 -0.12517550385E+03  0.65596476081E+01 -0.33534197047E+03  0.35800303476E+03  0.00000000000E+00 0.  1.
         21    1    1    2  504  501  0.17064519808E+01 -0.33739272422E+02 -0.21717292378E+03  0.21978473401E+03  0.00000000000E+00 0.  1.
         21    1    1    2  505  503 -0.69964906882E+02  0.44100851625E+02 -0.10187118157E+03  0.13121627545E+03  0.00000000000E+00 0.  1.
         21    1    1    2  506  505  0.19343395875E+03 -0.16921226811E+02 -0.20133550190E+02  0.19521368845E+03  0.00000000000E+00 0.  1.
<scales pt_clust_3="68.99891" pt_clust_4="33.78240" pt_clust_5="68.99891" pt_clust_6="195.14991"></scales>
<clustering>
<clus scale="   33.782">  2  4  1 -1</clus>
<clus scale="   68.999">  3  5 -1 -1</clus>
<clus scale="  195.150">  1  6  2 -1</clus>
<clus scale="  195.150">  1  3  2 -1</clus>
</clustering>
</event>
<event>
 6    0  0.5563122E+002  0.8490285E+02  0.7546771E-02  0.1315687E+00
         21   -1    0    0  506  501  0.00000000000E+00  0.00000000000E+00  0.55274150905E+02  0.55274150905E+02  0.00000000000E+00 0. -1.
         21   -1    0    0  505  502 -0.00000000000E+00 -0.00000000000E+00 -0.11847287580E+04  0.11847287580E+04  0.00000000000E+00 0. -1.
         21    1    1    2  503  502 -0.37470253061E+02  0.16136391035E+02 -0.74580074945E+03  0.74691576557E+03  0.00000000000E+00 0. -1.
         21    1    1    2  504  501  0.34860736782E+02  0.71372873875E+02 -0.17521478091E+02  0.81341012340E+02  0.00000000000E+00 0. -1.
         21    1    1    2  505  504  0.70533338040E+02 -0.77965214318E+01 -0.22550507587E+03  0.23640701505E+03  0.00000000000E+00 0.  1.
         21    1    1    2  506  503 -0.67923821761E+02 -0.79712743478E+02 -0.14062730364E+03  0.17533911590E+03  0.00000000000E+00 0. -1.
<scales pt_clust_3="40.79710" pt_clust_4="14000.00000" pt_clust_5="50.79698" pt_clust_6="84.90285"></scales>
<clustering>
<clus scale="   40.797">  2  3  1 -1</clus>
<clus scale="   50.797">  2  5  1 -1</clus>
<clus scale="   84.903">  2  6  1 -1</clus>
<clus scale="   84.903">  1  3  2 -1</clus>
</clustering>
</event>
<event>
 6    0  0.5563122E+002  0.9945231E+02  0.7546771E-02  0.1281452E+00
         21   -1    0    0  503  501  0.00000000000E+00  0.00000000000E+00  0.24643147280E+03  0.24643147280E+03  0.00000000000E+00 0. -1.
         21   -1    0    0  505  502 -0.00000000000E+00 -0.00000000000E+00 -0.54025126972E+03  0.54025126972E+03  0.00000000000E+00 0. -1.
         21    1    1    2  503  502 -0.31623224658E+02  0.56928385250E+02 -0.24378004368E+03  0.25232831605E+03  0.00000000000E+00 0. -1.
         21    1    1    2  504  506 -0.69952141069E+02 -0.51566324921E+02 -0.11111776194E+03  0.14106574681E+03  0.00000000000E+00 0. -1.
         21    1    1    2  505  504  0.68536286620E+01 -0.40042822416E+02 -0.15210973174E+03  0.15744132349E+03  0.00000000000E+00 0. -1.
         21    1    1    2  506  501  0.94721737065E+02  0.34680762087E+02  0.21318774045E+03  0.23584735616E+03  0.00000000000E+00 0. -1.
<scales pt_clust_3="41.37071" pt_clust_4="14000.00000" pt_clust_5="40.62511" pt_clust_6="99.45231"></scales>
<clustering>
<clus scale="   40.625">  2  5  1 -1</clus>
<clus scale="   41.371">  2  3  1 -1</clus>
<clus scale="   99.452">  1  6  2 -1</clus>
<clus scale="   99.452">  1  3  2 -1</clus>
</clustering>
</event>
<event>
 6    0  0.5563122E+002  0.1803680E+03  0.7546771E-02  0.1167447E+00
         21   -1    0    0  504  501  0.00000000000E+00  0.00000000000E+00  0.16607837694E+03  0.16607837694E+03  0.00000000000E+00 0.  1.
         21   -1    0    0  505  502 -0.00000000000E+00 -0.00000000000E+00 -0.76349427704E+03  0.76349427704E+03  0.00000000000E+00 0.  1.
         21    1    1    2  503  502 -0.30542300009E+02  0.33976189635E+02 -0.55631756511E+03  0.55819033206E+03  0.00000000000E+00 0.  1.
         21    1    1    2  504  506 -0.27826995854E+01 -0.86747399122E+02  0.20998624405E+02  0.89296119167E+02  0.00000000000E+00 0.  1.
         21    1    1    2  505  501 -0.19098621231E+02  0.14744373564E+03 -0.85301848128E+02  0.17140833645E+03  0.00000000000E+00 0.  1.
         21    1    1    2  506  503  0.52423620825E+02 -0.94672526150E+02  0.23204888738E+02  0.11067786630E+03  0.00000000000E+00 0.  1.
<scales pt_clust_3="45.68603" pt_clust_4="46.82674" pt_clust_5="172.84212" pt_clust_6="46.82674"></scales>
<clustering>
<clus scale="   45.686">  2  3  1 -1</clus>
<clus scale="   46.827">  4  6 -1 -1</clus>
<clus scale="  172.842">  2  5  1 -1</clus>
<clus scale="  180.368">  1  3  2 -1</clus>
</clustering>
</event>
<event>
 6    0  0.5563122E+002  0.1468438E+03  0.7546771E-02  0.1204406E+00
         21   -1    0    0  503  501  0.00000000000E+00  0.00000000000E+00  0.12514186283E+04  0.12514186283E+04  0.00000000000E+00 0.  1.
         21   -1    0    0  506  502 -0.00000000000E+00 -0.00000000000E+00 -0.53629667174E+03  0.53629667174E+03  0.00000000000E+00 0. -1.
         21    1    1    2  503  502  0.54182813702E+02 -0.39833992483E+02  0.11819889879E+04  0.11839005413E+04  0.00000000000E+00 0.  1.
         21    1    1    2  504  505  0.39024798164E+02  0.59068069751E+02 -0.35672038363E+02  0.79274624294E+02  0.00000000000E+00 0.  1.
         21    1    1    2  505  501  0.39311467524E+02  0.30470756164E+02  0.18523963817E+02  0.53075377489E+02  0.00000000000E+00 0. -1.
         21    1    1    2  506  504 -0.13251907939E+03 -0.49704833433E+02 -0.44971895682E+03  0.47146475690E+03  0.00000000000E+00 0. -1.
<scales pt_clust_3="67.24972" pt_clust_4="46.43211" pt_clust_5="46.43211" pt_clust_6="135.99412"></scales>
<clustering>
<clus scale="   46.432">  4  5 -1 -1</clus>
<clus scale="   67.250">  1  3  2 -1</clus>
<clus scale="  135.994">  2  6  1 -1</clus>
<clus scale="   67.250">  1  3  2 -1</clus>
</clustering>
</event>
<event>
 6    0  0.5563122E+002  0.6792777E+02  0.7546771E-02  0.1367285E+00
         21   -1    0    0  505  501  0.00000000000E+00  0.00000000000E+00  0.28832014804E+03  0.28832014804E+03  0.00000000000E+00 0. -1.
         21   -1    0    0  503  502 -0.00000000000E+00 -0.00000000000E+00 -0.38821614542E+03  0.38821614542E+03  0.00000000000E+00 0.  1.
         21    1    1    2  503  504  0.29614106878E+02 -0.17661729677E+02 -0.33554165154E+03  0.33730865975E+03  0.00000000000E+00 0.  1.
         21    1    1    2  504  506 -0.81102230052E+02 -0.35317948319E+02  0.29197537746E+02  0.93152699388E+02  0.00000000000E+00 0.  1.
         21    1    1    2  505  502 -0.67712693632E+01  0.67746011243E+02  0.14464291738E+03  0.15986539863E+03  0.00000000000E+00 0. -1.
         21    1    1    2  506  501  0.58259392537E+02 -0.14766333248E+02  0.61805199035E+02  0.86209535691E+02  0.00000000000E+00 0. -1.
<scales pt_clust_3="34.48089" pt_clust_4="14000.00000" pt_clust_5="65.19533" pt_clust_6="67.92777"></scales>
<clustering>
<clus scale="   34.481">  2  3  1 -1</clus>
<clus scale="   65.195">  1  5  2 -1</clus>
<clus scale="   67.928">  1  6  2 -1</clus>
<clus scale="   65.195">  1  3  2 -1</clus>
</clustering>
</event>
<event>
 6    0  0.5563122E+002  0.1199126E+03  0.7546771E-02  0.1243241E+00
         21   -1    0    0  504  501  0.00000000000E+00  0.00000000000E+00  0.82068931948E+03  0.82068931948E+03  0.00000000000E+00 0.  1.
         21   -1    0    0  506  502 -0.00000000000E+00 -0.00000000000E+00 -0.16212117439E+03  0.16212117439E+03  0.00000000000E+00 0.  1.
         21    1    1    2  503  502  0.11078460936E+03 -0.21760384579E+02  0.35662544428E+02  0.11840000457E+03  0.00000000000E+00 0.  1.
         21    1    1    2  504  503 -0.34168979380E+01  0.61319019738E+02  0.71038493678E+03  0.71303468063E+03  0.00000000000E+00 0.  1.
         21    1    1    2  505  501 -0.34943703723E+02 -0.25524841464E+02 -0.10040753848E+02  0.44422929884E+02  0.00000000000E+00 0.  1.
         21    1    1    2  506  505 -0.72424007698E+02 -0.14033793695E+02 -0.77438582271E+02  0.10695287879E+03  0.00000000000E+00 0.  1.
<scales pt_clust_3="110.49765" pt_clust_4="61.41415" pt_clust_5="35.67185" pt_clust_6="35.67185"></scales>
<clustering>
<clus scale="   35.672">  5  6 -1 -1</clus>
<clus scale="   61.414">  1  4  2 -1</clus>
<clus scale="  110.498">  1  3  2 -1</clus>
<clus scale="   61.414">  1  3  2 -1</clus>
</clustering>
</event>
<event>
 6    0  0.5563122E+002  0.1067002E+03  0.7546771E-02  0.1266806E+00
         21   -1    0    0  504  501  0.00000000000E+00  0.00000000000E+00  0.78251931048E+02  0.78251931048E+02  0.00000000000E+00 0. -1.
         21   -1    0    0  501  502 -0.00000000000E+00 -0.00000000000E+00 -0.11848115847E+04  0.11848115847E+04  0.00000000000E+00 0. -1.
         21    1    1    2  503  502 -0.42089765611E+02 -0.67307328518E+02 -0.51497867371E+03  0.52106128163E+03  0.00000000000E+00 0. -1.
         21    1    1    2  504  505  0.32979748203E+02 -0.59725101538E+02  0.50572483944E+02  0.84925424211E+02  0.00000000000E+00 0. -1.
         21    1    1    2  505  506 -0.11257571252E+01  0.83875005852E+02 -0.52777322362E+03  0.53439766046E+03  0.00000000000E+00 0. -1.
         21    1    1    2  506  503  0.10235774533E+02  0.43157424204E+02 -0.11438024023E+03  0.12267914941E+03  0.00000000000E+00 0.  1.
<scales pt_clust_3="90.64377" pt_clust_4="68.22574" pt_clust_5="40.93263" pt_clust_6="40.93263"></scales>
<clustering>
<clus scale="   40.933">  5  6 -1 -1</clus>
<clus scale="   68.226">  1  4  2 -1</clus>
<clus scale="   90.644">  2  3  1 -1</clus>
<clus scale="   68.226">  1  3  2 -1</clus>
</clustering>
</event>
<event>
 6    0  0.5563122E+002  0.1052429E+03  0.7546771E-02  0.1269642E+00
         21   -1    0    0  505  501  0.00000000000E+00  0.00000000000E+00  0.69225161292E+03  0.69225161292E+03  0.00000000000E+00 0. -1.
         21   -1    0    0  504  502 -0.00000000000E+00 -0.00000000000E+00 -0.82528185782E+02  0.82528185782E+02  0.00000000000E+00 0. -1.
         21    1    1    2  503  506 -0.21724607458E+02 -0.95175421219E+02  0.20295770199E+03  0.22521578136E+03  0.00000000000E+00 0. -1.
         21    1    1    2  504  501  0.97114305485E-02  0.88714926782E+02 -0.38173321743E+02  0.96579194557E+02  0.00000000000E+00 0. -1.
         21    1    1    2  505  503  0.22643312219E+01  0.38599769186E+02  0.32520993434E+03  0.32750048973E+03  0.00000000000E+00 0. -1.
         21    1    1    2  506  502  0.19450564806E+02 -0.32139274749E+02  0.11972911255E+03  0.12548433307E+03  0.00000000000E+00 0.  1.
<scales pt_clust_3="31.93109" pt_clust_4="91.79585" pt_clust_5="38.66613" pt_clust_6="31.93109"></scales>
<clustering>
<clus scale="   31.931">  3  6 -1 -1</clus>
<clus scale="   38.666">  1  5  2 -1</clus>
<clus scale="   91.796">  2  4  1 -1</clus>
<clus scale="   38.666">  1  3  2 -1</clus>
</clustering>
</event>
<event>
 6    0  0.5563122E+002  0.1892411E+03  0.7546771E-02  0.1159148E+00
         21   -1    0    0  506  501  0.00000000000E+00  0.00000000000E+00  0.27020616478E+03  0.27020616478E+03  0.00000000000E+00 0.  1.
         21   -1    0    0  503  502 -0.00000000000E+00 -0.00000000000E+00 -0.24145184682E+03  0.24145184682E+03  0.00000000000E+00 0. -1.
         21    1    1    2  503  505 -0.45778392429E+02  0.15432794049E+03 -0.11930466023E+03  0.20036560678E+03  0.00000000000E+00 0. -1.
         21    1    1    2  504  501  0.34420715354E+02 -0.15951546616E+03  0.12013905835E+03  0.20264097051E+03  0.00000000000E+00 0.  1.
         21    1    1    2  505  504  0.39114766894E+02 -0.35281363950E+02  0.10127624339E+01  0.52685532351E+02  0.00000000000E+00 0.  1.
         21    1    1    2  506  502 -0.27757089818E+02  0.40468889616E+02  0.26907157401E+02  0.55965901952E+02  0.00000000000E+00 0.  1.
<scales pt_clust_3="169.26782" pt_clust_4="48.07698" pt_clust_5="48.07698" pt_clust_6="49.07328"></scales>
<clustering>
<clus scale="   48.077">  4  5 -1 -1</clus>
<clus scale="   49.073">  1  6  2 -1</clus>
<clus scale="  169.268">  2  3  1 -1</clus>
<clus scale="   49.073">  1  3  2 -1</clus>
</clustering>
</event>
<event>
 6    0  0.5563122E+002  0.1517034E+03  0.7546771E-02  0.1198395E+00
         21   -1    0    0  504  501  0.00000000000E+00  0.00000000000E+00  0.47332873278E+03  0.47332873278E+03  0.00000000000E+00 0.  1.
         21   -1    0    0  506  502 -0.00000000000E+00 -0.00000000000E+00 -0.31575841400E+03  0.31575841400E+03  0.00000000000E+00 0.  1.
         21    1    1    2  503  505  0.70112167639E+02 -0.98987513664E+01  0.30905694998E+01  0.70874910578E+02  0.00000000000E+00 0.  1.
         21    1    1    2  504  503  0.90838824397E+02 -0.24520294385E+02 -0.14784798357E+03  0.17524828987E+03  0.00000000000E+00 0.  1.
         21    1    1    2  505  502 -0.37349883123E+01  0.33446140228E+02 -0.10292264664E+03  0.10828511266E+03  0.00000000000E+00 0. -1.
         21    1    1    2  506  501 -0.15721600372E+03  0.97290552278E+00  0.40525037949E+03  0.43467883368E+03  0.00000000000E+00 0.  1.
<scales pt_clust_3="69.65564" pt_clust_4="151.70336" pt_clust_5="33.65404" pt_clust_6="14000.00000"></scales>
<clustering>
<clus scale="   33.654">  2  5  1 -1</clus>
<clus scale="   69.656">  2  3  1 -1</clus>
<clus scale="  151.703">  2  4  1 -1</clus>
<clus scale="  151.703">  1  3  2 -1</clus>
</clustering>
</event>
<event>
 6    0  0.5563122E+002  0.8876983E+02  0.7546771E-02  0.1305858E+00
         21   -1    0    0  505  501  0.00000000000E+00  0.00000000000E+00  0.98070540760E+02  0.98070540760E+02  0.00000000000E+00 0. -1.
         21   -1    0    0  506  502 -0.00000000000E+00 -0.00000000000E+00 -0.77996077258E+03  0.77996077258E+03  0.00000000000E+00 0. -1.
         21    1    1    2  503  501  0.51180988513E+02  0.55470776770E+02 -0.11912606025E+03  0.14102311474E+03  0.00000000000E+00 0. -1.
         21    1    1    2  504  502 -0.11729114888E+03  0.92427562937E+01 -0.34330538847E+03  0.36290664350E+03  0.00000000000E+00 0. -1.
         21    1    1    2  505  504  0.61306608192E+02 -0.72471776902E+01  0.61586847205E+02  0.87200696907E+02  0.00000000000E+00 0. -1.
         21    1    1    2  506  503  0.48035521734E+01 -0.57466355373E+02 -0.28104563031E+03  0.28690085819E+03  0.00000000000E+00 0. -1.
<scales pt_clust_3="14000.00000" pt_clust_4="88.76983" pt_clust_5="62.04800" pt_clust_6="57.66677"></scales>
<clustering>
<clus scale="   57.667">  2  6  1 -1</clus>
<clus scale="   62.048">  1  5  2 -1</clus>
<clus scale="   88.770">  2  4  1 -1</clus>
<clus scale="   62.048">  1  3  2 -1</clus>
</clustering>
</event>
<event>
 6    0  0.5563122E+002  0.6551290E+02  0.7546771E-02  0.1376052E+00
         21   -1    0    0  504  501  0.00000000000E+00  0.00000000000E+00  0.24101603904E+04  0.24101603904E+04  0.00000000000E+00 0.  1.
         21   -1    0    0  503  502 -0.00000000000E+00 -0.00000000000E+00 -0.88141761435E+01  0.88141761435E+01  0.00000000000E+00 0.  1.
         21    1    1    2  503  506  0.26139867972E+02 -0.39384692030E+02  0.29362992254E+03  0.29741045388E+03  0.00000000000E+00 0.  1.
         21    1    1    2  504  505 -0.36021153954E+02 -0.41032506604E+01  0.31505294429E+03  0.31713201967E+03  0.00000000000E+00 0.  1.
         21    1    1    2  505  502 -0.55483576517E+02  0.77977775483E+02  0.46674061215E+03  0.47645121446E+03  0.00000000000E+00 0.  1.
         21    1    1    2  506  501  0.65364862499E+02 -0.34489832792E+02  0.13259227353E+04  0.13279808785E+04  0.00000000000E+00 0.  1.
<scales pt_clust_3="45.17163" pt_clust_4="36.25411" pt_clust_5="14000.00000" pt_clust_6="65.51290"></scales>
<clustering>
<clus scale="   36.254">  1  4  2 -1</clus>
<clus scale="   45.172">  2  3  1 -1</clus>
<clus scale="   65.513">  1  6  2 -1</clus>
<clus scale="   36.254">  1  3  2 -1</clus>
</clustering>
</event>
<event>
 6    0  0.5563122E+002  0.1921334E+03  0.7546771E-02  0.1156551E+00
         21   -1    0    0  503  501  0.00000000000E+00  0.00000000000E+00  0.49148904035E+02  0.49148904035E+02  0.00000000000E+00 0.  1.
         21   -1    0    0  501  502 -0.00000000000E+00 -0.00000000000E+00 -0.34124189203E+04  0.34124189203E+04  0.00000000000E+00 0.  1.
         21    1    1    2  503  506 -0.61747153942E+02  0.16375757873E+03 -0.12988997066E+03  0.21794646152E+03  0.00000000000E+00 0.  1.
         21    1    1    2  504  502 -0.25896942845E+02  0.21226540816E+02 -0.72991975010E+03  0.73068738820E+03  0.00000000000E+00 0.  1.
         21    1    1    2  505  504  0.33635607513E+02 -0.11022231869E+02 -0.35107660488E+03  0.35285638180E+03  0.00000000000E+00 0.  1.
         21    1    1    2  506  505  0.54008489274E+02 -0.17396188768E+03 -0.21523836906E+04  0.21600775928E+04  0.00000000000E+00 0.  1.
<scales pt_clust_3="176.89585" pt_clust_4="33.48459" pt_clust_5="33.05552" pt_clust_6="33.05552"></scales>
<clustering>
<clus scale="   33.056">  5  6 -1 -1</clus>
<clus scale="   33.485">  2  4  1 -1</clus>
<clus scale="  176.896">  1  3  2 -1</clus>
<clus scale="  176.896">  1  3  2 -1</clus>
</clustering>
</event>
<event>
 6    0  0.5563122E+002  0.2271622E+03  0.7546771E-02  0.1128653E+00
         21   -1    0    0  505  501  0.00000000000E+00  0.00000000000E+00  0.11636055448E+04  0.11636055448E+04  0.00000000000E+00 0. -1.
         21   -1    0    0  504  502 -0.00000000000E+00 -0.00000000000E+00 -0.16968697936E+03  0.16968697936E+03  0.00000000000E+00 0. -1.
         21    1    1    2  503  506  0.16713224971E+03 -0.44517253423E+02  0.17076907674E+03  0.24305771396E+03  0.00000000000E+00 0. -1.
         21    1    1    2  504  501  0.27594584726E+02  0.34776787474E+02  0.16005935305E+03  0.16610202452E+03  0.00000000000E+00 0.  1.
         21    1    1    2  505  503 -0.27559798020E+03  0.15148433681E+02  0.75364741179E+03  0.80260086159E+03  0.00000000000E+00 0. -1.
         21    1    1    2  506  502  0.80871145770E+02 -0.54079677318E+01 -0.90557276083E+02  0.12153192414E+03  0.00000000000E+00 0. -1.
<scales pt_clust_3="14000.00000" pt_clust_4="44.39466" pt_clust_5="227.16216" pt_clust_6="81.44400"></scales>
<clustering>
<clus scale="   44.395">  1  4  2 -1</clus>
<clus scale="   81.444">  2  6  1 -1</clus>
<clus scale="  227.162">  1  5  2 -1</clus>
<clus scale="   44.395">  1  3  2 -1</clus>
</clustering>
</event>
<event>
 6    0  0.5563122E+002  0.1366961E+03  0.7546771E-02  0.1217845E+00
         21   -1    0    0  506  501  0.00000000000E+00  0.00000000000E+00  0.27417993870E+04  0.27417993870E+04  0.00000000000E+00 0.  1.
         21   -1    0    0  504  502 -0.00000000000E+00 -0.00000000000E+00 -0.34186077947E+03  0.34186077947E+03  0.00000000000E+00 0.  1.
         21    1    1    2  503  501 -0.55069537094E+02  0.36348307407E+02  0.31486966835E+03  0.32170912547E+03  0.00000000000E+00 0.  1.
         21    1    1    2  504  503  0.73837202628E+02  0.11459687896E+03 -0.31828197140E+03  0.34624816314E+03  0.00000000000E+00 0.  1.
         21    1    1    2  505  502 -0.75411462007E+02 -0.16609513402E+03  0.16431998014E+04  0.16532937033E+04  0.00000000000E+00 0.  1.
         21    1    1    2  506  505  0.56643796472E+02  0.15149947647E+02  0.76015110916E+03  0.76240917450E+03  0.00000000000E+00 0.  1.
<scales pt_clust_3="60.14172" pt_clust_4="14000.00000" pt_clust_5="136.69605" pt_clust_6="58.63481"></scales>
<clustering>
<clus scale="   58.635">  1  6  2 -1</clus>
<clus scale="   60.142">  1  3  2 -1</clus>
<clus scale="  136.696">  1  5  2 -1</clus>
<clus scale="   58.635">  1  3  2 -1</clus>
</clustering>
</event>
<event>
 6    0  0.5563122E+002  0.1769983E+03  0.7546771E-02  0.1170740E+00
         21   -1    0    0  504  501  0.00000000000E+00  0.00000000000E+00  0.25460198322E+03  0.25460198322E+03  0.00000000000E+00 0. -1.
         21   -1    0    0  505  502 -0.00000000000E+00 -0.00000000000E+00 -0.19069169404E+03  0.19069169404E+03  0.00000000000E+00 0.  1.
         21    1    1    2  503  501  0.58367504173E+02  0.12062648004E+02 -0.20584742889E+02  0.63055568034E+02  0.00000000000E+00 0. -1.
         21    1    1    2  504  506 -0.13697607239E+02  0.32806287047E+02  0.55087054713E+02  0.65562645698E+02  0.00000000000E+00 0. -1.
         21    1    1    2  505  503  0.92950850151E+02 -0.80875601312E+02 -0.71327199770E+02  0.14236675475E+03  0.00000000000E+00 0.  1.
         21    1    1    2  506  502 -0.13762074709E+03  0.36006666261E+02  0.10073517713E+03  0.17430870878E+03  0.00000000000E+00 0. -1.
<scales pt_clust_3="55.43761" pt_clust_4="35.55105" pt_clust_5="55.43761" pt_clust_6="158.77759"></scales>
<clustering>
<clus scale="   35.551">  1  4  2 -1</clus>
<clus scale="   55.438">  3  5 -1 -1</clus>
<clus scale="  158.778">  1  6  2 -1</clus>
<clus scale="   35.551">  1  3  2 -1</clus>
</clustering>
</event>
<event>
 6    0  0.5563122E+002  0.2471731E+03  0.7546771E-02  0.1115104E+00
         21   -1    0    0  505  501  0.00000000000E+00  0.00000000000E+00  0.50143837995E+03  0.50143837995E+03  0.00000000000E+00 0.  1.
         21   -1    0    0  503  502 -0.00000000000E+00 -0.00000000000E+00 -0.55937374055E+03  0.55937374055E+03  0.00000000000E+00 0.  1.
         21    1    1    2  503  504 -0.16179071140E+03 -0.17884399621E+03 -0.39118725810E+03  0.45955291336E+03  0.00000000000E+00 0.  1.
         21    1    1    2  504  501  0.11383056752E+03  0.23712707378E+03  0.40013948289E+03  0.47885097159E+03  0.00000000000E+00 0.  1.
         21    1    1    2  505  506  0.27177439247E+02 -0.34247432951E+02  0.48106602929E+01  0.43984569115E+02  0.00000000000E+00 0. -1.
         21    1    1    2  506  502  0.20782704634E+02 -0.24035644626E+02 -0.71698245678E+02  0.78423666439E+02  0.00000000000E+00 0. -1.
<scales pt_clust_3="14000.00000" pt_clust_4="247.17311" pt_clust_5="45.00465" pt_clust_6="31.77472"></scales>
<clustering>
<clus scale="   31.775">  2  6  1 -1</clus>
<clus scale="   45.005">  1  5  2 -1</clus>
<clus scale="  247.173">  1  4  2 -1</clus>
<clus scale="   45.005">  1  3  2 -1</clus>
</clustering>
</event>
<event>
 6    0  0.5563122E+002  0.6842680E+02  0.7546771E-02  0.1365526E+00
         21   -1    0    0  505  501  0.00000000000E+00  0.00000000000E+00  0.56217109911E+02  0.56217109911E+02  0.00000000000E+00 0.  1.
         21   -1    0    0  506  502 -0.00000000000E+00 -0.00000000000E+00 -0.12155405220E+04  0.12155405220E+04  0.00000000000E+00 0.  1.
         21    1    1    2  503  502  0.13574839642E+02 -0.48337808096E+02 -0.51467433837E+03  0.51711748621E+03  0.00000000000E+00 0.  1.
         21    1    1    2  504  501  0.55982132524E+02  0.41203485425E+02  0.20756254495E+02  0.72543424745E+02  0.00000000000E+00 0.  1.
         21    1    1    2  505  503 -0.29534372938E+02 -0.59021729874E+02 -0.20853334787E+03  0.21872814395E+03  0.00000000000E+00 0.  1.
         21    1    1    2  506  504 -0.40022599228E+02  0.66156052545E+02 -0.45687198035E+03  0.46336857701E+03  0.00000000000E+00 0. -1.
<scales pt_clust_3="50.20777" pt_clust_4="68.42680" pt_clust_5="14000.00000" pt_clust_6="46.34632"></scales>
<clustering>
<clus scale="   50.208">  2  3  1 -1</clus>
<clus scale="   46.346">  2  6  1 -1</clus>
<clus scale="   68.427">  1  4  2 -1</clus>
<clus scale="   68.427">  1  3  2 -1</clus>
</clustering>
</event>
<event>
 6    0  0.5563122E+002  0.1047316E+03  0.7546771E-02  0.1270649E+00
         21   -1    0    0  503  501  0.00000000000E+00  0.00000000000E+00  0.11860572655E+03  0.11860572655E+03  0.00000000000E+00 0. -1.
         21   -1    0    0  506  502 -0.00000000000E+00 -0.00000000000E+00 -0.29628785222E+03  0.29628785222E+03  0.00000000000E+00 0. -1.
         21    1    1    2  503  505 -0.52796220443E+02  0.25766838747E+02  0.62897684963E+01  0.59084110045E+02  0.00000000000E+00 0. -1.
         21    1    1    2  504  501  0.73723185246E+02 -0.87234471475E+02 -0.61537648361E+02  0.12973759371E+03  0.00000000000E+00 0. -1.
         21    1    1    2  505  502  0.12159085441E+02  0.11625246341E+03 -0.44128920312E+02  0.12493934615E+03  0.00000000000E+00 0. -1.
         21    1    1    2  506  504 -0.33086050244E+02 -0.54784830683E+02 -0.78305325497E+02  0.10113252887E+03  0.00000000000E+00 0. -1.
<scales pt_clust_3="58.74837" pt_clust_4="104.73157" pt_clust_5="14000.00000" pt_clust_6="65.16152"></scales>
<clustering>
<clus scale="   58.748">  1  3  2 -1</clus>
<clus scale="   65.162">  2  6  1 -1</clus>
<clus scale="  104.732">  1  4  2 -1</clus>
<clus scale="   58.748">  1  3  2 -1</clus>
</clustering>
</event>
<event>
 6    0  0.5563122E+002  0.1666292E+03  0.7546771E-02  0.1181409E+00
         21   -1    0    0  503  501  0.00000000000E+00  0.00000000000E+00  0.22428277279E+03  0.22428277279E+03  0.00000000000E+00 0.  1.
         21   -1    0    0  505  502 -0.00000000000E+00 -0.00000000000E+00 -0.59100109199E+03  0.59100109199E+03  0.00000000000E+00 0. -1.
         21    1    1    2  503  506 -0.77601901356E+02  0.10741545754E+03 -0.21953658923E+03  0.25643020420E+03  0.00000000000E+00 0. -1.
         21    1    1    2  504  501  0.27936707543E+02  0.12641756966E+02  0.29242783414E+02  0.42372326220E+02  0.00000000000E+00 0. -1.
         21    1    1    2  505  504  0.77718283629E+02 -0.15196573807E+03  0.12532540929E+03  0.21175498901E+03  0.00000000000E+00 0.  1.
         21    1    1    2  506  502 -0.28053089816E+02  0.31908523564E+02 -0.30174992267E+03  0.30472634536E+03  0.00000000000E+00 0. -1.
<scales pt_clust_3="14000.00000" pt_clust_4="30.66388" pt_clust_5="166.62922" pt_clust_6="42.41677"></scales>
<clustering>
<clus scale="   30.664">  1  4  2 -1</clus>
<clus scale="   42.417">  2  6  1 -1</clus>
<clus scale="  166.629">  1  5  2 -1</clus>
<clus scale="   30.664">  1  3  2 -1</clus>
</clustering>
</event>
<event>
 6    0  0.5563122E+002  0.1039620E+03  0.7546771E-02  0.1272178E+00
         21   -1    0    0  506  501  0.00000000000E+00  0.00000000000E+00  0.14162096660E+03  0.14162096660E+03  0.00000000000E+00 0. -1.
         21   -1    0    0  504  502 -0.00000000000E+00 -0.00000000000E+00 -0.84909911899E+03  0.84909911899E+03  0.00000000000E+00 0.  1.
         21    1    1    2  503  502 -0.30519876570E+02  0.19564122497E+02 -0.69125523732E+03  0.69220518698E+03  0.00000000000E+00 0.  1.
         21    1    1    2  504  505  0.88921282318E+02 -0.13559003247E+02  0.15985212296E+02  0.91358458997E+02  0.00000000000E+00 0. -1.
         21    1    1    2  505  501  0.39267736602E+02  0.35068927698E+01  0.60464994440E+02  0.72182193008E+02  0.00000000000E+00 0. -1.
         21    1    1    2  506  503 -0.97669142350E+02 -0.95120120194E+01 -0.92673121809E+02  0.13497424660E+03  0.00000000000E+00 0. -1.
<scales pt_clust_3="36.25214" pt_clust_4="103.96199" pt_clust_5="38.36601" pt_clust_6="14000.00000"></scales>
<clustering>
<clus scale="   36.252">  2  3  1 -1</clus>
<clus scale="   38.366">  1  5  2 -1</clus>
<clus scale="  103.962">  1  4  2 -1</clus>
<clus scale="   38.366">  1  3  2 -1</clus>
</clustering>
</event>
<event>
 6    0  0.5563122E+002  0.9265258E+02  0.7546771E-02  0.1296552E+00
         21   -1    0    0  505  501  0.00000000000E+00  0.00000000000E+00  0.54111351174E+02  0.54111351174E+02  0.00000000000E+00 0.  1.
         21   -1    0    0  506  502 -0.00000000000E+00 -0.00000000000E+00 -0.32445077239E+04  0.32445077239E+04  0.00000000000E+00 0. -1.
         21    1    1    2  503  502  0.87499794727E+02  0.77109996984E+02 -0.64132742759E+03  0.65184586759E+03  0.00000000000E+00 0. -1.
         21    1    1    2  504  501 -0.11465703151E+03  0.38666274317E+02 -0.13520829318E+04  0.13574864899E+04  0.00000000000E+00 0. -1.
         21    1    1    2  505  503 -0.10006042657E+02 -0.82851023220E+02  0.74893523775E+01  0.83788443936E+02  0.00000000000E+00 0.  1.
         21    1    1    2  506  504  0.37163279437E+02 -0.32925248082E+02 -0.12044753657E+04  0.12054982736E+04  0.00000000000E+00 0. -1.
<scales pt_clust_3="14000.00000" pt_clust_4="92.65258" pt_clust_5="83.98461" pt_clust_6="49.65059"></scales>
<clustering>
<clus scale="   49.651">  2  6  1 -1</clus>
<clus scale="   83.985">  1  5  2 -1</clus>
<clus scale="   92.653">  2  4  1 -1</clus>
<clus scale="   83.985">  1  3  2 -1</clus>
</clustering>
</event>
<event>
 6    0  0.5563122E+002  0.1593487E+03  0.7546771E-02  0.1189434E+00
         21   -1    0    0  503  501  0.00000000000E+00  0.00000000000E+00  0.17261332044E+03  0.17261332044E+03  0.00000000000E+00 0. -1.
         21   -1    0    0  504  502 -0.00000000000E+00 -0.00000000000E+00 -0.16422272462E+04  0.16422272462E+04  0.00000000000E+00 0. -1.
         21    1    1    2  503  505 -0.42120078713E+02 -0.63762579204E+02 -0.16387258050E+03  0.18081479523E+03  0.00000000000E+00 0.  1.
         21    1    1    2  504  506 -0.51912886123E+02  0.60056660801E+02 -0.11171328575E+04  0.11199498076E+04  0.00000000000E+00 0. -1.
         21    1    1    2  505  502  0.22329673251E+01 -0.11112624339E+03 -0.30624341789E+03  0.32578990026E+03  0.00000000000E+00 0.  1.
         21    1    1    2  506  501  0.91799997511E+02  0.11483216179E+03  0.11763493015E+03  0.18828606352E+03  0.00000000000E+00 0. -1.
<scales pt_clust_3="48.78899" pt_clust_4="79.38356" pt_clust_5="48.78899" pt_clust_6="148.08718"></scales>
<clustering>
<clus scale="   48.789">  3  5 -1 -1</clus>
<clus scale="   79.384">  2  4  1 -1</clus>
<clus scale="  148.087">  1  6  2 -1</clus>
<clus scale="  148.087">  1  3  2 -1</clus>
</clustering>
</event>
<event>
 6    0  0.5563122E+002  0.6592496E+02  0.7546771E-02  0.1374526E+00
         21   -1    0    0  503  501  0.00000000000E+00  0.00000000000E+00  0.18058211847E+04  0.18058211847E+04  0.00000000000E+00 0. -1.
         21   -1    0    0  504  502 -0.00000000000E+00 -0.00000000000E+00 -0.31516079933E+02  0.31516079933E+02  0.00000000000E+00 0. -1.
         21    1    1    2  503  505 -0.55862352909E+02  0.30229799552E+02  0.13933579259E+04  0.13948049158E+04  0.00000000000E+00 0. -1.
         21    1    1    2  504  501  0.96377424673E+01  0.31569891783E+02  0.10950507583E+03  0.11437178751E+03  0.00000000000E+00 0. -1.
         21    1    1    2  505  506  0.95869726595E+02 -0.84153637534E+02  0.21307167946E+03  0.24833924333E+03  0.00000000000E+00 0. -1.
         21    1    1    2  506  502 -0.49645116154E+02  0.22353946199E+02  0.58370423550E+02  0.79821318042E+02  0.00000000000E+00 0. -1.
<scales pt_clust_3="65.92496" pt_clust_4="33.00824" pt_clust_5="14000.00000" pt_clust_6="57.27245"></scales>
<clustering>
<clus scale="   33.008">  2  4  1 -1</clus>
<clus scale="   57.272">  2  6  1 -1</clus>
<clus scale="   65.925">  1  3  2 -1</clus>
<clus scale="   65.925">  1  3  2 -1</clus>
</clustering>
</event>
<event>
 6    0  0.5563122E+002  0.7322795E+02  0.7546771E-02  0.1349448E+00
         21   -1    0    0  504  501  0.00000000000E+00  0.00000000000E+00  0.12614967278E+03  0.12614967278E+03  0.00000000000E+00 0. -1.
         21   -1    0    0  503  502 -0.00000000000E+00 -0.00000000000E+00 -0.31566745308E+04  0.31566745308E+04  0.00000000000E+00 0. -1.
         21    1    1    2  503  506  0.48193586726E+00 -0.73116650171E+02 -0.29461250353E+04  0.29470322360E+04  0.00000000000E+00 0. -1.
         21    1    1    2  504  502 -0.40964008586E+02 -0.44361755157E+02 -0.12488805146E+03  0.13871928747E+03  0.00000000000E+00 0.  1.
         21    1    1    2  505  501  0.28851551572E+02  0.38912662749E+02  0.90900361050E+02  0.10300234458E+03  0.00000000000E+00 0. -1.
         21    1    1    2  506  505  0.11630521147E+02  0.78565742579E+02 -0.50412132305E+02  0.94070335456E+02  0.00000000000E+00 0. -1.
<scales pt_clust_3="73.22795" pt_clust_4="48.99066" pt_clust_5="48.44179" pt_clust_6="14000.00000"></scales>
<clustering>
<clus scale="   48.442">  1  5  2 -1</clus>
<clus scale="   48.991">  1  4  2 -1</clus>
<clus scale="   73.228">  2  3  1 -1</clus>
<clus scale="   48.442">  1  3  2 -1</clus>
</clustering>
</event>
<event>
 6    0  0.5563122E+002  0.1156654E+03  0.7546771E-02  0.1250424E+00
         21   -1    0    0  503  501  0.00000000000E+00  0.00000000000E+00  0.44211522839E+03  0.44211522839E+03  0.00000000000E+00 0. -1.
         21   -1    0    0  504  502 -0.00000000000E+00 -0.00000000000E+00 -0.56303671800E+03  0.56303671800E+03  0.00000000000E+00 0. -1.
         21    1    1    2  503  502  0.14349102906E+02 -0.61452209638E+02  0.37439221896E+03  0.37967328645E+03  0.00000000000E+00 0. -1.
         21    1    1    2  504  505  0.95396379009E+01  0.48026431093E+02 -0.33299255232E+03  0.33657329466E+03  0.00000000000E+00 0. -1.
         21    1    1    2  505  506 -0.23794583624E+02  0.10133751720E+03 -0.17139284194E+03  0.20052675849E+03  0.00000000000E+00 0. -1.
         21    1    1    2  506  501 -0.94157182868E-01 -0.87911738652E+02  0.90716856888E+01  0.88378606799E+02  0.00000000000E+00 0.  1.
<scales pt_clust_3="62.58973" pt_clust_4="48.96471" pt_clust_5="115.66540" pt_clust_6="14000.00000"></scales>
<clustering>
<clus scale="   48.965">  2  4  1 -1</clus>
<clus scale="   62.590">  1  3  2 -1</clus>
<clus scale="  115.665">  2  5  1 -1</clus>
<clus scale="   62.590">  1  3  2 -1</clus>
</clustering>
</event>
<event>
 6    0  0.5563122E+002  0.1322836E+03  0.7546771E-02  0.1224106E+00
         21   -1    0    0  503  501  0.00000000000E+00  0.00000000000E+00  0.46423145561E+03  0.46423145561E+03  0.00000000000E+00 0. -1.
         21   -1    0    0  504  502 -0.00000000000E+00 -0.00000000000E+00 -0.26349891294E+03  0.26349891294E+03  0.00000000000E+00 0.  1.
         21    1    1    2  503  506  0.70227369085E+02  0.79038077383E+02 -0.66588266430E+02  0.12495158371E+03  0.00000000000E+00 0.  1.
         21    1    1    2  504  505 -0.64848308435E+02 -0.95432301036E+02  0.21926872836E+03  0.24777288477E+03  0.00000000000E+00 0. -1.
         21    1    1    2  505  501 -0.61655177201E+02  0.18264341407E+02  0.19091161712E+03  0.20145022362E+03  0.00000000000E+00 0. -1.
         21    1    1    2  506  502  0.56276116551E+02 -0.18701177537E+01 -0.14285953639E+03  0.15355567646E+03  0.00000000000E+00 0. -1.
<scales pt_clust_3="132.28362" pt_clust_4="14000.00000" pt_clust_5="61.81655" pt_clust_6="56.30718"></scales>
<clustering>
<clus scale="   56.307">  2  6  1 -1</clus>
<clus scale="   61.817">  1  5  2 -1</clus>
<clus scale="  132.284">  2  3  1 -1</clus>
<clus scale="   61.817">  1  3  2 -1</clus>
</clustering>
</event>
<event>
 6    0  0.5872133E+002  0.1005238E+03  0.7546771E-02  0.1279198E+00
         21   -1    0    0  506  501  0.00000000000E+00  0.00000000000E+00  0.57758657383E+03  0.57758657383E+03  0.00000000000E+00 0.  1.
         21   -1    0    0  505  502 -0.00000000000E+00 -0.00000000000E+00 -0.12090721481E+03  0.12090721481E+03  0.00000000000E+00 0.  1.
         21    1    1    2  503  502 -0.38127398981E+02 -0.21470907168E+01  0.47721857064E+02  0.61120243727E+02  0.00000000000E+00 0. -1.
         21    1    1    2  504  501 -0.71934451290E+02  0.34771684132E+02  0.44192417204E+03  0.44908864285E+03  0.00000000000E+00 0.  1.
         21    1    1    2  505  504  0.85622544565E+02 -0.54857315369E+02 -0.80986143284E+02  0.12999730994E+03  0.00000000000E+00 0.  1.
         21    1    1    2  506  503  0.24439305706E+02  0.22232721955E+02  0.48019473202E+02  0.58287592123E+02  0.00000000000E+00 0.  1.
<scales pt_clust_3="35.59166" pt_clust_4="100.52384" pt_clust_5="14000.00000" pt_clust_6="33.03897"></scales>
<clustering>
<clus scale="   33.039">  1  6  2 -1</clus>
<clus scale="   35.592">  1  3  2 -1</clus>
<clus scale="  100.524">  1  4  2 -1</clus>
<clus scale="   33.039">  1  3  2 -1</clus>
</clustering>
</event>
<event>
 6    0  0.5563122E+002  0.2429870E+03  0.7546771E-02  0.1117819E+00
         21   -1    0    0  505  501  0.00000000000E+00  0.00000000000E+00  0.23259545247E+03  0.23259545247E+03  0.00000000000E+00 0. -1.
         21   -1    0    0  501  502 -0.00000000000E+00 -0.00000000000E+00 -0.57593413586E+03  0.57593413586E+03  0.00000000000E+00 0.  1.
         21    1    1    2  503  506 -0.19843738087E+03 -0.15298762657E+03 -0.16028814035E+03  0.29744729944E+03  0.00000000000E+00 0.  1.
         21    1    1    2  504  503  0.13979100567E+03  0.11556381713E+03  0.60023947908E+02  0.19104814948E+03  0.00000000000E+00 0. -1.
         21    1    1    2  505  504  0.53529341242E+01  0.55330561540E+02  0.13637969416E+02  0.57237392969E+02  0.00000000000E+00 0. -1.
         21    1    1    2  506  502  0.53293441076E+02 -0.17906752102E+02 -0.25671246037E+03  0.26279674644E+03  0.00000000000E+00 0.  1.
<scales pt_clust_3="230.42284" pt_clust_4="42.69640" pt_clust_5="42.69640" pt_clust_6="56.22137"></scales>
<clustering>
<clus scale="   42.696">  4  5 -1 -1</clus>
<clus scale="   56.221">  2  6  1 -1</clus>
<clus scale="  230.423">  2  3  1 -1</clus>
<clus scale="  242.987">  1  3  2 -1</clus>
</clustering>
</event>
<event>
 6    0  0.5563122E+002  0.1154169E+03  0.7546771E-02  0.1250855E+00
         21   -1    0    0  506  501  0.00000000000E+00  0.00000000000E+00  0.21108691977E+03  0.21108691977E+03  0.00000000000E+00 0. -1.
         21   -1    0    0  504  502 -0.00000000000E+00 -0.00000000000E+00 -0.11279876470E+04  0.11279876470E+04  0.00000000000E+00 0. -1.
         21    1    1    2  503  502 -0.83321408473E+02 -0.55999002547E+02 -0.10591834233E+04  0.10639303875E+04  0.00000000000E+00 0. -1.
         21    1    1    2  504  501  0.59028919432E+01 -0.73708107960E+02  0.53325894530E+02  0.91166772125E+02  0.00000000000E+00 0. -1.
         21    1    1    2  505  503  0.14224581206E+02  0.58957894549E+02  0.58705547981E+02  0.84408017415E+02  0.00000000000E+00 0. -1.
         21    1    1    2  506  505  0.63193935323E+02  0.70749215958E+02  0.30251253535E+02  0.99569389677E+02  0.00000000000E+00 0. -1.
<scales pt_clust_3="101.01609" pt_clust_4="73.94410" pt_clust_5="44.63973" pt_clust_6="44.63973"></scales>
<clustering>
<clus scale="   44.640">  5  6 -1 -1</clus>
<clus scale="   73.944">  1  4  2 -1</clus>
<clus scale="  101.016">  2  3  1 -1</clus>
<clus scale="   73.944">  1  3  2 -1</clus>
</clustering>
</event>
<event>
 6    0  0.5563122E+002  0.1561522E+03  0.7546771E-02  0.1193111E+00
         21   -1    0    0  504  501  0.00000000000E+00  0.00000000000E+00  0.68658610496E+03  0.68658610496E+03  0.00000000000E+00 0. -1.
         21   -1    0    0  505  502 -0.00000000000E+00 -0.00000000000E+00 -0.13120611393E+03  0.13120611393E+03  0.00000000000E+00 0. -1.
         21    1    1    2  503  506  0.88720254972E+01 -0.14898365893E+03  0.15962650260E+03  0.21853023543E+03  0.00000000000E+00 0. -1.
         21    1    1    2  504  503 -0.74032799452E+02  0.11014770769E+03  0.34112196644E+03  0.36602946451E+03  0.00000000000E+00 0. -1.
         21    1    1    2  505  501  0.43740238959E+02  0.12397554822E+03  0.32425649931E+01  0.13150535840E+03  0.00000000000E+00 0. -1.
         21    1    1    2  506  502  0.21420534996E+02 -0.85139596976E+02  0.51388956994E+02  0.10172716055E+03  0.00000000000E+00 0. -1.
<scales pt_clust_3="36.82983" pt_clust_4="148.58525" pt_clust_5="131.46538" pt_clust_6="36.82983"></scales>
<clustering>
<clus scale="   36.830">  3  6 -1 -1</clus>
<clus scale="  131.465">  2  5  1 -1</clus>
<clus scale="  148.585">  1  4  2 -1</clus>
<clus scale="  148.585">  1  3  2 -1</clus>
</clustering>
</event>
<event>
 6    0  0.5563122E+002  0.1113586E+03  0.7546771E-02  0.1258075E+00
         21   -1    0    0  504  501  0.00000000000E+00  0.00000000000E+00  0.79145368565E+03  0.79145368565E+03  0.00000000000E+00 0.  1.
         21   -1    0    0  505  502 -0.00000000000E+00 -0.00000000000E+00 -0.60843767464E+03  0.60843767464E+03  0.00000000000E+00 0. -1.
         21    1    1    2  503  506 -0.33765675461E+02  0.59618462206E+02  0.82986653257E+02  0.10761629288E+03  0.00000000000E+00 0.  1.
         21    1    1    2  504  502  0.59652683523E+02 -0.74056666278E+02  0.53457849812E+03  0.54297053615E+03  0.00000000000E+00 0.  1.
         21    1    1    2  505  503  0.23366646961E+02 -0.24816971020E+02 -0.58510934819E+03  0.58610138336E+03  0.00000000000E+00 0. -1.
         21    1    1    2  506  501 -0.49253655023E+02  0.39255175092E+02  0.15056020783E+03  0.16320314790E+03  0.00000000000E+00 0.  1.
<scales pt_clust_3="44.93509" pt_clust_4="101.34054" pt_clust_5="34.08639" pt_clust_6="44.93509"></scales>
<clustering>
<clus scale="   34.086">  2  5  1 -1</clus>
<clus scale="   44.935">  3  6 -1 -1</clus>
<clus scale="  101.341">  1  4  2 -1</clus>
<clus scale="  101.341">  1  3  2 -1</clus>
</clustering>
</event>
<event>
 6    0  0.5563122E+002  0.3261450E+03  0.7546771E-02  0.1072855E+00
         21   -1    0    0  506  501  0.00000000000E+00  0.00000000000E+00  0.48547178506E+03  0.48547178506E+03  0.00000000000E+00 0. -1.
         21   -1    0    0  504  502 -0.00000000000E+00 -0.00000000000E+00 -0.23777464809E+03  0.23777464809E+03  0.00000000000E+00 0. -1.
         21    1    1    2  503  502 -0.56027224102E+02 -0.23242714843E+03 -0.39937881783E+02  0.24239732583E+03  0.00000000000E+00 0. -1.
         21    1    1    2  504  505  0.17798625152E+02  0.18265296463E+03  0.19111040477E+03  0.26495675752E+03  0.00000000000E+00 0. -1.
         21    1    1    2  505  501  0.13679929549E+02  0.11887338926E+03  0.56072049050E+02  0.13214423117E+03  0.00000000000E+00 0. -1.
         21    1    1    2  506  503  0.24548669401E+02 -0.69099205465E+02  0.40452564932E+02  0.83748118634E+02  0.00000000000E+00 0.  1.
<scales pt_clust_3="66.59987" pt_clust_4="310.78937" pt_clust_5="55.24590" pt_clust_6="66.59987"></scales>
<clustering>
<clus scale="   55.246">  4  5 -1 -1</clus>
<clus scale="   66.600">  3  6 -1 -1</clus>
<clus scale="  310.789">  1  4  2 -1</clus>
<clus scale="  310.789">  1  3  2 -1</clus>
</clustering>
</event>
<event>
 6    0  0.5563122E+002  0.8090748E+02  0.7546771E-02  0.1326496E+00
         21   -1    0    0  504  501  0.00000000000E+00  0.00000000000E+00  0.57184158539E+02  0.57184158539E+02  0.00000000000E+00 0.  1.
         21   -1    0    0  505  502 -0.00000000000E+00 -0.00000000000E+00 -0.11995259890E+04  0.11995259890E+04  0.00000000000E+00 0. -1.
         21    1    1    2  503  502  0.50243412743E+02  0.39646596619E+02 -0.25935068152E+03  0.26713110854E+03  0.00000000000E+00 0. -1.
         21    1    1    2  504  506 -0.24038016795E+02 -0.61411609879E+02 -0.68941892648E+01  0.66307932595E+02  0.00000000000E+00 0.  1.
         21    1    1    2  505  501 -0.74414262047E+02 -0.87882390212E+02 -0.70542973812E+03  0.71476703360E+03  0.00000000000E+00 0. -1.
         21    1    1    2  506  503  0.48208866100E+02  0.10964740347E+03 -0.17066722157E+03  0.20850407281E+03  0.00000000000E+00 0.  1.
<scales pt_clust_3="64.00198" pt_clust_4="63.80194" pt_clust_5="80.90748" pt_clust_6="14000.00000"></scales>
<clustering>
<clus scale="   64.002">  2  3  1 -1</clus>
<clus scale="   63.802">  1  4  2 -1</clus>
<clus scale="   80.907">  2  5  1 -1</clus>
<clus scale="   63.802">  1  3  2 -1</clus>
</clustering>
</event>
<event>
 6    0  0.5563122E+002  0.1214515E+03  0.7546771E-02  0.1240721E+00
         21   -1    0    0  505  501  0.00000000000E+00  0.00000000000E+00  0.13688465305E+03  0.13688465305E+03  0.00000000000E+00 0. -1.
         21   -1    0    0  504  502 -0.00000000000E+00 -0.00000000000E+00 -0.48915403335E+03  0.48915403335E+03  0.00000000000E+00 0.  1.
         21    1    1    2  503  501 -0.13394086873E+02  0.74028161180E+02 -0.13029746934E+03  0.15045597604E+03  0.00000000000E+00 0.  1.
         21    1    1    2  504  503  0.94300224714E+01  0.66773457833E+02 -0.20693534164E+03  0.21764617068E+03  0.00000000000E+00 0.  1.
         21    1    1    2  505  506  0.23595513765E+02 -0.10879818228E+03  0.92053095150E+02  0.14445610082E+03  0.00000000000E+00 0. -1.
         21    1    1    2  506  502 -0.19631449363E+02 -0.32003436737E+02 -0.10708966448E+03  0.11348043886E+03  0.00000000000E+00 0. -1.
<scales pt_clust_3="37.96483" pt_clust_4="37.96483" pt_clust_5="113.21689" pt_clust_6="37.54482"></scales>
<clustering>
<clus scale="   37.545">  2  6  1 -1</clus>
<clus scale="   37.965">  3  4 -1 -1</clus>
<clus scale="  113.217">  1  5  2 -1</clus>
<clus scale="  113.217">  1  3  2 -1</clus>
</clustering>
</event>
<event>
 6    0  0.5563122E+002  0.1654520E+03  0.7546771E-02  0.1182675E+00
         21   -1    0    0  504  501  0.00000000000E+00  0.00000000000E+00  0.16271366231E+03  0.16271366231E+03  0.00000000000E+00 0.  1.
         21   -1    0    0  505  502 -0.00000000000E+00 -0.00000000000E+00 -0.57761124470E+03  0.57761124470E+03  0.00000000000E+00 0. -1.
         21    1    1    2  503  502 -0.31474303301E+02  0.36701676292E+02 -0.41119720022E+02  0.63470277970E+02  0.00000000000E+00 0.  1.
         21    1    1    2  504  503 -0.52707271766E+02  0.83053130605E+01 -0.59009850278E+01  0.53682924160E+02  0.00000000000E+00 0. -1.
         21    1    1    2  505  506  0.17146120647E+03 -0.89046725064E+02 -0.45367417323E+03  0.49310092276E+03  0.00000000000E+00 0. -1.
         21    1    1    2  506  501 -0.87279631406E+02  0.44039735712E+02  0.85797295894E+02  0.13007078213E+03  0.00000000000E+00 0.  1.
<scales pt_clust_3="46.65102" pt_clust_4="46.65102" pt_clust_5="158.02719" pt_clust_6="97.76110"></scales>
<clustering>
<clus scale="   46.651">  3  4 -1 -1</clus>
<clus scale="   97.761">  1  6  2 -1</clus>
<clus scale="  158.027">  2  5  1 -1</clus>
<clus scale="   97.761">  1  3  2 -1</clus>
</clustering>
</event>
<event>
 6    0  0.5563122E+002  0.4237888E+03  0.7546771E-02  0.1035840E+00
         21   -1    0    0  506  501  0.00000000000E+00  0.00000000000E+00  0.91492241391E+03  0.91492241391E+03  0.00000000000E+00 0.  1.
         21   -1    0    0  504  502 -0.00000000000E+00 -0.00000000000E+00 -0.24843556763E+03  0.24843556763E+03  0.00000000000E+00 0.  1.
         21    1    1    2  503  501 -0.54939766385E+02 -0.38956400150E+03  0.54382494137E+03  0.67121088791E+03  0.00000000000E+00 0.  1.
         21    1    1    2  504  503  0.17645522141E+02 -0.25521085446E+02 -0.10350621135E+02  0.32708188758E+02  0.00000000000E+00 0. -1.
         21    1    1    2  505  502 -0.39899417580E+02  0.51476468570E+02  0.39402447650E+02  0.76120583422E+02  0.00000000000E+00 0.  1.
         21    1    1    2  506  505  0.77193661823E+02  0.36360861838E+03  0.93610078397E+02  0.38331832145E+03  0.00000000000E+00 0.  1.
<scales pt_clust_3="399.86451" pt_clust_4="31.02725" pt_clust_5="58.67728" pt_clust_6="58.67728"></scales>
<clustering>
<clus scale="   31.027">  2  4  1 -1</clus>
<clus scale="   58.677">  5  6 -1 -1</clus>
<clus scale="  399.865">  1  3  2 -1</clus>
<clus scale="  399.865">  1  3  2 -1</clus>
</clustering>
</event>
<event>
 6    0  0.5563122E+002  0.1156234E+03  0.7546771E-02  0.1250497E+00
         21   -1    0    0  504  501  0.00000000000E+00  0.00000000000E+00  0.31385223351E+03  0.31385223351E+03  0.00000000000E+00 0.  1.
         21   -1    0    0  506  502 -0.00000000000E+00 -0.00000000000E+00 -0.95447467065E+03  0.95447467065E+03  0.00000000000E+00 0. -1.
         21    1    1    2  503  502  0.10959689219E+03 -0.47157112549E+02  0.55288491103E+02  0.13149938894E+03  0.00000000000E+00 0. -1.
         21    1    1    2  504  503  0.33728306564E+02 -0.38823526073E+02  0.18247950787E+03  0.18958806828E+03  0.00000000000E+00 0.  1.
         21    1    1    2  505  501 -0.94358218246E+02  0.15106160539E+02 -0.38630728311E+02  0.10307280246E+03  0.00000000000E+00 0.  1.
         21    1    1    2  506  505 -0.48966980509E+02  0.70874478083E+02 -0.83975970780E+03  0.84416664449E+03  0.00000000000E+00 0. -1.
<scales pt_clust_3="14000.00000" pt_clust_4="51.42825" pt_clust_5="115.62337" pt_clust_6="85.26388"></scales>
<clustering>
<clus scale="   51.428">  1  4  2 -1</clus>
<clus scale="   85.264">  2  6  1 -1</clus>
<clus scale="  115.623">  1  5  2 -1</clus>
<clus scale="   51.428">  1  3  2 -1</clus>
</clustering>
</event>
<event>
 6    0  0.5563122E+002  0.2614237E+03  0.7546771E-02  0.1106291E+00
         21   -1    0    0  504  501  0.00000000000E+00  0.00000000000E+00  0.87135601998E+03  0.87135601998E+03  0.00000000000E+00 0.  1.
         21   -1    0    0  503  502 -0.00000000000E+00 -0.00000000000E+00 -0.10530484913E+04  0.10530484913E+04  0.00000000000E+00 0. -1.
         21    1    1    2  503  505  0.55304892497E+02 -0.14372644669E+02 -0.95029411702E+03  0.95201056344E+03  0.00000000000E+00 0. -1.
         21    1    1    2  504  506 -0.13076695171E+03 -0.23657094992E+03  0.50958045211E+03  0.57683450589E+03  0.00000000000E+00 0.  1.
         21    1    1    2  505  501 -0.37313597949E+02  0.27005851087E+02  0.58802054565E+02  0.74694726761E+02  0.00000000000E+00 0. -1.
         21    1    1    2  506  502  0.11277565717E+03  0.22393774350E+03  0.20021913904E+03  0.32086471519E+03  0.00000000000E+00 0.  1.
<scales pt_clust_3="57.09620" pt_clust_4="261.42370" pt_clust_5="46.06105" pt_clust_6="14000.00000"></scales>
<clustering>
<clus scale="   46.061">  1  5  2 -1</clus>
<clus scale="   57.096">  2  3  1 -1</clus>
<clus scale="  261.424">  1  4  2 -1</clus>
<clus scale="   46.061">  1  3  2 -1</clus>
</clustering>
</event>
<event>
 6    0  0.5563122E+002  0.1501325E+03  0.7546771E-02  0.1200310E+00
         21   -1    0    0  503  501  0.00000000000E+00  0.00000000000E+00  0.80410523422E+03  0.80410523422E+03  0.00000000000E+00 0. -1.
         21   -1    0    0  504  502 -0.00000000000E+00 -0.00000000000E+00 -0.62369166423E+02  0.62369166423E+02  0.00000000000E+00 0. -1.
         21    1    1    2  503  505  0.99456585615E+02  0.98711908073E+02  0.58469367831E+03  0.60125065544E+03  0.00000000000E+00 0. -1.
         21    1    1    2  504  501  0.28178306414E+02 -0.31688250254E+02  0.89991013596E+02  0.99481378582E+02  0.00000000000E+00 0. -1.
         21    1    1    2  505  506 -0.32027938932E+02 -0.35102313360E+02  0.38001051941E+02  0.60844401748E+02  0.00000000000E+00 0.  1.
         21    1    1    2  506  502 -0.95606953097E+02 -0.31921344460E+02  0.29050323954E+02  0.10489796487E+03  0.00000000000E+00 0. -1.
<scales pt_clust_3="142.64629" pt_clust_4="42.40474" pt_clust_5="32.14479" pt_clust_6="32.14479"></scales>
<clustering>
<clus scale="   32.145">  5  6 -1 -1</clus>
<clus scale="   42.405">  1  4  2 -1</clus>
<clus scale="  142.646">  1  3  2 -1</clus>
<clus scale="   42.405">  1  3  2 -1</clus>
</clustering>
</event>
<event>
 6    0  0.5563122E+002  0.7858422E+02  0.7546771E-02  0.1333118E+00
         21   -1    0    0  504  501  0.00000000000E+00  0.00000000000E+00  0.63135326945E+03  0.63135326945E+03  0.00000000000E+00 0.  1.
         21   -1    0    0  506  502 -0.00000000000E+00 -0.00000000000E+00 -0.24764134327E+04  0.24764134327E+04  0.00000000000E+00 0.  1.
         21    1    1    2  503  505  0.48579459243E+02 -0.10742246462E+03  0.18756095010E+03  0.22153703926E+03  0.00000000000E+00 0.  1.
         21    1    1    2  504  503  0.29969756040E+02 -0.21555034084E+02  0.34697084855E+03  0.34892918410E+03  0.00000000000E+00 0.  1.
         21    1    1    2  505  502 -0.45936284081E+02  0.63619529847E+02 -0.24407643709E+04  0.24420254505E+04  0.00000000000E+00 0.  1.
         21    1    1    2  506  501 -0.32612931202E+02  0.65357968852E+02  0.61172409041E+02  0.95275028218E+02  0.00000000000E+00 0.  1.
<scales pt_clust_3="14000.00000" pt_clust_4="36.91620" pt_clust_5="78.58422" pt_clust_6="64.20154"></scales>
<clustering>
<clus scale="   36.916">  1  4  2 -1</clus>
<clus scale="   64.202">  1  6  2 -1</clus>
<clus scale="   78.584">  2  5  1 -1</clus>
<clus scale="   36.916">  1  3  2 -1</clus>
</clustering>
</event>
<event>
 6    0  0.5563122E+002  0.9866979E+02  0.7546771E-02  0.1283118E+00
         21   -1    0    0  503  501  0.00000000000E+00  0.00000000000E+00  0.25395449314E+03  0.25395449314E+03  0.00000000000E+00 0. -1.
         21   -1    0    0  506  502 -0.00000000000E+00 -0.00000000000E+00 -0.10540019426E+04  0.10540019426E+04  0.00000000000E+00 0.  1.
         21    1    1    2  503  504  0.29307972284E+02  0.44744117310E+02  0.24177953227E+03  0.24762539348E+03  0.00000000000E+00 0. -1.
         21    1    1    2  504  502  0.27776832329E+02  0.61133750916E+02 -0.35148807095E+03  0.35784459188E+03  0.00000000000E+00 0.  1.
         21    1    1    2  505  501 -0.98278586377E+01 -0.70127677684E+02 -0.37263650196E+03  0.37930520768E+03  0.00000000000E+00 0.  1.
         21    1    1    2  506  505 -0.47256945975E+02 -0.35750190542E+02 -0.31770240884E+03  0.32318124273E+03  0.00000000000E+00 0.  1.
<scales pt_clust_3="53.48825" pt_clust_4="85.35294" pt_clust_5="45.28422" pt_clust_6="45.28422"></scales>
<clustering>
<clus scale="   45.284">  5  6 -1 -1</clus>
<clus scale="   53.488">  1  3  2 -1</clus>
<clus scale="   85.353">  2  4  1 -1</clus>
<clus scale="   53.488">  1  3  2 -1</clus>
</clustering>
</event>
<event>
 6    0  0.5563122E+002  0.1504437E+03  0.7546771E-02  0.1199929E+00
         21   -1    0    0  506  501  0.00000000000E+00  0.00000000000E+00  0.21221968803E+04  0.21221968803E+04  0.00000000000E+00 0. -1.
         21   -1    0    0  503  502 -0.00000000000E+00 -0.00000000000E+00 -0.28240456918E+02  0.28240456918E+02  0.00000000000E+00 0. -1.
         21    1    1    2  503  504 -0.68896908178E+02  0.35154990204E+02  0.99011916303E+02  0.12564241665E+03  0.00000000000E+00 0. -1.
         21    1    1    2  504  505 -0.69124625205E+02  0.26094871503E+02  0.15894030537E+03  0.17527457545E+03  0.00000000000E+00 0. -1.
         21    1    1    2  505  501  0.14130254950E+03  0.18066200071E+02  0.12733986886E+04  0.12813418819E+04  0.00000000000E+00 0. -1.
         21    1    1    2  506  502 -0.32810161182E+01 -0.79316061779E+02  0.56260551304E+03  0.56817846318E+03  0.00000000000E+00 0. -1.
<scales pt_clust_3="34.00056" pt_clust_4="34.00056" pt_clust_5="146.36633" pt_clust_6="79.38389"></scales>
<clustering>
<clus scale="   34.001">  3  4 -1 -1</clus>
<clus scale="   79.384">  1  6  2 -1</clus>
<clus scale="  146.366">  1  5  2 -1</clus>
<clus scale="   79.384">  1  3  2 -1</clus>
</clustering>
</event>
<event>
 6    0  0.5563122E+002  0.7358076E+02  0.7546771E-02  0.1348323E+00
         21   -1    0    0  504  501  0.00000000000E+00  0.00000000000E+00  0.35807609216E+03  0.35807609216E+03  0.00000000000E+00 0. -1.
         21   -1    0    0  506  502 -0.00000000000E+00 -0.00000000000E+00 -0.20882635661E+03  0.20882635661E+03  0.00000000000E+00 0.  1.
         21    1    1    2  503  502  0.37658875873E+02 -0.42661438627E+02 -0.16231577685E+03  0.17200174619E+03  0.00000000000E+00 0.  1.
         21    1    1    2  504  503 -0.37388346891E+02  0.86525164098E+02  0.93610458403E+02  0.13284355621E+03  0.00000000000E+00 0.  1.
         21    1    1    2  505  501 -0.34745343350E+02 -0.58822672949E+02  0.21355916435E+03  0.22422056644E+03  0.00000000000E+00 0. -1.
         21    1    1    2  506  505  0.34474814368E+02  0.14958947478E+02  0.43958896505E+01  0.37836579935E+02  0.00000000000E+00 0.  1.
<scales pt_clust_3="14000.00000" pt_clust_4="73.58076" pt_clust_5="67.47683" pt_clust_6="37.58035"></scales>
<clustering>
<clus scale="   37.580">  2  6  1 -1</clus>
<clus scale="   67.477">  1  5  2 -1</clus>
<clus scale="   73.581">  1  4  2 -1</clus>
<clus scale="   67.477">  1  3  2 -1</clus>
</clustering>
</event>
<event>
 6    0  0.5563122E+002  0.7871434E+02  0.7546771E-02  0.1332740E+00
         21   -1    0    0  506  501  0.00000000000E+00  0.00000000000E+00  0.38668647391E+03  0.38668647391E+03  0.00000000000E+00 0. -1.
         21   -1    0    0  504  502 -0.00000000000E+00 -0.00000000000E+00 -0.58537043610E+02  0.58537043610E+02  0.00000000000E+00 0. -1.
         21    1    1    2  503  502  0.10431804137E+03 -0.17109031368E+02  0.12686227474E+03  0.16513330815E+03  0.00000000000E+00 0. -1.
         21    1    1    2  504  505 -0.19950060346E+02 -0.49209159102E+02  0.12542028211E+02  0.54560505120E+02  0.00000000000E+00 0. -1.
         21    1    1    2  505  501 -0.37198199959E+02  0.64250968435E+02  0.95030327318E+02  0.12059293568E+03  0.00000000000E+00 0. -1.
         21    1    1    2  506  503 -0.47169781065E+02  0.20672220351E+01  0.93714800033E+02  0.10493676857E+03  0.00000000000E+00 0. -1.
<scales pt_clust_3="78.71434" pt_clust_4="55.18991" pt_clust_5="14000.00000" pt_clust_6="47.21506"></scales>
<clustering>
<clus scale="   47.215">  1  6  2 -1</clus>
<clus scale="   55.190">  2  4  1 -1</clus>
<clus scale="   78.714">  1  3  2 -1</clus>
<clus scale="   47.215">  1  3  2 -1</clus>
</clustering>
</event>
<event>
 6    0  0.5563122E+002  0.2166601E+03  0.7546771E-02  0.1136398E+00
         21   -1    0    0  506  501  0.00000000000E+00  0.00000000000E+00  0.10643419777E+04  0.10643419777E+04  0.00000000000E+00 0. -1.
         21   -1    0    0  503  502 -0.00000000000E+00 -0.00000000000E+00 -0.12678980956E+04  0.12678980956E+04  0.00000000000E+00 0.  1.
         21    1    1    2  503  505  0.19735699857E+03  0.17494962135E+03  0.18026995524E+03  0.31945956185E+03  0.00000000000E+00 0. -1.
         21    1    1    2  504  502 -0.25369480678E+02 -0.43269241264E+02 -0.10551632638E+04  0.10563547468E+04  0.00000000000E+00 0.  1.
         21    1    1    2  505  501 -0.22085215597E+03  0.27651179666E+02  0.74255112750E+03  0.77519187269E+03  0.00000000000E+00 0. -1.
         21    1    1    2  506  504  0.48864638078E+02 -0.15933155976E+03 -0.71213936864E+02  0.18123389195E+03  0.00000000000E+00 0.  1.
<scales pt_clust_3="216.66012" pt_clust_4="50.15813" pt_clust_5="14000.00000" pt_clust_6="188.13262"></scales>
<clustering>
<clus scale="   50.158">  2  4  1 -1</clus>
<clus scale="  188.133">  2  6  1 -1</clus>
<clus scale="  216.660">  2  3  1 -1</clus>
<clus scale="  216.660">  1  3  2 -1</clus>
</clustering>
</event>
<event>
 6    0  0.5563122E+002  0.1653993E+03  0.7546771E-02  0.1182732E+00
         21   -1    0    0  504  501  0.00000000000E+00  0.00000000000E+00  0.19087752277E+03  0.19087752277E+03  0.00000000000E+00 0. -1.
         21   -1    0    0  503  502 -0.00000000000E+00 -0.00000000000E+00 -0.21803271890E+03  0.21803271890E+03  0.00000000000E+00 0. -1.
         21    1    1    2  503  505  0.49955028725E+02  0.79187695671E+02 -0.12566070071E+02  0.94467466133E+02  0.00000000000E+00 0. -1.
         21    1    1    2  504  506 -0.10814883195E+03 -0.98167367826E+02  0.42617596713E+02  0.15214881369E+03  0.00000000000E+00 0. -1.
         21    1    1    2  505  501  0.82890053383E+02  0.52464827076E+02 -0.88437760005E+01  0.98496352236E+02  0.00000000000E+00 0. -1.
         21    1    1    2  506  502 -0.24696250161E+02 -0.33485154921E+02 -0.48362946773E+02  0.63797609615E+02  0.00000000000E+00 0.  1.
<scales pt_clust_3="41.40753" pt_clust_4="159.87643" pt_clust_5="41.40753" pt_clust_6="41.60722"></scales>
<clustering>
<clus scale="   41.408">  3  5 -1 -1</clus>
<clus scale="   41.607">  2  6  1 -1</clus>
<clus scale="  159.876">  1  4  2 -1</clus>
<clus scale="  159.876">  1  3  2 -1</clus>
</clustering>
</event>
<event>
 6    0  0.5563122E+002  0.7104013E+02  0.7546771E-02  0.1356591E+00
         21   -1    0    0  503  501  0.00000000000E+00  0.00000000000E+00  0.50781448634E+03  0.50781448634E+03  0.00000000000E+00 0. -1.
         21   -1    0    0  504  502 -0.00000000000E+00 -0.00000000000E+00 -0.65497912081E+03  0.65497912081E+03  0.00000000000E+00 0. -1.
         21    1    1    2  503  505 -0.68271953690E+02 -0.19034266768E+02  0.46353595830E+03  0.46892317879E+03  0.00000000000E+00 0. -1.
         21    1    1    2  504  501  0.89636579147E+02  0.51349955312E+02 -0.47140006990E+03  0.48258632402E+03  0.00000000000E+00 0. -1.
         21    1    1    2  505  506  0.17120899199E+02 -0.66881089446E+02 -0.71948748874E+01  0.69411609544E+02  0.00000000000E+00 0. -1.
         21    1    1    2  506  502 -0.38485524656E+02  0.34565400902E+02 -0.13210564798E+03  0.14187249479E+03  0.00000000000E+00 0. -1.
<scales pt_clust_3="71.04013" pt_clust_4="14000.00000" pt_clust_5="65.89005" pt_clust_6="51.72913"></scales>
<clustering>
<clus scale="   51.729">  2  6  1 -1</clus>
<clus scale="   65.890">  2  5  1 -1</clus>
<clus scale="   71.040">  1  3  2 -1</clus>
<clus scale="   71.040">  1  3  2 -1</clus>
</clustering>
</event>
<event>
 6    0  0.5563122E+002  0.1476641E+03  0.7546771E-02  0.1203373E+00
         21   -1    0    0  504  501  0.00000000000E+00  0.00000000000E+00  0.31367484388E+03  0.31367484388E+03  0.00000000000E+00 0.  1.
         21   -1    0    0  501  502 -0.00000000000E+00 -0.00000000000E+00 -0.39903088402E+03  0.39903088402E+03  0.00000000000E+00 0. -1.
         21    1    1    2  503  502  0.11271733724E+02 -0.51185846100E+02 -0.10258023837E+03  0.11519439277E+03  0.00000000000E+00 0. -1.
         21    1    1    2  504  506  0.73696371750E+02  0.11746702035E+03  0.27752892697E+03  0.31024500219E+03  0.00000000000E+00 0.  1.
         21    1    1    2  505  503 -0.38502729568E+02 -0.39468089070E+02 -0.19555744877E+03  0.20318195296E+03  0.00000000000E+00 0. -1.
         21    1    1    2  506  505 -0.46465375906E+02 -0.26813085179E+02 -0.64747279967E+02  0.84084379988E+02  0.00000000000E+00 0.  1.
<scales pt_clust_3="52.41224" pt_clust_4="136.57994" pt_clust_5="48.03029" pt_clust_6="48.03029"></scales>
<clustering>
<clus scale="   52.412">  2  3  1 -1</clus>
<clus scale="   48.030">  5  6 -1 -1</clus>
<clus scale="  136.580">  1  4  2 -1</clus>
<clus scale="  136.580">  1  3  2 -1</clus>
</clustering>
</event>
<event>
 6    0  0.5563122E+002  0.1034142E+03  0.7546771E-02  0.1273276E+00
         21   -1    0    0  503  501  0.00000000000E+00  0.00000000000E+00  0.74470933236E+03  0.74470933236E+03  0.00000000000E+00 0.  1.
         21   -1    0    0  505  502 -0.00000000000E+00 -0.00000000000E+00 -0.59742195493E+03  0.59742195493E+03  0.00000000000E+00 0.  1.
         21    1    1    2  503  506  0.90483069104E+02 -0.80648829514E+01 -0.10307099877E+03  0.13738944253E+03  0.00000000000E+00 0.  1.
         21    1    1    2  504  501 -0.10047306858E+03  0.26341324688E+02  0.67767855098E+03  0.68559238718E+03  0.00000000000E+00 0.  1.
         21    1    1    2  505  504  0.30454418110E+02  0.80279160481E+02 -0.61096837740E+01  0.86078704833E+02  0.00000000000E+00 0.  1.
         21    1    1    2  506  502 -0.20464418636E+02 -0.98555602217E+02 -0.42121049100E+03  0.43307075275E+03  0.00000000000E+00 0.  1.
<scales pt_clust_3="103.41422" pt_clust_4="14000.00000" pt_clust_5="85.86160" pt_clust_6="36.49389"></scales>
<clustering>
<clus scale="   85.862">  2  5  1 -1</clus>
<clus scale="   36.494">  2  6  1 -1</clus>
<clus scale="  103.414">  2  3  1 -1</clus>
<clus scale="  103.414">  1  3  2 -1</clus>
</clustering>
</event>
<event>
 6    0  0.5563122E+002  0.1278625E+03  0.7546771E-02  0.1230662E+00
         21   -1    0    0  504  501  0.00000000000E+00  0.00000000000E+00  0.44809983804E+03  0.44809983804E+03  0.00000000000E+00 0.  1.
         21   -1    0    0  503  502 -0.00000000000E+00 -0.00000000000E+00 -0.44973657378E+03  0.44973657378E+03  0.00000000000E+00 0.  1.
         21    1    1    2  503  505  0.10094069675E+03 -0.46413009749E+01 -0.86945790188E+02  0.13330467496E+03  0.00000000000E+00 0.  1.
         21    1    1    2  504  506 -0.73631065051E+02 -0.59684196367E+02 -0.22632023099E+03  0.24536622423E+03  0.00000000000E+00 0.  1.
         21    1    1    2  505  501  0.13350375813E+02  0.51341029236E+02  0.40922254396E+03  0.41264660947E+03  0.00000000000E+00 0.  1.
         21    1    1    2  506  502 -0.40660007515E+02  0.12984468105E+02 -0.97593258523E+02  0.10651890317E+03  0.00000000000E+00 0. -1.
<scales pt_clust_3="112.64518" pt_clust_4="40.59722" pt_clust_5="53.04841" pt_clust_6="40.59722"></scales>
<clustering>
<clus scale="   40.597">  4  6 -1 -1</clus>
<clus scale="   53.048">  1  5  2 -1</clus>
<clus scale="  112.645">  1  3  2 -1</clus>
<clus scale="   53.048">  1  3  2 -1</clus>
</clustering>
</event>
<event>
 6    0  0.5563122E+002  0.1471968E+03  0.7546771E-02  0.1203961E+00
         21   -1    0    0  506  501  0.00000000000E+00  0.00000000000E+00  0.28511865899E+03  0.28511865899E+03  0.00000000000E+00 0. -1.
         21   -1    0    0  503  502 -0.00000000000E+00 -0.00000000000E+00 -0.18138770339E+03  0.18138770339E+03  0.00000000000E+00 0. -1.
         21    1    1    2  503  505  0.15261572302E+01 -0.38602382102E+02 -0.99730235547E+02  0.10695135783E+03  0.00000000000E+00 0. -1.
         21    1    1    2  504  501 -0.18258699905E+02 -0.42949955276E+02  0.27139692364E+02  0.53987421517E+02  0.00000000000E+00 0. -1.
         21    1    1    2  505  504 -0.79296575872E+02 -0.40298707833E+02  0.95969991424E+02  0.13085171780E+03  0.00000000000E+00 0. -1.
         21    1    1    2  506  502  0.96029118547E+02  0.12185104521E+03  0.80351507353E+02  0.17471586523E+03  0.00000000000E+00 0. -1.
<scales pt_clust_3="38.63254" pt_clust_4="36.66480" pt_clust_5="36.66480" pt_clust_6="138.21992"></scales>
<clustering>
<clus scale="   36.665">  4  5 -1 -1</clus>
<clus scale="   38.633">  2  3  1 -1</clus>
<clus scale="  138.220">  2  6  1 -1</clus>
<clus scale="  147.197">  1  3  2 -1</clus>
</clustering>
</event>
<event>
 6    0  0.5563122E+002  0.1234026E+03  0.7546771E-02  0.1237587E+00
         21   -1    0    0  503  501  0.00000000000E+00  0.00000000000E+00  0.14642541160E+04  0.14642541160E+04  0.00000000000E+00 0.  1.
         21   -1    0    0  506  502 -0.00000000000E+00 -0.00000000000E+00 -0.37274706974E+02  0.37274706974E+02  0.00000000000E+00 0. -1.
         21    1    1    2  503  505 -0.54273036858E+01  0.97223696186E+02  0.25913610298E+03  0.27682742385E+03  0.00000000000E+00 0.  1.
         21    1    1    2  504  501 -0.69278369694E+02 -0.12675802404E+03  0.10251411470E+04  0.10352687866E+04  0.00000000000E+00 0.  1.
         21    1    1    2  505  502  0.26951370594E+02  0.22666258118E+02 -0.35825848527E+01  0.35397324026E+02  0.00000000000E+00 0. -1.
         21    1    1    2  506  504  0.47754302786E+02  0.68680697321E+01  0.14628474385E+03  0.15403528849E+03  0.00000000000E+00 0.  1.
<scales pt_clust_3="123.40263" pt_clust_4="14000.00000" pt_clust_5="35.21556" pt_clust_6="54.91136"></scales>
<clustering>
<clus scale="   35.216">  2  5  1 -1</clus>
<clus scale="   54.911">  2  6  1 -1</clus>
<clus scale="  123.403">  2  3  1 -1</clus>
<clus scale="  123.403">  1  3  2 -1</clus>
</clustering>
</event>
<event>
 6    0  0.5563122E+002  0.3089308E+03  0.7546771E-02  0.1080859E+00
         21   -1    0    0  503  501  0.00000000000E+00  0.00000000000E+00  0.28461604511E+03  0.28461604511E+03  0.00000000000E+00 0. -1.
         21   -1    0    0  501  502 -0.00000000000E+00 -0.00000000000E+00 -0.16185475883E+04  0.16185475883E+04  0.00000000000E+00 0. -1.
         21    1    1    2  503  505 -0.39145185817E+02 -0.85637479458E+02 -0.23983309394E+02  0.97166468445E+02  0.00000000000E+00 0. -1.
         21    1    1    2  504  506 -0.46719357754E+02 -0.11592807368E+03  0.10228568836E+03  0.16150659027E+03  0.00000000000E+00 0. -1.
         21    1    1    2  505  504 -0.11137688946E+03 -0.53409349801E+01  0.72163613932E+02  0.13281914119E+03  0.00000000000E+00 0. -1.
         21    1    1    2  506  502  0.19724143303E+03  0.20690648812E+03 -0.14843975361E+04  0.15116714335E+04  0.00000000000E+00 0. -1.
<scales pt_clust_3="94.16009" pt_clust_4="112.33295" pt_clust_5="112.33295" pt_clust_6="280.96936"></scales>
<clustering>
<clus scale="   94.160">  1  3  2 -1</clus>
<clus scale="  112.333">  4  5 -1 -1</clus>
<clus scale="  280.969">  2  6  1 -1</clus>
<clus scale="   94.160">  1  3  2 -1</clus>
</clustering>
</event>
<event>
 6    0  0.5563122E+002  0.7569152E+02  0.7546771E-02  0.1341743E+00
         21   -1    0    0  505  501  0.00000000000E+00  0.00000000000E+00  0.66182355256E+03  0.66182355256E+03  0.00000000000E+00 0. -1.
         21   -1    0    0  506  502 -0.00000000000E+00 -0.00000000000E+00 -0.35618148747E+03  0.35618148747E+03  0.00000000000E+00 0. -1.
         21    1    1    2  503  502  0.72788608046E+02  0.20598318544E+02 -0.33108543187E+03  0.33961748392E+03  0.00000000000E+00 0. -1.
         21    1    1    2  504  501 -0.52778142943E+02  0.28856203770E+02  0.84432777255E+02  0.10366825331E+03  0.00000000000E+00 0. -1.
         21    1    1    2  505  503  0.50620551914E+02 -0.29217693612E+01  0.78622474602E+02  0.93554639248E+02  0.00000000000E+00 0.  1.
         21    1    1    2  506  504 -0.70631017016E+02 -0.46532752953E+02  0.47367224511E+03  0.48116466355E+03  0.00000000000E+00 0. -1.
<scales pt_clust_3="75.69152" pt_clust_4="52.78641" pt_clust_5="50.70480" pt_clust_6="14000.00000"></scales>
<clustering>
<clus scale="   50.705">  1  5  2 -1</clus>
<clus scale="   52.786">  1  4  2 -1</clus>
<clus scale="   75.692">  2  3  1 -1</clus>
<clus scale="   50.705">  1  3  2 -1</clus>
</clustering>
</event>
<event>
 6    0  0.5563122E+002  0.9878318E+02  0.7546771E-02  0.1282876E+00
         21   -1    0    0  504  501  0.00000000000E+00  0.00000000000E+00  0.16655384522E+03  0.16655384522E+03  0.00000000000E+00 0. -1.
         21   -1    0    0  505  502 -0.00000000000E+00 -0.00000000000E+00 -0.38879878247E+03  0.38879878247E+03  0.00000000000E+00 0. -1.
         21    1    1    2  503  502  0.77018996515E+02 -0.23525971320E+02 -0.20931331976E+03  0.22427095884E+03  0.00000000000E+00 0. -1.
         21    1    1    2  504  503  0.25029549362E+02 -0.46438285392E+02  0.12827270919E+03  0.13869708221E+03  0.00000000000E+00 0. -1.
         21    1    1    2  505  506 -0.36880681320E+02  0.40088940867E+02 -0.86433919580E+02  0.10216716835E+03  0.00000000000E+00 0. -1.
         21    1    1    2  506  501 -0.65167864557E+02  0.29875315845E+02 -0.54770407102E+02  0.90217418284E+02  0.00000000000E+00 0. -1.
<scales pt_clust_3="89.40835" pt_clust_4="52.75408" pt_clust_5="36.61379" pt_clust_6="36.61379"></scales>
<clustering>
<clus scale="   36.614">  5  6 -1 -1</clus>
<clus scale="   52.754">  1  4  2 -1</clus>
<clus scale="   89.408">  2  3  1 -1</clus>
<clus scale="   52.754">  1  3  2 -1</clus>
</clustering>
</event>
<event>
 6    0  0.5563122E+002  0.9511808E+02  0.7546771E-02  0.1290910E+00
         21   -1    0    0  505  501  0.00000000000E+00  0.00000000000E+00  0.20267139290E+03  0.20267139290E+03  0.00000000000E+00 0. -1.
         21   -1    0    0  506  502 -0.00000000000E+00 -0.00000000000E+00 -0.22471377020E+03  0.22471377020E+03  0.00000000000E+00 0.  1.
         21    1    1    2  503  504  0.65650528494E+02  0.90812171346E+02  0.32857563073E+02  0.11677526197E+03  0.00000000000E+00 0.  1.
         21    1    1    2  504  502  0.27334988812E+02 -0.14034397166E+02 -0.49590869365E+02  0.58338839905E+02  0.00000000000E+00 0.  1.
         21    1    1    2  505  503 -0.70917582692E+02  0.84981941723E+01  0.94949107646E+02  0.11881437574E+03  0.00000000000E+00 0. -1.
         21    1    1    2  506  501 -0.22067934614E+02 -0.85275968352E+02 -0.10025817865E+03  0.13345668549E+03  0.00000000000E+00 0.  1.
<scales pt_clust_3="14000.00000" pt_clust_4="30.72728" pt_clust_5="69.41555" pt_clust_6="95.11808"></scales>
<clustering>
<clus scale="   30.727">  2  4  1 -1</clus>
<clus scale="   69.416">  1  5  2 -1</clus>
<clus scale="   95.118">  2  6  1 -1</clus>
<clus scale="   69.416">  1  3  2 -1</clus>
</clustering>
</event>
<event>
 6    0  0.5563122E+002  0.1152991E+03  0.7546771E-02  0.1251060E+00
         21   -1    0    0  504  501  0.00000000000E+00  0.00000000000E+00  0.14370704233E+04  0.14370704233E+04  0.00000000000E+00 0. -1.
         21   -1    0    0  505  502 -0.00000000000E+00 -0.00000000000E+00 -0.76371543082E+02  0.76371543082E+02  0.00000000000E+00 0. -1.
         21    1    1    2  503  502  0.35744917706E+02  0.69710105554E+00  0.97826404015E+01  0.37065956684E+02  0.00000000000E+00 0. -1.
         21    1    1    2  504  503  0.12278444979E+02  0.11845203908E+03  0.12889457277E+04  0.12944352957E+04  0.00000000000E+00 0. -1.
         21    1    1    2  505  506  0.23400585786E+02 -0.47289548187E+02 -0.14827558416E+02  0.54806434581E+02  0.00000000000E+00 0. -1.
         21    1    1    2  506  501 -0.71423948472E+02 -0.71859591944E+02  0.76798070551E+02  0.12713427944E+03  0.00000000000E+00 0. -1.
<scales pt_clust_3="35.75171" pt_clust_4="14000.00000" pt_clust_5="63.79313" pt_clust_6="115.29910"></scales>
<clustering>
<clus scale="   35.752">  2  3  1 -1</clus>
<clus scale="   63.793">  2  5  1 -1</clus>
<clus scale="  115.299">  2  6  1 -1</clus>
<clus scale="  115.299">  1  3  2 -1</clus>
</clustering>
</event>
<event>
 6    0  0.5563122E+002  0.1068618E+03  0.7546771E-02  0.1266494E+00
         21   -1    0    0  506  501  0.00000000000E+00  0.00000000000E+00  0.48737144957E+02  0.48737144957E+02  0.00000000000E+00 0. -1.
         21   -1    0    0  503  502 -0.00000000000E+00 -0.00000000000E+00 -0.59673164115E+03  0.59673164115E+03  0.00000000000E+00 0. -1.
         21    1    1    2  503  504 -0.84908588114E+01 -0.86066629336E+02 -0.38293096725E+03  0.39257570614E+03  0.00000000000E+00 0. -1.
         21    1    1    2  504  501  0.18260426073E+02 -0.35703737012E+02  0.62553360190E+00  0.40107247341E+02  0.00000000000E+00 0. -1.
         21    1    1    2  505  502  0.13139902467E+02  0.91566599469E+02 -0.95147474930E+02  0.13270320705E+03  0.00000000000E+00 0. -1.
         21    1    1    2  506  505 -0.22909469729E+02  0.30203766879E+02 -0.70541587610E+02  0.80082625578E+02  0.00000000000E+00 0. -1.
<scales pt_clust_3="92.29279" pt_clust_4="40.10237" pt_clust_5="34.48265" pt_clust_6="34.48265"></scales>
<clustering>
<clus scale="   34.483">  5  6 -1 -1</clus>
<clus scale="   40.102">  1  4  2 -1</clus>
<clus scale="   92.293">  2  3  1 -1</clus>
<clus scale="   40.102">  1  3  2 -1</clus>
</clustering>
</event>
<event>
 6    0  0.5563122E+002  0.1015455E+03  0.7546771E-02  0.1277079E+00
         21   -1    0    0  505  501  0.00000000000E+00  0.00000000000E+00  0.19148138573E+04  0.19148138573E+04  0.00000000000E+00 0. -1.
         21   -1    0    0  506  502 -0.00000000000E+00 -0.00000000000E+00 -0.13981627869E+03  0.13981627869E+03  0.00000000000E+00 0.  1.
         21    1    1    2  503  504  0.11727036124E+02  0.11477807087E+03  0.12393206164E+04  0.12446795247E+04  0.00000000000E+00 0. -1.
         21    1    1    2  504  502 -0.19828107540E+02 -0.56500698842E+02 -0.12260925144E+03  0.13644966602E+03  0.00000000000E+00 0.  1.
         21    1    1    2  505  503  0.46140195367E+02 -0.16080753547E+01  0.48599883836E+03  0.48818682328E+03  0.00000000000E+00 0. -1.
         21    1    1    2  506  501 -0.38039123950E+02 -0.56669296670E+02  0.17228737532E+03  0.18531412205E+03  0.00000000000E+00 0. -1.
<scales pt_clust_3="14000.00000" pt_clust_4="59.81258" pt_clust_5="46.16821" pt_clust_6="101.54549"></scales>
<clustering>
<clus scale="   46.168">  1  5  2 -1</clus>
<clus scale="   59.813">  2  4  1 -1</clus>
<clus scale="  101.545">  2  6  1 -1</clus>
<clus scale="   46.168">  1  3  2 -1</clus>
</clustering>
</event>
<event>
 6    0  0.5563122E+002  0.1200860E+03  0.7546771E-02  0.1242955E+00
         21   -1    0    0  504  501  0.00000000000E+00  0.00000000000E+00  0.10036989358E+04  0.10036989358E+04  0.00000000000E+00 0.  1.
         21   -1    0    0  506  502 -0.00000000000E+00 -0.00000000000E+00 -0.28418744291E+03  0.28418744291E+03  0.00000000000E+00 0. -1.
         21    1    1    2  503  501  0.60707852162E+02 -0.17405043398E+03  0.79551283062E+03  0.81659026480E+03  0.00000000000E+00 0.  1.
         21    1    1    2  504  505  0.68433463808E+01  0.43258892626E+02  0.52028109038E+02  0.68007994463E+02  0.00000000000E+00 0. -1.
         21    1    1    2  505  502 -0.66263717582E+02  0.48693782768E+02  0.11805264405E+03  0.14386935572E+03  0.00000000000E+00 0. -1.
         21    1    1    2  506  503 -0.12874809609E+01  0.82097758587E+02 -0.24608209080E+03  0.25941876375E+03  0.00000000000E+00 0. -1.
<scales pt_clust_3="120.08603" pt_clust_4="43.79684" pt_clust_5="14000.00000" pt_clust_6="82.41276"></scales>
<clustering>
<clus scale="   43.797">  1  4  2 -1</clus>
<clus scale="   82.413">  2  6  1 -1</clus>
<clus scale="  120.086">  1  3  2 -1</clus>
<clus scale="   43.797">  1  3  2 -1</clus>
</clustering>
</event>
<event>
 6    0  0.5563122E+002  0.1265134E+03  0.7546771E-02  0.1232723E+00
         21   -1    0    0  503  501  0.00000000000E+00  0.00000000000E+00  0.32749856372E+03  0.32749856372E+03  0.00000000000E+00 0. -1.
         21   -1    0    0  504  502 -0.00000000000E+00 -0.00000000000E+00 -0.10737697842E+04  0.10737697842E+04  0.00000000000E+00 0. -1.
         21    1    1    2  503  502  0.19009612319E+02  0.50741377486E+02 -0.36627605259E+03  0.37026233869E+03  0.00000000000E+00 0.  1.
         21    1    1    2  504  506 -0.66357965373E+02 -0.35244531884E+02 -0.51094003168E+03  0.51643515814E+03  0.00000000000E+00 0. -1.
         21    1    1    2  505  501  0.29323014538E+02 -0.12490143503E+03  0.29205509924E+03  0.31899277210E+03  0.00000000000E+00 0. -1.
         21    1    1    2  506  505  0.18025338515E+02  0.10940458943E+03 -0.16111023545E+03  0.19557807900E+03  0.00000000000E+00 0. -1.
<scales pt_clust_3="54.18536" pt_clust_4="52.54427" pt_clust_5="14000.00000" pt_clust_6="126.51338"></scales>
<clustering>
<clus scale="   54.185">  2  3  1 -1</clus>
<clus scale="   52.544">  2  4  1 -1</clus>
<clus scale="  126.513">  2  6  1 -1</clus>
<clus scale="  126.513">  1  3  2 -1</clus>
</clustering>
</event>
<event>
 6    0  0.5563122E+002  0.1063677E+03  0.7546771E-02  0.1267448E+00
         21   -1    0    0  505  501  0.00000000000E+00  0.00000000000E+00  0.34910578193E+03  0.34910578193E+03  0.00000000000E+00 0.  1.
         21   -1    0    0  504  502 -0.00000000000E+00 -0.00000000000E+00 -0.33228661687E+03  0.33228661687E+03  0.00000000000E+00 0.  1.
         21    1    1    2  503  501 -0.67843253264E+02  0.15631175447E+01  0.24823042518E+03  0.25733925922E+03  0.00000000000E+00 0.  1.
         21    1    1    2  504  503 -0.76637501026E+02  0.77904260666E+01  0.34736577655E+02  0.84502231503E+02  0.00000000000E+00 0.  1.
         21    1    1    2  505  506  0.36752218888E+02  0.21146314067E+02  0.82439058437E+01  0.43195534206E+02  0.00000000000E+00 0.  1.
         21    1    1    2  506  502  0.10772853540E+03 -0.30499857679E+02 -0.27439174362E+03  0.29635537388E+03  0.00000000000E+00 0.  1.
<scales pt_clust_3="43.09654" pt_clust_4="106.36773" pt_clust_5="42.40156" pt_clust_6="14000.00000"></scales>
<clustering>
<clus scale="   42.402">  1  5  2 -1</clus>
<clus scale="   43.097">  1  3  2 -1</clus>
<clus scale="  106.368">  1  4  2 -1</clus>
<clus scale="   42.402">  1  3  2 -1</clus>
</clustering>
</event>
<event>
 6    0  0.5563122E+002  0.1814012E+03  0.7546771E-02  0.1166454E+00
         21   -1    0    0  503  501  0.00000000000E+00  0.00000000000E+00  0.16320558319E+03  0.16320558319E+03  0.00000000000E+00 0.  1.
         21   -1    0    0  504  502 -0.00000000000E+00 -0.00000000000E+00 -0.76683948802E+03  0.76683948802E+03  0.00000000000E+00 0. -1.
         21    1    1    2  503  502 -0.69073468351E+01 -0.13881328369E+03 -0.15658780657E+03  0.20937187093E+03  0.00000000000E+00 0. -1.
         21    1    1    2  504  505 -0.20527509143E+02 -0.38132188255E+02 -0.51542019072E+03  0.51723632453E+03  0.00000000000E+00 0. -1.
         21    1    1    2  505  506 -0.11559961818E-01  0.80829534679E+02 -0.25559796484E+01  0.80869937814E+02  0.00000000000E+00 0. -1.
         21    1    1    2  506  501  0.27446415940E+02  0.96115937270E+02  0.70930072111E+02  0.12256693794E+03  0.00000000000E+00 0.  1.
<scales pt_clust_3="168.09884" pt_clust_4="43.30638" pt_clust_5="60.21473" pt_clust_6="60.21473"></scales>
<clustering>
<clus scale="   43.306">  2  4  1 -1</clus>
<clus scale="   60.215">  5  6 -1 -1</clus>
<clus scale="  168.099">  2  3  1 -1</clus>
<clus scale="  181.401">  1  3  2 -1</clus>
</clustering>
</event>
<event>
 6    0  0.5563122E+002  0.1177334E+03  0.7546771E-02  0.1246884E+00
         21   -1    0    0  505  501  0.00000000000E+00  0.00000000000E+00  0.10633548018E+03  0.10633548018E+03  0.00000000000E+00 0. -1.
         21   -1    0    0  503  502 -0.00000000000E+00 -0.00000000000E+00 -0.42992430775E+03  0.42992430775E+03  0.00000000000E+00 0.  1.
         21    1    1    2  503  506 -0.30797400767E+02 -0.49102910082E+02 -0.71791986888E+02  0.92269523971E+02  0.00000000000E+00 0. -1.
         21    1    1    2  504  501  0.32573879312E+02  0.17637423387E+02 -0.32016245037E+02  0.48960966733E+02  0.00000000000E+00 0.  1.
         21    1    1    2  505  502 -0.54613758529E+02 -0.75290699399E+02  0.46008113322E+02  0.10376944892E+03  0.00000000000E+00 0. -1.
         21    1    1    2  506  504  0.52837279984E+02  0.10675618609E+03 -0.26578870897E+03  0.29125984832E+03  0.00000000000E+00 0.  1.
<scales pt_clust_3="57.96185" pt_clust_4="36.54042" pt_clust_5="97.81402" pt_clust_6="36.54042"></scales>
<clustering>
<clus scale="   36.540">  4  6 -1 -1</clus>
<clus scale="   57.962">  2  3  1 -1</clus>
<clus scale="   97.814">  1  5  2 -1</clus>
<clus scale="   97.814">  1  3  2 -1</clus>
</clustering>
</event>
<event>
 6    0  0.5563122E+002  0.9838249E+02  0.7546771E-02  0.1283735E+00
         21   -1    0    0  506  501  0.00000000000E+00  0.00000000000E+00  0.10708128245E+03  0.10708128245E+03  0.00000000000E+00 0. -1.
         21   -1    0    0  503  502 -0.00000000000E+00 -0.00000000000E+00 -0.12619538808E+04  0.12619538808E+04  0.00000000000E+00 0. -1.
         21    1    1    2  503  504 -0.60755943002E+02 -0.86051174369E+02 -0.61459352814E+03  0.62355536567E+03  0.00000000000E+00 0. -1.
         21    1    1    2  504  505  0.56651359790E+02  0.70537629967E+02 -0.39132186735E+03  0.40164379451E+03  0.00000000000E+00 0. -1.
         21    1    1    2  505  501  0.75482422539E+02 -0.11030116045E+02 -0.22417464775E+03  0.23679850563E+03  0.00000000000E+00 0. -1.
         21    1    1    2  506  502 -0.71377839326E+02  0.26543660447E+02  0.75217444851E+02  0.10703749748E+03  0.00000000000E+00 0. -1.
<scales pt_clust_3="98.38249" pt_clust_4="14000.00000" pt_clust_5="47.24561" pt_clust_6="76.15354"></scales>
<clustering>
<clus scale="   76.154">  1  6  2 -1</clus>
<clus scale="   47.246">  1  5  2 -1</clus>
<clus scale="   98.382">  2  3  1 -1</clus>
<clus scale="   76.154">  1  3  2 -1</clus>
</clustering>
</event>
<event>
 6    0  0.5563122E+002  0.1241666E+03  0.7546771E-02  0.1236377E+00
         21   -1    0    0  506  501  0.00000000000E+00  0.00000000000E+00  0.50552004697E+03  0.50552004697E+03  0.00000000000E+00 0. -1.
         21   -1    0    0  504  502 -0.00000000000E+00 -0.00000000000E+00 -0.17854700769E+03  0.17854700769E+03  0.00000000000E+00 0.  1.
         21    1    1    2  503  501  0.40068199145E+02  0.91896415986E+01  0.25077284826E+02  0.48153715429E+02  0.00000000000E+00 0.  1.
         21    1    1    2  504  503  0.12179760925E+03 -0.17899697118E+02 -0.84974654894E+02  0.14958525579E+03  0.00000000000E+00 0.  1.
         21    1    1    2  505  502 -0.12965408152E+03 -0.18533148478E+02  0.40060536171E+02  0.13696169175E+03  0.00000000000E+00 0. -1.
         21    1    1    2  506  505 -0.32211726871E+02  0.27243203997E+02  0.34680987318E+03  0.34936639169E+03  0.00000000000E+00 0. -1.
<scales pt_clust_3="41.10852" pt_clust_4="14000.00000" pt_clust_5="124.16664" pt_clust_6="34.15431"></scales>
<clustering>
<clus scale="   41.109">  1  3  2 -1</clus>
<clus scale="   34.154">  1  6  2 -1</clus>
<clus scale="  124.167">  1  5  2 -1</clus>
<clus scale="   41.109">  1  3  2 -1</clus>
</clustering>
</event>
<event>
 6    0  0.5563122E+002  0.1585860E+03  0.7546771E-02  0.1190302E+00
         21   -1    0    0  502  501  0.00000000000E+00  0.00000000000E+00  0.25596995428E+03  0.25596995428E+03  0.00000000000E+00 0.  1.
         21   -1    0    0  505  502 -0.00000000000E+00 -0.00000000000E+00 -0.29235589258E+03  0.29235589258E+03  0.00000000000E+00 0.  1.
         21    1    1    2  503  506 -0.26085378127E+02 -0.30619045623E+02  0.16931097624E+02  0.43642123844E+02  0.00000000000E+00 0. -1.
         21    1    1    2  504  503  0.13013475570E+02  0.14996767600E+03  0.84912934220E+02  0.17282899290E+03  0.00000000000E+00 0.  1.
         21    1    1    2  505  504 -0.28353158585E+02 -0.15480658518E+02 -0.20102614503E+03  0.20360516539E+03  0.00000000000E+00 0.  1.
         21    1    1    2  506  501  0.41425061142E+02 -0.10386797186E+03  0.62796174887E+02  0.12824956471E+03  0.00000000000E+00 0.  1.
<scales pt_clust_3="43.73866" pt_clust_4="142.41236" pt_clust_5="32.30406" pt_clust_6="43.73866"></scales>
<clustering>
<clus scale="   32.304">  2  5  1 -1</clus>
<clus scale="   43.739">  3  6 -1 -1</clus>
<clus scale="  142.412">  2  4  1 -1</clus>
<clus scale="  158.586">  1  3  2 -1</clus>
</clustering>
</event>
<event>
 6    0  0.5563122E+002  0.1004346E+03  0.7546771E-02  0.1279385E+00
         21   -1    0    0  505  501  0.00000000000E+00  0.00000000000E+00  0.29612825868E+03  0.29612825868E+03  0.00000000000E+00 0.  1.
         21   -1    0    0  503  502 -0.00000000000E+00 -0.00000000000E+00 -0.48808954254E+03  0.48808954254E+03  0.00000000000E+00 0.  1.
         21    1    1    2  503  506  0.19233351311E+02  0.50285019513E+02 -0.12400879212E+03  0.13519129230E+03  0.00000000000E+00 0. -1.
         21    1    1    2  504  501  0.32083922009E+02 -0.59654673989E+01  0.24475586676E+03  0.24692184830E+03  0.00000000000E+00 0.  1.
         21    1    1    2  505  502 -0.35499459264E+02 -0.13662944864E+03 -0.25676764843E+03  0.29301440771E+03  0.00000000000E+00 0.  1.
         21    1    1    2  506  504 -0.15817814057E+02  0.92309896526E+02 -0.55940710071E+02  0.10909025292E+03  0.00000000000E+00 0.  1.
<scales pt_clust_3="54.60936" pt_clust_4="32.63380" pt_clust_5="14000.00000" pt_clust_6="100.43456"></scales>
<clustering>
<clus scale="   32.634">  1  4  2 -1</clus>
<clus scale="   54.609">  2  3  1 -1</clus>
<clus scale="  100.435">  1  6  2 -1</clus>
<clus scale="   32.634">  1  3  2 -1</clus>
</clustering>
</event>
<event>
 6    0  0.5563122E+002  0.1059606E+03  0.7546771E-02  0.1268238E+00
         21   -1    0    0  506  501  0.00000000000E+00  0.00000000000E+00  0.37040218353E+02  0.37040218353E+02  0.00000000000E+00 0.  1.
         21   -1    0    0  504  502 -0.00000000000E+00 -0.00000000000E+00 -0.78223241529E+03  0.78223241529E+03  0.00000000000E+00 0.  1.
         21    1    1    2  503  501  0.39454388425E+02 -0.11231754128E+02 -0.23789523880E+03  0.24140618408E+03  0.00000000000E+00 0.  1.
         21    1    1    2  504  503  0.84283948709E+02  0.25210124637E+02 -0.27618262194E+03  0.28985543820E+03  0.00000000000E+00 0.  1.
         21    1    1    2  505  502 -0.72568740300E+02 -0.70786869867E+01 -0.22439404854E+03  0.23594282973E+03  0.00000000000E+00 0. -1.
         21    1    1    2  506  505 -0.51169596834E+02 -0.68996835221E+01 -0.67202876542E+01  0.52068181637E+02  0.00000000000E+00 0.  1.
<scales pt_clust_3="33.84328" pt_clust_4="33.84328" pt_clust_5="93.65551" pt_clust_6="51.63268"></scales>
<clustering>
<clus scale="   33.843">  3  4 -1 -1</clus>
<clus scale="   51.633">  1  6  2 -1</clus>
<clus scale="   93.656">  2  5  1 -1</clus>
<clus scale="   51.633">  1  3  2 -1</clus>
</clustering>
</event>
<event>
 6    0  0.5563122E+002  0.9653742E+02  0.7546771E-02  0.1287750E+00
         21   -1    0    0  506  501  0.00000000000E+00  0.00000000000E+00  0.18469793442E+03  0.18469793442E+03  0.00000000000E+00 0.  1.
         21   -1    0    0  504  502 -0.00000000000E+00 -0.00000000000E+00 -0.11109469744E+04  0.11109469744E+04  0.00000000000E+00 0.  1.
         21    1    1    2  503  502  0.33798563375E+02 -0.64499784715E+01 -0.36158559064E+02  0.49913790700E+02  0.00000000000E+00 0.  1.
         21    1    1    2  504  501 -0.37606521058E-01 -0.10994686332E+03 -0.85727279196E+03  0.86429448338E+03  0.00000000000E+00 0.  1.
         21    1    1    2  505  503  0.76944708279E+01  0.77684073959E+02 -0.19477380795E+03  0.20983530802E+03  0.00000000000E+00 0.  1.
         21    1    1    2  506  505 -0.41455427681E+02  0.38712767830E+02  0.16195611895E+03  0.17160132675E+03  0.00000000000E+00 0.  1.
<scales pt_clust_3="34.40850" pt_clust_4="14000.00000" pt_clust_5="96.53742" pt_clust_6="56.58927"></scales>
<clustering>
<clus scale="   34.409">  2  3  1 -1</clus>
<clus scale="   56.589">  1  6  2 -1</clus>
<clus scale="   96.537">  1  5  2 -1</clus>
<clus scale="   56.589">  1  3  2 -1</clus>
</clustering>
</event>
<event>
 6    0  0.5563122E+002  0.1696188E+03  0.7546771E-02  0.1178246E+00
         21   -1    0    0  505  501  0.00000000000E+00  0.00000000000E+00  0.24792966105E+03  0.24792966105E+03  0.00000000000E+00 0. -1.
         21   -1    0    0  504  502 -0.00000000000E+00 -0.00000000000E+00 -0.64153587155E+03  0.64153587155E+03  0.00000000000E+00 0. -1.
         21    1    1    2  503  501 -0.86143279451E+02 -0.10886105439E+03  0.62161030405E+02  0.15210321317E+03  0.00000000000E+00 0. -1.
         21    1    1    2  504  503 -0.16824577571E+02 -0.48290723521E+02 -0.52517220446E+03  0.52765604774E+03  0.00000000000E+00 0. -1.
         21    1    1    2  505  506  0.61363838770E+02  0.13973977647E+03  0.57165646974E+02  0.16297434470E+03  0.00000000000E+00 0. -1.
         21    1    1    2  506  502  0.41604018252E+02  0.17412001433E+02  0.12239316573E+02  0.46731926975E+02  0.00000000000E+00 0.  1.
<scales pt_clust_3="157.82884" pt_clust_4="51.13766" pt_clust_5="33.77649" pt_clust_6="33.77649"></scales>
<clustering>
<clus scale="   33.776">  5  6 -1 -1</clus>
<clus scale="   51.138">  2  4  1 -1</clus>
<clus scale="  157.829">  1  3  2 -1</clus>
<clus scale="  157.829">  1  3  2 -1</clus>
</clustering>
</event>
<event>
 6    0  0.5563122E+002  0.3622846E+03  0.7546771E-02  0.1057683E+00
         21   -1    0    0  505  501  0.00000000000E+00  0.00000000000E+00  0.24360748578E+04  0.24360748578E+04  0.00000000000E+00 0. -1.
         21   -1    0    0  506  502 -0.00000000000E+00 -0.00000000000E+00 -0.10774430390E+03  0.10774430390E+03  0.00000000000E+00 0. -1.
         21    1    1    2  503  502  0.34222177782E+02 -0.15696169030E+02  0.56395302155E+01  0.38070086360E+02  0.00000000000E+00 0.  1.
         21    1    1    2  504  503  0.11509238961E+03  0.26801206821E+02  0.77568911675E+02  0.14135592981E+03  0.00000000000E+00 0. -1.
         21    1    1    2  505  504  0.28131146227E+03 -0.36804992079E+02  0.60070318717E+03  0.66433053920E+03  0.00000000000E+00 0. -1.
         21    1    1    2  506  501 -0.43062602966E+03  0.25699954288E+02  0.16444189248E+04  0.17000626063E+04  0.00000000000E+00 0. -1.
<scales pt_clust_3="30.14340" pt_clust_4="158.96556" pt_clust_5="362.28462" pt_clust_6="14000.00000"></scales>
<clustering>
<clus scale="   30.143">  3  4 -1 -1</clus>
<clus scale="  158.966">  2  3  1 -1</clus>
<clus scale="  362.285">  2  5  1 -1</clus>
<clus scale="  362.285">  1  3  2 -1</clus>
</clustering>
</event>
<event>
 6    0  0.5563122E+002  0.1783073E+03  0.7546771E-02  0.1169451E+00
         21   -1    0    0  505  501  0.00000000000E+00  0.00000000000E+00  0.55482271937E+03  0.55482271937E+03  0.00000000000E+00 0.  1.
         21   -1    0    0  504  502 -0.00000000000E+00 -0.00000000000E+00 -0.69719777132E+03  0.69719777132E+03  0.00000000000E+00 0. -1.
         21    1    1    2  503  501  0.48948106605E+02 -0.11093391702E+03 -0.14218345165E+03  0.18686461679E+03  0.00000000000E+00 0.  1.
         21    1    1    2  504  503 -0.33424589717E+02 -0.67720201219E+02 -0.42188017960E+03  0.42858618129E+03  0.00000000000E+00 0. -1.
         21    1    1    2  505  506 -0.17959315948E+03  0.10671142394E+02  0.34579416986E+03  0.38979633672E+03  0.00000000000E+00 0.  1.
         21    1    1    2  506  502  0.16406964259E+03  0.16798297585E+03  0.75894409443E+02  0.24677335589E+03  0.00000000000E+00 0.  1.
<scales pt_clust_3="154.59372" pt_clust_4="75.51972" pt_clust_5="178.30728" pt_clust_6="14000.00000"></scales>
<clustering>
<clus scale="   75.520">  2  4  1 -1</clus>
<clus scale="  154.594">  2  3  1 -1</clus>
<clus scale="  178.307">  1  5  2 -1</clus>
<clus scale="  178.307">  1  3  2 -1</clus>
</clustering>
</event>
<event>
 6    0  0.5563122E+002  0.1015875E+03  0.7546771E-02  0.1276993E+00
         21   -1    0    0  504  501  0.00000000000E+00  0.00000000000E+00  0.73434048398E+03  0.73434048398E+03  0.00000000000E+00 0.  1.
         21   -1    0    0  506  502 -0.00000000000E+00 -0.00000000000E+00 -0.92030746575E+02  0.92030746575E+02  0.00000000000E+00 0.  1.
         21    1    1    2  503  505 -0.27134397202E+02 -0.10656625977E+03  0.25967094788E+03  0.28199582338E+03  0.00000000000E+00 0.  1.
         21    1    1    2  504  503 -0.52506319905E+02  0.41113840376E+02  0.17901657458E+03  0.19103454000E+03  0.00000000000E+00 0.  1.
         21    1    1    2  505  502  0.13698902467E+03  0.15094992089E+02  0.23369782839E+03  0.27130891371E+03  0.00000000000E+00 0.  1.
         21    1    1    2  506  501 -0.57348307562E+02  0.50357427305E+02 -0.30075613437E+02  0.82031953461E+02  0.00000000000E+00 0.  1.
<scales pt_clust_3="101.58751" pt_clust_4="66.68779" pt_clust_5="14000.00000" pt_clust_6="79.46872"></scales>
<clustering>
<clus scale="   66.688">  1  4  2 -1</clus>
<clus scale="   79.469">  2  6  1 -1</clus>
<clus scale="  101.588">  1  3  2 -1</clus>
<clus scale="   66.688">  1  3  2 -1</clus>
</clustering>
</event>
<event>
 6    0  0.5563122E+002  0.9536034E+02  0.7546771E-02  0.1290367E+00
         21   -1    0    0  504  501  0.00000000000E+00  0.00000000000E+00  0.24558821384E+02  0.24558821384E+02  0.00000000000E+00 0. -1.
         21   -1    0    0  503  502 -0.00000000000E+00 -0.00000000000E+00 -0.12008898919E+04  0.12008898919E+04  0.00000000000E+00 0.  1.
         21    1    1    2  503  506  0.43293225064E+02  0.16882115500E+02 -0.23345748315E+03  0.23803719373E+03  0.00000000000E+00 0.  1.
         21    1    1    2  504  502 -0.17548048744E+02  0.98517778798E+02 -0.13666354434E+03  0.16938303075E+03  0.00000000000E+00 0. -1.
         21    1    1    2  505  501  0.17627401932E+02 -0.77197055396E+02 -0.52523368583E+03  0.53116902714E+03  0.00000000000E+00 0.  1.
         21    1    1    2  506  505 -0.43372578252E+02 -0.38202838902E+02 -0.28097635715E+03  0.28685946163E+03  0.00000000000E+00 0.  1.
<scales pt_clust_3="46.46837" pt_clust_4="14000.00000" pt_clust_5="95.36034" pt_clust_6="45.20279"></scales>
<clustering>
<clus scale="   46.468">  2  3  1 -1</clus>
<clus scale="   45.203">  2  6  1 -1</clus>
<clus scale="   95.360">  2  5  1 -1</clus>
<clus scale="   95.360">  1  3  2 -1</clus>
</clustering>
</event>
<event>
 6    0  0.5563122E+002  0.9059713E+02  0.7546771E-02  0.1301412E+00
         21   -1    0    0  506  501  0.00000000000E+00  0.00000000000E+00  0.68353172376E+03  0.68353172376E+03  0.00000000000E+00 0. -1.
         21   -1    0    0  504  502 -0.00000000000E+00 -0.00000000000E+00 -0.23835588837E+03  0.23835588837E+03  0.00000000000E+00 0. -1.
         21    1    1    2  503  502  0.33653966194E+01 -0.79637464325E+02 -0.10796488935E+03  0.13420085302E+03  0.00000000000E+00 0. -1.
         21    1    1    2  504  501 -0.23747725660E+02  0.10884386540E+03 -0.10110235122E+02  0.11186222939E+03  0.00000000000E+00 0. -1.
         21    1    1    2  505  503  0.93006825478E+01 -0.11742131912E+03  0.13076656191E+02  0.11851273272E+03  0.00000000000E+00 0. -1.
         21    1    1    2  506  505  0.11081646492E+02  0.88214918041E+02  0.55017430367E+03  0.55731179700E+03  0.00000000000E+00 0. -1.
<scales pt_clust_3="79.70854" pt_clust_4="70.92694" pt_clust_5="14000.00000" pt_clust_6="90.59713"></scales>
<clustering>
<clus scale="   79.709">  2  3  1 -1</clus>
<clus scale="   70.927">  2  4  1 -1</clus>
<clus scale="   90.597">  1  6  2 -1</clus>
<clus scale="   90.597">  1  3  2 -1</clus>
</clustering>
</event>
<event>
 6    0  0.5563122E+002  0.3627611E+03  0.7546771E-02  0.1057496E+00
         21   -1    0    0  503  501  0.00000000000E+00  0.00000000000E+00  0.15159680393E+04  0.15159680393E+04  0.00000000000E+00 0.  1.
         21   -1    0    0  505  502 -0.00000000000E+00 -0.00000000000E+00 -0.19888123596E+03  0.19888123596E+03  0.00000000000E+00 0.  1.
         21    1    1    2  503  504  0.33157153862E+02  0.34783430219E+02  0.60760666957E+02  0.77467041502E+02  0.00000000000E+00 0.  1.
         21    1    1    2  504  502  0.39063230826E+02  0.30455392981E+03  0.20223241122E+03  0.36766422224E+03  0.00000000000E+00 0.  1.
         21    1    1    2  505  506  0.46769735178E+01 -0.35788132126E+03  0.19615284089E+03  0.40813827458E+03  0.00000000000E+00 0.  1.
         21    1    1    2  506  501 -0.76897358206E+02  0.18543961235E+02  0.85794088423E+03  0.86157973690E+03  0.00000000000E+00 0.  1.
<scales pt_clust_3="36.71036" pt_clust_4="36.71036" pt_clust_5="350.69187" pt_clust_6="79.10172"></scales>
<clustering>
<clus scale="   36.710">  3  4 -1 -1</clus>
<clus scale="   79.102">  1  6  2 -1</clus>
<clus scale="  350.692">  2  5  1 -1</clus>
<clus scale="   79.102">  1  3  2 -1</clus>
</clustering>
</event>
<event>
 6    0  0.5563122E+002  0.7790012E+02  0.7546771E-02  0.1335118E+00
         21   -1    0    0  505  501  0.00000000000E+00  0.00000000000E+00  0.13348504583E+03  0.13348504583E+03  0.00000000000E+00 0. -1.
         21   -1    0    0  506  502 -0.00000000000E+00 -0.00000000000E+00 -0.35620709929E+03  0.35620709929E+03  0.00000000000E+00 0. -1.
         21    1    1    2  503  502 -0.12058136544E+02 -0.32283853756E+02 -0.56285175807E+02  0.65997476360E+02  0.00000000000E+00 0.  1.
         21    1    1    2  504  501 -0.37001919979E+02  0.27803154404E+02  0.87177084479E+02  0.98701578180E+02  0.00000000000E+00 0. -1.
         21    1    1    2  505  503 -0.41019053340E+02 -0.50157167605E+02 -0.18547131728E+02  0.67396589635E+02  0.00000000000E+00 0. -1.
         21    1    1    2  506  504  0.90079109864E+02  0.54637866958E+02 -0.23506683040E+03  0.25759650094E+03  0.00000000000E+00 0. -1.
<scales pt_clust_3="34.46224" pt_clust_4="46.09750" pt_clust_5="77.90012" pt_clust_6="14000.00000"></scales>
<clustering>
<clus scale="   34.462">  2  3  1 -1</clus>
<clus scale="   46.097">  1  4  2 -1</clus>
<clus scale="   77.900">  1  5  2 -1</clus>
<clus scale="   46.097">  1  3  2 -1</clus>
</clustering>
</event>
<event>
 6    0  0.5563122E+002  0.9759275E+02  0.7546771E-02  0.1285441E+00
         21   -1    0    0  505  501  0.00000000000E+00  0.00000000000E+00  0.97165274523E+02  0.97165274523E+02  0.00000000000E+00 0. -1.
         21   -1    0    0  503  502 -0.00000000000E+00 -0.00000000000E+00 -0.19742707025E+04  0.19742707025E+04  0.00000000000E+00 0.  1.
         21    1    1    2  503  506  0.48126037384E+02 -0.47651220726E+02 -0.25534582700E+03  0.26417464995E+03  0.00000000000E+00 0.  1.
         21    1    1    2  504  501 -0.32012982269E+02  0.78226380586E+02  0.66147664749E+02  0.10732991757E+03  0.00000000000E+00 0. -1.
         21    1    1    2  505  502 -0.67019716949E+02 -0.27032015295E+02 -0.15673980806E+04  0.15690631330E+04  0.00000000000E+00 0.  1.
         21    1    1    2  506  504  0.50906661834E+02 -0.35431445644E+01 -0.12050918514E+03  0.13086827651E+03  0.00000000000E+00 0.  1.
<scales pt_clust_3="42.20085" pt_clust_4="84.62128" pt_clust_5="72.26598" pt_clust_6="42.20085"></scales>
<clustering>
<clus scale="   42.201">  3  6 -1 -1</clus>
<clus scale="   72.266">  2  5  1 -1</clus>
<clus scale="   84.621">  1  4  2 -1</clus>
<clus scale="   84.621">  1  3  2 -1</clus>
</clustering>
</event>
<event>
 6    0  0.5563122E+002  0.1468537E+03  0.7546771E-02  0.1204393E+00
         21   -1    0    0  505  501  0.00000000000E+00  0.00000000000E+00  0.14671093581E+04  0.14671093581E+04  0.00000000000E+00 0.  1.
         21   -1    0    0  503  502 -0.00000000000E+00 -0.00000000000E+00 -0.41974668956E+02  0.41974668956E+02  0.00000000000E+00 0.  1.
         21    1    1    2  503  504  0.11428416429E+03  0.62622691873E+02  0.77259941153E+03  0.78351280936E+03  0.00000000000E+00 0.  1.
         21    1    1    2  504  506  0.44375853624E+02 -0.24094094970E+01  0.13777607039E+03  0.14476625025E+03  0.00000000000E+00 0.  1.
         21    1    1    2  505  502 -0.12141062611E+03 -0.37110194929E+02  0.94498327236E+02  0.15826446395E+03  0.00000000000E+00 0.  1.
         21    1    1    2  506  501 -0.37249391808E+02 -0.23103087447E+02  0.42026087996E+03  0.42254050346E+03  0.00000000000E+00 0.  1.
<scales pt_clust_3="37.48294" pt_clust_4="37.48294" pt_clust_5="132.08388" pt_clust_6="43.83229"></scales>
<clustering>
<clus scale="   37.483">  3  4 -1 -1</clus>
<clus scale="   43.832">  1  6  2 -1</clus>
<clus scale="  132.084">  2  5  1 -1</clus>
<clus scale="   43.832">  1  3  2 -1</clus>
</clustering>
</event>
<event>
 6    0  0.5563122E+002  0.1304365E+03  0.7546771E-02  0.1226809E+00
         21   -1    0    0  503  501  0.00000000000E+00  0.00000000000E+00  0.17704918677E+04  0.17704918677E+04  0.00000000000E+00 0.  1.
         21   -1    0    0  505  502 -0.00000000000E+00 -0.00000000000E+00 -0.91780307515E+02  0.91780307515E+02  0.00000000000E+00 0. -1.
         21    1    1    2  503  506  0.17217312558E+02  0.10439057863E+03  0.77000369913E+03  0.77723839678E+03  0.00000000000E+00 0.  1.
         21    1    1    2  504  502 -0.54066183264E+02 -0.42928350569E+02 -0.66842364585E+02  0.96093169157E+02  0.00000000000E+00 0. -1.
         21    1    1    2  505  501  0.26659347624E+02 -0.10419109509E+03  0.82904560187E+03  0.83599229368E+03  0.00000000000E+00 0.  1.
         21    1    1    2  506  504  0.10189523082E+02  0.42728867030E+02  0.14650462377E+03  0.15294831559E+03  0.00000000000E+00 0.  1.
<scales pt_clust_3="34.48651" pt_clust_4="69.03619" pt_clust_5="118.95018" pt_clust_6="34.48651"></scales>
<clustering>
<clus scale="   34.487">  3  6 -1 -1</clus>
<clus scale="   69.036">  2  4  1 -1</clus>
<clus scale="  118.950">  1  5  2 -1</clus>
<clus scale="  118.950">  1  3  2 -1</clus>
</clustering>
</event>
<event>
 6    0  0.5563122E+002  0.1090643E+03  0.7546771E-02  0.1262312E+00
         21   -1    0    0  504  501  0.00000000000E+00  0.00000000000E+00  0.19528435573E+03  0.19528435573E+03  0.00000000000E+00 0. -1.
         21   -1    0    0  506  502 -0.00000000000E+00 -0.00000000000E+00 -0.57491697440E+03  0.57491697440E+03  0.00000000000E+00 0.  1.
         21    1    1    2  503  501  0.31036631142E+02  0.28917247154E+02  0.11723138660E+03  0.12467027577E+03  0.00000000000E+00 0. -1.
         21    1    1    2  504  505  0.52747226399E+01  0.79651585105E+02  0.10674021051E+02  0.80536528569E+02  0.00000000000E+00 0. -1.
         21    1    1    2  505  502 -0.97505632744E+02 -0.12876304442E+03 -0.23642627686E+03  0.28632962546E+03  0.00000000000E+00 0.  1.
         21    1    1    2  506  503  0.61194278963E+02  0.20194212161E+02 -0.27111174946E+03  0.27866490033E+03  0.00000000000E+00 0.  1.
<scales pt_clust_3="42.42027" pt_clust_4="14000.00000" pt_clust_5="109.06432" pt_clust_6="66.40418"></scales>
<clustering>
<clus scale="   42.420">  1  3  2 -1</clus>
<clus scale="   66.404">  2  6  1 -1</clus>
<clus scale="  109.064">  2  5  1 -1</clus>
<clus scale="   42.420">  1  3  2 -1</clus>
</clustering>
</event>
<event>
 6    0  0.5563122E+002  0.1520207E+03  0.7546771E-02  0.1198012E+00
         21   -1    0    0  506  501  0.00000000000E+00  0.00000000000E+00  0.13400040299E+03  0.13400040299E+03  0.00000000000E+00 0. -1.
         21   -1    0    0  505  502 -0.00000000000E+00 -0.00000000000E+00 -0.46036149699E+03  0.46036149699E+03  0.00000000000E+00 0. -1.
         21    1    1    2  503  502 -0.70736936196E+02 -0.80481426857E+02 -0.48510772502E+02  0.11761917046E+03  0.00000000000E+00 0. -1.
         21    1    1    2  504  501  0.79226805172E+02  0.28164472723E+02 -0.13641427749E+03  0.16024662020E+03  0.00000000000E+00 0. -1.
         21    1    1    2  505  504  0.60945391268E+02  0.65045735815E+02 -0.20371226393E+03  0.22236001201E+03  0.00000000000E+00 0. -1.
         21    1    1    2  506  503 -0.69435260243E+02 -0.12728781681E+02  0.62276219924E+02  0.94136097307E+02  0.00000000000E+00 0. -1.
<scales pt_clust_3="144.03091" pt_clust_4="47.23676" pt_clust_5="47.23676" pt_clust_6="70.59233"></scales>
<clustering>
<clus scale="   47.237">  4  5 -1 -1</clus>
<clus scale="   70.592">  1  6  2 -1</clus>
<clus scale="  144.031">  1  3  2 -1</clus>
<clus scale="   70.592">  1  3  2 -1</clus>
</clustering>
</event>
<event>
 6    0  0.5563122E+002  0.1887902E+03  0.7546771E-02  0.1159557E+00
         21   -1    0    0  503  501  0.00000000000E+00  0.00000000000E+00  0.10905254868E+04  0.10905254868E+04  0.00000000000E+00 0. -1.
         21   -1    0    0  506  502 -0.00000000000E+00 -0.00000000000E+00 -0.80993446048E+02  0.80993446048E+02  0.00000000000E+00 0. -1.
         21    1    1    2  503  502 -0.10325030169E+03  0.11895363197E+03  0.28253491571E+02  0.16002765743E+03  0.00000000000E+00 0. -1.
         21    1    1    2  504  501  0.55332998253E+02 -0.73218015145E+02  0.50891619330E+03  0.51712504314E+03  0.00000000000E+00 0. -1.
         21    1    1    2  505  504  0.76083475122E+02 -0.64289620358E+02  0.42307887363E+03  0.43464650440E+03  0.00000000000E+00 0. -1.
         21    1    1    2  506  505 -0.28166171682E+02  0.18554003536E+02  0.49283482209E+02  0.59719727838E+02  0.00000000000E+00 0. -1.
<scales pt_clust_3="185.91960" pt_clust_4="31.48082" pt_clust_5="31.48082" pt_clust_6="33.72809"></scales>
<clustering>
<clus scale="   31.481">  4  5 -1 -1</clus>
<clus scale="   33.728">  2  6  1 -1</clus>
<clus scale="  185.920">  2  3  1 -1</clus>
<clus scale="  188.790">  1  3  2 -1</clus>
</clustering>
</event>
<event>
 6    0  0.5563122E+002  0.1098791E+03  0.7546771E-02  0.1260794E+00
         21   -1    0    0  504  501  0.00000000000E+00  0.00000000000E+00  0.83716780473E+03  0.83716780473E+03  0.00000000000E+00 0. -1.
         21   -1    0    0  503  502 -0.00000000000E+00 -0.00000000000E+00 -0.13401858686E+03  0.13401858686E+03  0.00000000000E+00 0.  1.
         21    1    1    2  503  506  0.18691876905E+02 -0.13892674794E+03 -0.34805694617E+02  0.14443498169E+03  0.00000000000E+00 0.  1.
         21    1    1    2  504  502 -0.36989370711E+02  0.12120112350E+02 -0.19085527656E+02  0.43351678571E+02  0.00000000000E+00 0.  1.
         21    1    1    2  505  501  0.36161071083E+02  0.57927509574E+02  0.65752210262E+03  0.66105864706E+03  0.00000000000E+00 0. -1.
         21    1    1    2  506  505 -0.17863577277E+02  0.68879126020E+02  0.99518337529E+02  0.12234108426E+03  0.00000000000E+00 0.  1.
<scales pt_clust_3="109.87908" pt_clust_4="38.92442" pt_clust_5="68.13080" pt_clust_6="14000.00000"></scales>
<clustering>
<clus scale="   38.924">  2  4  1 -1</clus>
<clus scale="   68.131">  1  5  2 -1</clus>
<clus scale="  109.879">  2  3  1 -1</clus>
<clus scale="   68.131">  1  3  2 -1</clus>
</clustering>
</event>
<event>
 6    0  0.5563122E+002  0.3359643E+03  0.7546771E-02  0.1068528E+00
         21   -1    0    0  506  501  0.00000000000E+00  0.00000000000E+00  0.13614334654E+04  0.13614334654E+04  0.00000000000E+00 0.  1.
         21   -1    0    0  505  502 -0.00000000000E+00 -0.00000000000E+00 -0.10395268356E+04  0.10395268356E+04  0.00000000000E+00 0.  1.
         21    1    1    2  503  504  0.23797550755E+03  0.72078486170E+01  0.61548562295E+01  0.23816418188E+03  0.00000000000E+00 0.  1.
         21    1    1    2  504  501 -0.34329183970E+03 -0.11093683717E+03  0.11721058963E+04  0.12263720892E+04  0.00000000000E+00 0.  1.
         21    1    1    2  505  503 -0.42911374521E+02  0.10514025851E+02 -0.70084744225E+03  0.70223861195E+03  0.00000000000E+00 0.  1.
         21    1    1    2  506  502  0.14822770666E+03  0.93214962703E+02 -0.15550668045E+03  0.23418541791E+03  0.00000000000E+00 0.  1.
<scales pt_clust_3="335.96435" pt_clust_4="14000.00000" pt_clust_5="44.18066" pt_clust_6="158.44693"></scales>
<clustering>
<clus scale="   44.181">  2  5  1 -1</clus>
<clus scale="  158.447">  2  6  1 -1</clus>
<clus scale="  335.964">  2  3  1 -1</clus>
<clus scale="  335.964">  1  3  2 -1</clus>
</clustering>
</event>
<event>
 6    0  0.5563122E+002  0.1538517E+03  0.7546771E-02  0.1195818E+00
         21   -1    0    0  503  501  0.00000000000E+00  0.00000000000E+00  0.13405369504E+04  0.13405369504E+04  0.00000000000E+00 0. -1.
         21   -1    0    0  506  502 -0.00000000000E+00 -0.00000000000E+00 -0.31263755522E+03  0.31263755522E+03  0.00000000000E+00 0.  1.
         21    1    1    2  503  502 -0.79313931854E+02 -0.10761360686E+03 -0.43787590505E+02  0.14067246088E+03  0.00000000000E+00 0. -1.
         21    1    1    2  504  501  0.30540746017E+02  0.17127627578E+00  0.10410589258E+04  0.10415068188E+04  0.00000000000E+00 0. -1.
         21    1    1    2  505  504  0.13928261450E+03 -0.89562404888E+01  0.20161691667E+03  0.24521264656E+03  0.00000000000E+00 0. -1.
         21    1    1    2  506  505 -0.90509428666E+02  0.11639857108E+03 -0.17098885679E+03  0.22578257943E+03  0.00000000000E+00 0.  1.
<scales pt_clust_3="130.78850" pt_clust_4="30.54123" pt_clust_5="14000.00000" pt_clust_6="153.85171"></scales>
<clustering>
<clus scale="   30.541">  1  4  2 -1</clus>
<clus scale="  130.788">  2  3  1 -1</clus>
<clus scale="  153.852">  2  6  1 -1</clus>
<clus scale="   30.541">  1  3  2 -1</clus>
</clustering>
</event>
<event>
 6    0  0.5563122E+002  0.1583029E+03  0.7546771E-02  0.1190626E+00
         21   -1    0    0  505  501  0.00000000000E+00  0.00000000000E+00  0.26135762949E+03  0.26135762949E+03  0.00000000000E+00 0. -1.
         21   -1    0    0  504  502 -0.00000000000E+00 -0.00000000000E+00 -0.26963079381E+03  0.26963079381E+03  0.00000000000E+00 0. -1.
         21    1    1    2  503  501  0.10492378408E+03 -0.47174283583E+02  0.26468944305E+02  0.11804667936E+03  0.00000000000E+00 0. -1.
         21    1    1    2  504  503  0.69159208406E+02 -0.68660764910E+02 -0.14848805001E+02  0.98578820014E+02  0.00000000000E+00 0. -1.
         21    1    1    2  505  506 -0.78516509485E+02  0.10516974512E+03  0.96852953310E+02  0.16311349458E+03  0.00000000000E+00 0. -1.
         21    1    1    2  506  502 -0.95566482996E+02  0.10665303374E+02 -0.11674625694E+03  0.15124942934E+03  0.00000000000E+00 0. -1.
<scales pt_clust_3="50.98794" pt_clust_4="50.98794" pt_clust_5="148.29323" pt_clust_6="96.15977"></scales>
<clustering>
<clus scale="   50.988">  3  4 -1 -1</clus>
<clus scale="   96.160">  2  6  1 -1</clus>
<clus scale="  148.293">  1  5  2 -1</clus>
<clus scale="  148.293">  1  3  2 -1</clus>
</clustering>
</event>
<event>
 6    0  0.5563122E+002  0.9914364E+02  0.7546771E-02  0.1282107E+00
         21   -1    0    0  503  501  0.00000000000E+00  0.00000000000E+00  0.14206153315E+03  0.14206153315E+03  0.00000000000E+00 0. -1.
         21   -1    0    0  504  502 -0.00000000000E+00 -0.00000000000E+00 -0.44119840942E+03  0.44119840942E+03  0.00000000000E+00 0.  1.
         21    1    1    2  503  506  0.23754979935E+02  0.65429237643E+02 -0.41032447026E+01  0.69728909552E+02  0.00000000000E+00 0. -1.
         21    1    1    2  504  505  0.63838129514E+02 -0.68316142175E+01  0.45572655179E+02  0.78732741809E+02  0.00000000000E+00 0. -1.
         21    1    1    2  505  501 -0.19605253699E+02  0.23575192889E+02  0.33719178736E+02  0.45575637209E+02  0.00000000000E+00 0. -1.
         21    1    1    2  506  502 -0.67987855750E+02 -0.82172816314E+02 -0.37432546549E+03  0.38922265399E+03  0.00000000000E+00 0.  1.
<scales pt_clust_3="14000.00000" pt_clust_4="52.47538" pt_clust_5="30.66196" pt_clust_6="99.14364"></scales>
<clustering>
<clus scale="   30.662">  1  5  2 -1</clus>
<clus scale="   52.475">  1  4  2 -1</clus>
<clus scale="   99.144">  2  6  1 -1</clus>
<clus scale="   30.662">  1  3  2 -1</clus>
</clustering>
</event>
<event>
 6    0  0.5563122E+002  0.1632278E+03  0.7546771E-02  0.1185100E+00
         21   -1    0    0  505  501  0.00000000000E+00  0.00000000000E+00  0.47072842440E+03  0.47072842440E+03  0.00000000000E+00 0.  1.
         21   -1    0    0  506  502 -0.00000000000E+00 -0.00000000000E+00 -0.40612897384E+03  0.40612897384E+03  0.00000000000E+00 0. -1.
         21    1    1    2  503  501 -0.32040388824E+02 -0.13412836408E+03 -0.22525956824E+03  0.26411905962E+03  0.00000000000E+00 0. -1.
         21    1    1    2  504  502  0.13796368140E+02 -0.39460291072E+02 -0.86496165830E+01  0.42688057023E+02  0.00000000000E+00 0. -1.
         21    1    1    2  505  504 -0.21882136138E+02  0.16398543673E+03  0.41484366501E+03  0.44661540249E+03  0.00000000000E+00 0.  1.
         21    1    1    2  506  503  0.40126156823E+02  0.96032184289E+01 -0.11633502962E+03  0.12343487912E+03  0.00000000000E+00 0. -1.
<scales pt_clust_3="14000.00000" pt_clust_4="42.33754" pt_clust_5="163.22782" pt_clust_6="41.25931"></scales>
<clustering>
<clus scale="   41.259">  2  6  1 -1</clus>
<clus scale="   42.338">  2  4  1 -1</clus>
<clus scale="  163.228">  1  5  2 -1</clus>
<clus scale="  163.228">  1  3  2 -1</clus>
</clustering>
</event>
<event>
 6    0  0.5563122E+002  0.8680641E+02  0.7546771E-02  0.1310775E+00
         21   -1    0    0  506  501  0.00000000000E+00  0.00000000000E+00  0.19665440432E+03  0.19665440432E+03  0.00000000000E+00 0. -1.
         21   -1    0    0  504  502 -0.00000000000E+00 -0.00000000000E+00 -0.93352229660E+03  0.93352229660E+03  0.00000000000E+00 0. -1.
         21    1    1    2  503  501 -0.67148751095E+01  0.48606794669E+02  0.17825932624E+03  0.18488941946E+03  0.00000000000E+00 0. -1.
         21    1    1    2  504  503 -0.72338787984E+02 -0.58741460388E+02 -0.57037357840E+03  0.57793553131E+03  0.00000000000E+00 0. -1.
         21    1    1    2  505  502  0.28394934161E+02 -0.38389558224E+02 -0.21081438445E+03  0.21615442433E+03  0.00000000000E+00 0.  1.
         21    1    1    2  506  505  0.50658728933E+02  0.48524223943E+02 -0.13393925567E+03  0.15119732582E+03  0.00000000000E+00 0.  1.
<scales pt_clust_3="48.87556" pt_clust_4="14000.00000" pt_clust_5="47.74966" pt_clust_6="86.80641"></scales>
<clustering>
<clus scale="   47.750">  2  5  1 -1</clus>
<clus scale="   48.876">  1  3  2 -1</clus>
<clus scale="   86.806">  1  6  2 -1</clus>
<clus scale="   48.876">  1  3  2 -1</clus>
</clustering>
</event>
<event>
 6    0  0.5563122E+002  0.1737828E+03  0.7546771E-02  0.1173959E+00
         21   -1    0    0  505  501  0.00000000000E+00  0.00000000000E+00  0.13256117107E+03  0.13256117107E+03  0.00000000000E+00 0.  1.
         21   -1    0    0  504  502 -0.00000000000E+00 -0.00000000000E+00 -0.53904976189E+03  0.53904976189E+03  0.00000000000E+00 0.  1.
         21    1    1    2  503  501 -0.24829541821E+02  0.76631545838E+02  0.79929629869E+01  0.80949289199E+02  0.00000000000E+00 0.  1.
         21    1    1    2  504  503  0.13308421859E+03  0.80617236421E+02 -0.34137358288E+03  0.37516192655E+03  0.00000000000E+00 0.  1.
         21    1    1    2  505  506 -0.78483393017E+02 -0.13152044677E+03 -0.28095236856E+02  0.15571324039E+03  0.00000000000E+00 0.  1.
         21    1    1    2  506  502 -0.29771283749E+02 -0.25728335490E+02 -0.45012734067E+02  0.59786476826E+02  0.00000000000E+00 0.  1.
<scales pt_clust_3="80.55371" pt_clust_4="159.84791" pt_clust_5="34.56027" pt_clust_6="34.56027"></scales>
<clustering>
<clus scale="   34.560">  5  6 -1 -1</clus>
<clus scale="   80.554">  1  3  2 -1</clus>
<clus scale="  159.848">  2  4  1 -1</clus>
<clus scale="   80.554">  1  3  2 -1</clus>
</clustering>
</event>
<event>
 6    0  0.5563122E+002  0.1736552E+03  0.7546771E-02  0.1174089E+00
         21   -1    0    0  503  501  0.00000000000E+00  0.00000000000E+00  0.26482148991E+03  0.26482148991E+03  0.00000000000E+00 0.  1.
         21   -1    0    0  505  502 -0.00000000000E+00 -0.00000000000E+00 -0.11476997567E+04  0.11476997567E+04  0.00000000000E+00 0.  1.
         21    1    1    2  503  506  0.23391632014E+02 -0.93556888369E+02  0.20993602791E+03  0.23102639595E+03  0.00000000000E+00 0.  1.
         21    1    1    2  504  502 -0.49451937851E+02 -0.49258829428E+02 -0.38352801568E+03  0.38982773791E+03  0.00000000000E+00 0.  1.
         21    1    1    2  505  501  0.11753392931E+03  0.17541667098E+03 -0.27531438866E+03  0.34696288793E+03  0.00000000000E+00 0.  1.
         21    1    1    2  506  504 -0.91473623475E+02 -0.32600953182E+02 -0.43397189042E+03  0.44470422487E+03  0.00000000000E+00 0.  1.
<scales pt_clust_3="96.43682" pt_clust_4="33.66172" pt_clust_5="169.05519" pt_clust_6="33.66172"></scales>
<clustering>
<clus scale="   33.662">  4  6 -1 -1</clus>
<clus scale="   96.437">  1  3  2 -1</clus>
<clus scale="  169.055">  1  5  2 -1</clus>
<clus scale="   96.437">  1  3  2 -1</clus>
</clustering>
</event>
<event>
 6    0  0.5563122E+002  0.1176023E+03  0.7546771E-02  0.1247106E+00
         21   -1    0    0  504  501  0.00000000000E+00  0.00000000000E+00  0.77999417278E+03  0.77999417278E+03  0.00000000000E+00 0. -1.
         21   -1    0    0  506  502 -0.00000000000E+00 -0.00000000000E+00 -0.25396262465E+03  0.25396262465E+03  0.00000000000E+00 0.  1.
         21    1    1    2  503  502 -0.61460992888E+02 -0.47017747475E+02 -0.16188131990E+03  0.17942598462E+03  0.00000000000E+00 0.  1.
         21    1    1    2  504  503  0.15007766942E+03  0.67125012042E+02  0.43738826679E+02  0.17012395204E+03  0.00000000000E+00 0.  1.
         21    1    1    2  505  501 -0.41630360512E+02 -0.37567052725E+02  0.62975804592E+03  0.63224960796E+03  0.00000000000E+00 0. -1.
         21    1    1    2  506  505 -0.46986316019E+02  0.17459788158E+02  0.14415995435E+02  0.52157252803E+02  0.00000000000E+00 0.  1.
<scales pt_clust_3="117.60227" pt_clust_4="14000.00000" pt_clust_5="56.19804" pt_clust_6="50.12542"></scales>
<clustering>
<clus scale="   50.125">  2  6  1 -1</clus>
<clus scale="   56.198">  1  5  2 -1</clus>
<clus scale="  117.602">  2  3  1 -1</clus>
<clus scale="   56.198">  1  3  2 -1</clus>
</clustering>
</event>
<event>
 6    0  0.5563122E+002  0.2291655E+03  0.7546771E-02  0.1127228E+00
         21   -1    0    0  504  501  0.00000000000E+00  0.00000000000E+00  0.98663733758E+03  0.98663733758E+03  0.00000000000E+00 0. -1.
         21   -1    0    0  505  502 -0.00000000000E+00 -0.00000000000E+00 -0.38467805667E+03  0.38467805667E+03  0.00000000000E+00 0.  1.
         21    1    1    2  503  502  0.11920349376E+02  0.40684534866E+02 -0.17163153872E+03  0.17679002005E+03  0.00000000000E+00 0.  1.
         21    1    1    2  504  506  0.22611133038E+02  0.69828059374E+02  0.42658908098E+03  0.43285732664E+03  0.00000000000E+00 0. -1.
         21    1    1    2  505  501 -0.14804906121E+03 -0.20079703868E+03 -0.11698290590E+03  0.27554124109E+03  0.00000000000E+00 0.  1.
         21    1    1    2  506  503  0.11351757880E+03  0.90284444436E+02  0.46398464454E+03  0.48612680648E+03  0.00000000000E+00 0. -1.
<scales pt_clust_3="42.39488" pt_clust_4="60.42234" pt_clust_5="212.77592" pt_clust_6="60.42234"></scales>
<clustering>
<clus scale="   42.395">  2  3  1 -1</clus>
<clus scale="   60.422">  4  6 -1 -1</clus>
<clus scale="  212.776">  2  5  1 -1</clus>
<clus scale="  229.166">  1  3  2 -1</clus>
</clustering>
</event>
<event>
 6    0  0.5563122E+002  0.9793197E+02  0.7546771E-02  0.1284706E+00
         21   -1    0    0  503  501  0.00000000000E+00  0.00000000000E+00  0.14674264943E+03  0.14674264943E+03  0.00000000000E+00 0. -1.
         21   -1    0    0  505  502 -0.00000000000E+00 -0.00000000000E+00 -0.29308786813E+03  0.29308786813E+03  0.00000000000E+00 0. -1.
         21    1    1    2  503  502 -0.97719789155E+02 -0.85935596494E+02 -0.10469368966E+03  0.16701752181E+03  0.00000000000E+00 0. -1.
         21    1    1    2  504  501  0.11665902732E+02  0.30811449731E+02  0.64075625060E+02  0.72049458345E+02  0.00000000000E+00 0. -1.
         21    1    1    2  505  506  0.69232504280E+01  0.42761004468E+02 -0.11233813794E+03  0.12040054873E+03  0.00000000000E+00 0. -1.
         21    1    1    2  506  504  0.79130635995E+02  0.12363142294E+02  0.66109838405E+01  0.80362988668E+02  0.00000000000E+00 0. -1.
<scales pt_clust_3="14000.00000" pt_clust_4="32.94600" pt_clust_5="44.97298" pt_clust_6="97.93197"></scales>
<clustering>
<clus scale="   32.946">  1  4  2 -1</clus>
<clus scale="   44.973">  2  5  1 -1</clus>
<clus scale="   97.932">  1  6  2 -1</clus>
<clus scale="   32.946">  1  3  2 -1</clus>
</clustering>
</event>
<event>
 6    0  0.5563122E+002  0.9771211E+02  0.7546771E-02  0.1285182E+00
         21   -1    0    0  504  501  0.00000000000E+00  0.00000000000E+00  0.21830211540E+04  0.21830211540E+04  0.00000000000E+00 0.  1.
         21   -1    0    0  505  502 -0.00000000000E+00 -0.00000000000E+00 -0.30918678300E+03  0.30918678300E+03  0.00000000000E+00 0. -1.
         21    1    1    2  503  502  0.89686825963E+02  0.52484001316E+01 -0.29296740757E+03  0.30643298509E+03  0.00000000000E+00 0. -1.
         21    1    1    2  504  503  0.23900834033E+02 -0.10065552736E+03  0.86773326380E+03  0.87387859693E+03  0.00000000000E+00 0. -1.
         21    1    1    2  505  506 -0.62300562625E+02  0.89565233411E+02  0.53084955136E+03  0.54194514236E+03  0.00000000000E+00 0.  1.
         21    1    1    2  506  501 -0.51287097371E+02  0.58418938204E+01  0.76821896342E+03  0.76995121264E+03  0.00000000000E+00 0.  1.
<scales pt_clust_3="89.59810" pt_clust_4="14000.00000" pt_clust_5="97.71211" pt_clust_6="51.61874"></scales>
<clustering>
<clus scale="   51.619">  1  6  2 -1</clus>
<clus scale="   89.598">  2  3  1 -1</clus>
<clus scale="   97.712">  2  5  1 -1</clus>
<clus scale="   51.619">  1  3  2 -1</clus>
</clustering>
</event>
<event>
 6    0  0.5563122E+002  0.7922478E+02  0.7546771E-02  0.1331266E+00
         21   -1    0    0  504  501  0.00000000000E+00  0.00000000000E+00  0.53535319060E+03  0.53535319060E+03  0.00000000000E+00 0. -1.
         21   -1    0    0  503  502 -0.00000000000E+00 -0.00000000000E+00 -0.12100619766E+03  0.12100619766E+03  0.00000000000E+00 0. -1.
         21    1    1    2  503  505  0.13913859770E+02 -0.53783022131E+02 -0.69174330222E+02  0.88720329829E+02  0.00000000000E+00 0. -1.
         21    1    1    2  504  502 -0.36159130353E+02 -0.11001736681E+02  0.28207230232E+02  0.47161093661E+02  0.00000000000E+00 0. -1.
         21    1    1    2  505  506  0.12895016026E+02  0.13587249709E+03  0.13402608876E+03  0.19128672032E+03  0.00000000000E+00 0. -1.
         21    1    1    2  506  501  0.93502545576E+01 -0.71087738277E+02  0.32128800417E+03  0.32919124444E+03  0.00000000000E+00 0. -1.
<scales pt_clust_3="62.66913" pt_clust_4="37.79578" pt_clust_5="14000.00000" pt_clust_6="79.22478"></scales>
<clustering>
<clus scale="   37.796">  2  4  1 -1</clus>
<clus scale="   62.669">  2  3  1 -1</clus>
<clus scale="   79.225">  1  6  2 -1</clus>
<clus scale="   79.225">  1  3  2 -1</clus>
</clustering>
</event>
<event>
 6    0  0.5563122E+002  0.8473671E+02  0.7546771E-02  0.1316122E+00
         21   -1    0    0  504  501  0.00000000000E+00  0.00000000000E+00  0.12858671729E+03  0.12858671729E+03  0.00000000000E+00 0. -1.
         21   -1    0    0  506  502 -0.00000000000E+00 -0.00000000000E+00 -0.40410212354E+03  0.40410212354E+03  0.00000000000E+00 0. -1.
         21    1    1    2  503  502  0.40734875561E+02  0.49416939118E+00 -0.26448725558E+02  0.48570663718E+02  0.00000000000E+00 0. -1.
         21    1    1    2  504  503 -0.38804939932E+02 -0.83430894010E+02  0.44813462601E+02  0.10234639158E+03  0.00000000000E+00 0. -1.
         21    1    1    2  505  501 -0.56846292740E+02  0.86001946257E+02 -0.23344306271E+02  0.10570143042E+03  0.00000000000E+00 0. -1.
         21    1    1    2  506  505  0.54916357110E+02 -0.30652216390E+01 -0.27053583702E+03  0.27607035512E+03  0.00000000000E+00 0. -1.
<scales pt_clust_3="40.73787" pt_clust_4="84.73671" pt_clust_5="14000.00000" pt_clust_6="85.32777"></scales>
<clustering>
<clus scale="   40.738">  2  3  1 -1</clus>
<clus scale="   85.328">  2  6  1 -1</clus>
<clus scale="   84.737">  1  4  2 -1</clus>
<clus scale="   84.737">  1  3  2 -1</clus>
</clustering>
</event>
<event>
 6    0  0.5563122E+002  0.9519430E+02  0.7546771E-02  0.1290739E+00
         21   -1    0    0  503  501  0.00000000000E+00  0.00000000000E+00  0.62908194548E+03  0.62908194548E+03  0.00000000000E+00 0. -1.
         21   -1    0    0  506  502 -0.00000000000E+00 -0.00000000000E+00 -0.96093591761E+02  0.96093591761E+02  0.00000000000E+00 0.  1.
         21    1    1    2  503  504 -0.23617934065E+02  0.93041138421E+02  0.40100865773E+03  0.41233773030E+03  0.00000000000E+00 0. -1.
         21    1    1    2  504  505  0.67722735465E+02 -0.75534138207E+02  0.12912700533E+03  0.16421193147E+03  0.00000000000E+00 0.  1.
         21    1    1    2  505  502  0.16318326384E+02  0.52071579333E+02  0.12461685814E+02  0.55973482682E+02  0.00000000000E+00 0. -1.
         21    1    1    2  506  501 -0.60423127784E+02 -0.69578579548E+02 -0.96089951493E+01  0.92652392796E+02  0.00000000000E+00 0.  1.
<scales pt_clust_3="95.19430" pt_clust_4="14000.00000" pt_clust_5="54.56865" pt_clust_6="59.66980"></scales>
<clustering>
<clus scale="   54.569">  2  5  1 -1</clus>
<clus scale="   59.670">  2  6  1 -1</clus>
<clus scale="   95.194">  1  3  2 -1</clus>
<clus scale="   95.194">  1  3  2 -1</clus>
</clustering>
</event>
<event>
 6    0  0.5563122E+002  0.1018610E+03  0.7546771E-02  0.1276430E+00
         21   -1    0    0  506  501  0.00000000000E+00  0.00000000000E+00  0.50013708484E+02  0.50013708484E+02  0.00000000000E+00 0.  1.
         21   -1    0    0  504  502 -0.00000000000E+00 -0.00000000000E+00 -0.81725561030E+03  0.81725561030E+03  0.00000000000E+00 0.  1.
         21    1    1    2  503  501  0.60924808785E+01 -0.33708410521E+02  0.83910873000E+01  0.35267344799E+02  0.00000000000E+00 0.  1.
         21    1    1    2  504  503  0.67072246577E+01 -0.67216500169E+02 -0.90176872872E+02  0.11267170523E+03  0.00000000000E+00 0.  1.
         21    1    1    2  505  502 -0.48093077987E+02  0.10902713226E+03 -0.66904397477E+03  0.67957317479E+03  0.00000000000E+00 0.  1.
         21    1    1    2  506  505  0.35293372451E+02 -0.81022215695E+01 -0.16412141483E+02  0.39757093975E+02  0.00000000000E+00 0.  1.
<scales pt_clust_3="34.25457" pt_clust_4="14000.00000" pt_clust_5="101.86104" pt_clust_6="43.78174"></scales>
<clustering>
<clus scale="   34.255">  1  3  2 -1</clus>
<clus scale="   43.782">  1  6  2 -1</clus>
<clus scale="  101.861">  2  5  1 -1</clus>
<clus scale="   34.255">  1  3  2 -1</clus>
</clustering>
</event>
<event>
 6    0  0.5563122E+002  0.1486342E+03  0.7546771E-02  0.1202161E+00
         21   -1    0    0  503  501  0.00000000000E+00  0.00000000000E+00  0.54082898354E+02  0.54082898354E+02  0.00000000000E+00 0.  1.
         21   -1    0    0  501  502 -0.00000000000E+00 -0.00000000000E+00 -0.78345593149E+03  0.78345593149E+03  0.00000000000E+00 0. -1.
         21    1    1    2  503  504  0.67215178718E+02  0.35345446842E+02 -0.43282112084E+02  0.87410080020E+02  0.00000000000E+00 0. -1.
         21    1    1    2  504  506  0.11130916180E+02 -0.14936275841E+03 -0.27828260701E+03  0.31602901807E+03  0.00000000000E+00 0.  1.
         21    1    1    2  505  502 -0.38651264828E+02  0.96781965519E+02 -0.26069609898E+03  0.28075456389E+03  0.00000000000E+00 0. -1.
         21    1    1    2  506  505 -0.39694830070E+02  0.17235346049E+02 -0.14711221506E+03  0.15334516786E+03  0.00000000000E+00 0. -1.
<scales pt_clust_3="75.94196" pt_clust_4="138.18547" pt_clust_5="35.27695" pt_clust_6="35.27695"></scales>
<clustering>
<clus scale="   35.277">  5  6 -1 -1</clus>
<clus scale="   75.942">  1  3  2 -1</clus>
<clus scale="  138.185">  1  4  2 -1</clus>
<clus scale="   75.942">  1  3  2 -1</clus>
</clustering>
</event>
<event>
 6    0  0.5563122E+002  0.7517175E+02  0.7546771E-02  0.1343340E+00
         21   -1    0    0  503  501  0.00000000000E+00  0.00000000000E+00  0.25079053710E+03  0.25079053710E+03  0.00000000000E+00 0.  1.
         21   -1    0    0  504  502 -0.00000000000E+00 -0.00000000000E+00 -0.12538175030E+03  0.12538175030E+03  0.00000000000E+00 0. -1.
         21    1    1    2  503  506  0.18539502586E+02  0.42474199790E+02  0.21075317131E+02  0.50911096984E+02  0.00000000000E+00 0. -1.
         21    1    1    2  504  505  0.33196290321E+02 -0.37187805863E+02 -0.47545445734E+01  0.50075266251E+02  0.00000000000E+00 0. -1.
         21    1    1    2  505  501  0.53051024380E+02 -0.37901463471E+02  0.14559579854E+03  0.15952764235E+03  0.00000000000E+00 0.  1.
         21    1    1    2  506  502 -0.10478681729E+03  0.32615069545E+02 -0.36507784304E+02  0.11565828182E+03  0.00000000000E+00 0. -1.
<scales pt_clust_3="46.34405" pt_clust_4="48.01475" pt_clust_5="75.17175" pt_clust_6="14000.00000"></scales>
<clustering>
<clus scale="   46.344">  1  3  2 -1</clus>
<clus scale="   48.015">  2  4  1 -1</clus>
<clus scale="   75.172">  1  5  2 -1</clus>
<clus scale="   46.344">  1  3  2 -1</clus>
</clustering>
</event>
<event>
 6    0  0.5563122E+002  0.7631234E+02  0.7546771E-02  0.1339855E+00
         21   -1    0    0  504  501  0.00000000000E+00  0.00000000000E+00  0.41036777701E+03  0.41036777701E+03  0.00000000000E+00 0. -1.
         21   -1    0    0  505  502 -0.00000000000E+00 -0.00000000000E+00 -0.10063866064E+04  0.10063866064E+04  0.00000000000E+00 0.  1.
         21    1    1    2  503  502 -0.10805046759E+02  0.58280110618E+02  0.23778474767E+02  0.63864984078E+02  0.00000000000E+00 0. -1.
         21    1    1    2  504  506 -0.54837901160E+02 -0.55869317508E+01  0.13120577970E+03  0.14231432056E+03  0.00000000000E+00 0. -1.
         21    1    1    2  505  501  0.39842640025E+02  0.30773656221E+02 -0.97181013395E+03  0.97311324640E+03  0.00000000000E+00 0.  1.
         21    1    1    2  506  503  0.25800307893E+02 -0.83466835088E+02  0.22080705011E+03  0.23746183235E+03  0.00000000000E+00 0. -1.
<scales pt_clust_3="14000.00000" pt_clust_4="48.31788" pt_clust_5="50.34336" pt_clust_6="76.31234"></scales>
<clustering>
<clus scale="   50.343">  2  5  1 -1</clus>
<clus scale="   48.318">  1  4  2 -1</clus>
<clus scale="   76.312">  1  6  2 -1</clus>
<clus scale="   48.318">  1  3  2 -1</clus>
</clustering>
</event>
<event>
 6    0  0.5563122E+002  0.7962431E+02  0.7546771E-02  0.1330121E+00
         21   -1    0    0  505  501  0.00000000000E+00  0.00000000000E+00  0.52374662587E+02  0.52374662587E+02  0.00000000000E+00 0.  1.
         21   -1    0    0  506  502 -0.00000000000E+00 -0.00000000000E+00 -0.36502263460E+03  0.36502263460E+03  0.00000000000E+00 0. -1.
         21    1    1    2  503  502 -0.66686633139E+02 -0.51676951315E+02 -0.97590404610E+02  0.12900194343E+03  0.00000000000E+00 0. -1.
         21    1    1    2  504  501  0.92538185536E+02 -0.16833091142E+02 -0.15558005533E+03  0.18180160164E+03  0.00000000000E+00 0. -1.
         21    1    1    2  505  503 -0.35488222142E+01  0.43691188538E+02 -0.69769136193E+01  0.44386838349E+02  0.00000000000E+00 0.  1.
         21    1    1    2  506  504 -0.22302730183E+02  0.24818853918E+02 -0.52500598453E+02  0.62206913774E+02  0.00000000000E+00 0.  1.
<scales pt_clust_3="79.62431" pt_clust_4="14000.00000" pt_clust_5="46.08161" pt_clust_6="33.36746"></scales>
<clustering>
<clus scale="   33.367">  2  6  1 -1</clus>
<clus scale="   46.082">  1  5  2 -1</clus>
<clus scale="   79.624">  1  3  2 -1</clus>
<clus scale="   46.082">  1  3  2 -1</clus>
</clustering>
</event>
<event>
 6    0  0.5563122E+002  0.1098749E+03  0.7546771E-02  0.1260802E+00
         21   -1    0    0  505  501  0.00000000000E+00  0.00000000000E+00  0.69434381139E+03  0.69434381139E+03  0.00000000000E+00 0. -1.
         21   -1    0    0  504  502 -0.00000000000E+00 -0.00000000000E+00 -0.21699708778E+04  0.21699708778E+04  0.00000000000E+00 0. -1.
         21    1    1    2  503  502  0.97857688495E+02 -0.36374005061E+02 -0.15334294701E+04  0.15369792241E+04  0.00000000000E+00 0. -1.
         21    1    1    2  504  506  0.75051231333E+02  0.26563593307E+02 -0.27545519585E+03  0.28672962305E+03  0.00000000000E+00 0.  1.
         21    1    1    2  505  503 -0.20577636051E+03  0.32796369357E+02 -0.32231622551E+03  0.38380628137E+03  0.00000000000E+00 0. -1.
         21    1    1    2  506  501  0.32867440683E+02 -0.22985957603E+02  0.65557382503E+03  0.65679956073E+03  0.00000000000E+00 0. -1.
<scales pt_clust_3="109.87486" pt_clust_4="83.19775" pt_clust_5="14000.00000" pt_clust_6="40.10764"></scales>
<clustering>
<clus scale="   40.108">  1  6  2 -1</clus>
<clus scale="   83.198">  1  4  2 -1</clus>
<clus scale="  109.875">  2  3  1 -1</clus>
<clus scale="   40.108">  1  3  2 -1</clus>
</clustering>
</event>
<event>
 6    0  0.5563122E+002  0.1275938E+03  0.7546771E-02  0.1231070E+00
         21   -1    0    0  502  501  0.00000000000E+00  0.00000000000E+00  0.17285482626E+04  0.17285482626E+04  0.00000000000E+00 0. -1.
         21   -1    0    0  503  502 -0.00000000000E+00 -0.00000000000E+00 -0.35575196201E+02  0.35575196201E+02  0.00000000000E+00 0. -1.
         21    1    1    2  503  506 -0.60560539052E+02  0.93525456234E+02  0.87168642140E+02  0.14146717650E+03  0.00000000000E+00 0. -1.
         21    1    1    2  504  505  0.36280338851E+02 -0.72752854351E+02  0.56303680015E+03  0.56887580290E+03  0.00000000000E+00 0. -1.
         21    1    1    2  505  501 -0.20945557070E+02  0.36491175957E+02  0.77814177944E+03  0.77927848116E+03  0.00000000000E+00 0. -1.
         21    1    1    2  506  504  0.45225757271E+02 -0.57263777840E+02  0.26462584465E+03  0.27450199823E+03  0.00000000000E+00 0. -1.
<scales pt_clust_3="116.47780" pt_clust_4="49.96070" pt_clust_5="42.07520" pt_clust_6="49.96070"></scales>
<clustering>
<clus scale="   42.075">  1  5  2 -1</clus>
<clus scale="   49.961">  4  6 -1 -1</clus>
<clus scale="  116.478">  2  3  1 -1</clus>
<clus scale="   42.075">  1  3  2 -1</clus>
</clustering>
</event>
<event>
 6    0  0.5563122E+002  0.8781250E+02  0.7546771E-02  0.1308237E+00
         21   -1    0    0  505  501  0.00000000000E+00  0.00000000000E+00  0.12027456693E+03  0.12027456693E+03  0.00000000000E+00 0. -1.
         21   -1    0    0  504  502 -0.00000000000E+00 -0.00000000000E+00 -0.24445271006E+03  0.24445271006E+03  0.00000000000E+00 0.  1.
         21    1    1    2  503  501  0.19079818636E+02 -0.41972282757E+02  0.31920692904E+02  0.56077113286E+02  0.00000000000E+00 0. -1.
         21    1    1    2  504  503 -0.81989381520E+02 -0.14725564455E+02 -0.25424169987E+01  0.83340055284E+02  0.00000000000E+00 0. -1.
         21    1    1    2  505  506  0.97895132017E+02  0.24661569083E+02 -0.52760318317E+02  0.11390917896E+03  0.00000000000E+00 0.  1.
         21    1    1    2  506  502 -0.34985569134E+02  0.32036278129E+02 -0.10079610072E+03  0.11140092946E+03  0.00000000000E+00 0.  1.
<scales pt_clust_3="46.10544" pt_clust_4="14000.00000" pt_clust_5="87.81250" pt_clust_6="44.50652"></scales>
<clustering>
<clus scale="   46.105">  1  3  2 -1</clus>
<clus scale="   44.507">  2  6  1 -1</clus>
<clus scale="   87.812">  2  5  1 -1</clus>
<clus scale="   46.105">  1  3  2 -1</clus>
</clustering>
</event>
<event>
 6    0  0.5563122E+002  0.1546776E+03  0.7546771E-02  0.1194840E+00
         21   -1    0    0  503  501  0.00000000000E+00  0.00000000000E+00  0.54828009900E+02  0.54828009900E+02  0.00000000000E+00 0. -1.
         21   -1    0    0  501  502 -0.00000000000E+00 -0.00000000000E+00 -0.24378454658E+04  0.24378454658E+04  0.00000000000E+00 0.  1.
         21    1    1    2  503  506  0.26696046219E+02  0.36936761688E+02  0.91284426273E+01  0.46479368676E+02  0.00000000000E+00 0. -1.
         21    1    1    2  504  502  0.17498956452E+02 -0.49518504018E+02 -0.12770762682E+04  0.12781557380E+04  0.00000000000E+00 0.  1.
         21    1    1    2  505  504 -0.39234824636E+02 -0.12515864809E+03 -0.91933845194E+03  0.92864807536E+03  0.00000000000E+00 0.  1.
         21    1    1    2  506  505 -0.49601780354E+01  0.13774039042E+03 -0.19573117838E+03  0.23939029369E+03  0.00000000000E+00 0. -1.
<scales pt_clust_3="45.57415" pt_clust_4="52.00696" pt_clust_5="154.67763" pt_clust_6="14000.00000"></scales>
<clustering>
<clus scale="   45.574">  1  3  2 -1</clus>
<clus scale="   52.007">  2  4  1 -1</clus>
<clus scale="  154.678">  2  5  1 -1</clus>
<clus scale="   45.574">  1  3  2 -1</clus>
</clustering>
</event>
<event>
 6    0  0.5563122E+002  0.8075651E+02  0.7546771E-02  0.1326918E+00
         21   -1    0    0  506  501  0.00000000000E+00  0.00000000000E+00  0.75025418536E+03  0.75025418536E+03  0.00000000000E+00 0.  1.
         21   -1    0    0  505  502 -0.00000000000E+00 -0.00000000000E+00 -0.60782978819E+02  0.60782978819E+02  0.00000000000E+00 0.  1.
         21    1    1    2  503  504 -0.15955714570E+02  0.11885852091E+03  0.45695687268E+03  0.47243149377E+03  0.00000000000E+00 0.  1.
         21    1    1    2  504  502  0.22768486261E+02 -0.74673541973E+02 -0.12915668393E+02  0.79128732629E+02  0.00000000000E+00 0.  1.
         21    1    1    2  505  501 -0.31498386686E+02  0.27021879347E+00  0.68701046067E+02  0.75578139119E+02  0.00000000000E+00 0. -1.
         21    1    1    2  506  503  0.24685614995E+02 -0.44455197728E+02  0.17672895619E+03  0.18389879866E+03  0.00000000000E+00 0.  1.
<scales pt_clust_3="80.75651" pt_clust_4="14000.00000" pt_clust_5="31.49955" pt_clust_6="47.28529"></scales>
<clustering>
<clus scale="   31.500">  1  5  2 -1</clus>
<clus scale="   47.285">  1  6  2 -1</clus>
<clus scale="   80.757">  1  3  2 -1</clus>
<clus scale="   31.500">  1  3  2 -1</clus>
</clustering>
</event>
<event>
 6    0  0.5563122E+002  0.5824365E+02  0.7546771E-02  0.1405354E+00
         21   -1    0    0  506  501  0.00000000000E+00  0.00000000000E+00  0.34162880817E+03  0.34162880817E+03  0.00000000000E+00 0.  1.
         21   -1    0    0  503  502 -0.00000000000E+00 -0.00000000000E+00 -0.17464561263E+03  0.17464561263E+03  0.00000000000E+00 0.  1.
         21    1    1    2  503  504 -0.77474304277E+01  0.54870844866E+02  0.18562706489E+01  0.55446172414E+02  0.00000000000E+00 0. -1.
         21    1    1    2  504  501 -0.52855843177E+02  0.75324921386E+02  0.24451067027E+03  0.26125285035E+03  0.00000000000E+00 0.  1.
         21    1    1    2  505  502  0.23622036474E+02 -0.97110889701E+02 -0.10395407451E+03  0.14420462931E+03  0.00000000000E+00 0.  1.
         21    1    1    2  506  505  0.36981237130E+02 -0.33084876551E+02  0.24570329131E+02  0.55370768730E+02  0.00000000000E+00 0.  1.
<scales pt_clust_3="51.90154" pt_clust_4="58.24365" pt_clust_5="14000.00000" pt_clust_6="49.62077"></scales>
<clustering>
<clus scale="   49.621">  1  6  2 -1</clus>
<clus scale="   51.902">  2  3  1 -1</clus>
<clus scale="   58.244">  1  4  2 -1</clus>
<clus scale="   49.621">  1  3  2 -1</clus>
</clustering>
</event>
<event>
 6    0  0.5563122E+002  0.8796847E+02  0.7546771E-02  0.1307847E+00
         21   -1    0    0  505  501  0.00000000000E+00  0.00000000000E+00  0.23290258216E+04  0.23290258216E+04  0.00000000000E+00 0.  1.
         21   -1    0    0  504  502 -0.00000000000E+00 -0.00000000000E+00 -0.14032318020E+02  0.14032318020E+02  0.00000000000E+00 0.  1.
         21    1    1    2  503  501  0.14093235562E+02  0.41529385581E+02  0.14126960142E+04  0.14133765732E+04  0.00000000000E+00 0.  1.
         21    1    1    2  504  503 -0.25428990952E+02 -0.37569283877E+02  0.15548603900E+03  0.16196911124E+03  0.00000000000E+00 0.  1.
         21    1    1    2  505  506  0.77312926609E+02 -0.54118688903E+02  0.43059518588E+03  0.44081553422E+03  0.00000000000E+00 0.  1.
         21    1    1    2  506  502 -0.65977171220E+02  0.50158587200E+02  0.31621626450E+03  0.32689692095E+03  0.00000000000E+00 0.  1.
<scales pt_clust_3="43.85555" pt_clust_4="38.09074" pt_clust_5="87.96847" pt_clust_6="14000.00000"></scales>
<clustering>
<clus scale="   43.856">  1  3  2 -1</clus>
<clus scale="   38.091">  2  4  1 -1</clus>
<clus scale="   87.968">  1  5  2 -1</clus>
<clus scale="   43.856">  1  3  2 -1</clus>
</clustering>
</event>
<event>
 6    0  0.5563122E+002  0.1839933E+03  0.7546771E-02  0.1163993E+00
         21   -1    0    0  504  501  0.00000000000E+00  0.00000000000E+00  0.49010773210E+03  0.49010773210E+03  0.00000000000E+00 0. -1.
         21   -1    0    0  506  502 -0.00000000000E+00 -0.00000000000E+00 -0.10518154458E+04  0.10518154458E+04  0.00000000000E+00 0. -1.
         21    1    1    2  503  502 -0.36161017817E+02  0.89803227131E+01 -0.12994567405E+02  0.39460412918E+02  0.00000000000E+00 0.  1.
         21    1    1    2  504  503 -0.13260815891E+03  0.46666662438E+01  0.81865388448E+02  0.15591229396E+03  0.00000000000E+00 0. -1.
         21    1    1    2  505  501  0.16363807909E+03 -0.53429042933E+02  0.33685271168E+03  0.37828802905E+03  0.00000000000E+00 0. -1.
         21    1    1    2  506  505  0.51310976403E+01  0.39782053976E+02 -0.96743124638E+03  0.96826244193E+03  0.00000000000E+00 0. -1.
<scales pt_clust_3="36.55209" pt_clust_4="36.55209" pt_clust_5="170.57403" pt_clust_6="40.11159"></scales>
<clustering>
<clus scale="   36.552">  3  4 -1 -1</clus>
<clus scale="   40.112">  2  6  1 -1</clus>
<clus scale="  170.574">  1  5  2 -1</clus>
<clus scale="  170.574">  1  3  2 -1</clus>
</clustering>
</event>
<event>
 6    0  0.5563122E+002  0.2742913E+03  0.7546771E-02  0.1098848E+00
         21   -1    0    0  504  501  0.00000000000E+00  0.00000000000E+00  0.22294241040E+03  0.22294241040E+03  0.00000000000E+00 0. -1.
         21   -1    0    0  506  502 -0.00000000000E+00 -0.00000000000E+00 -0.10210534785E+04  0.10210534785E+04  0.00000000000E+00 0. -1.
         21    1    1    2  503  502  0.19522446966E+03 -0.99240267957E+02 -0.19657902714E+03  0.29428649009E+03  0.00000000000E+00 0. -1.
         21    1    1    2  504  503  0.23104307180E+02  0.21718787531E+02 -0.17121100478E+01  0.31756039786E+02  0.00000000000E+00 0.  1.
         21    1    1    2  505  501  0.63935433948E+02 -0.53294848800E+02  0.11291578592E+03  0.14027849205E+03  0.00000000000E+00 0. -1.
         21    1    1    2  506  505 -0.28226421079E+03  0.13081632923E+03 -0.71273571683E+03  0.77767486698E+03  0.00000000000E+00 0. -1.
<scales pt_clust_3="14000.00000" pt_clust_4="31.70985" pt_clust_5="87.69348" pt_clust_6="274.29129"></scales>
<clustering>
<clus scale="   31.710">  1  4  2 -1</clus>
<clus scale="   87.693">  1  5  2 -1</clus>
<clus scale="  274.291">  2  6  1 -1</clus>
<clus scale="   31.710">  1  3  2 -1</clus>
</clustering>
</event>
<event>
 6    0  0.5563122E+002  0.1432280E+03  0.7546771E-02  0.1209050E+00
         21   -1    0    0  505  501  0.00000000000E+00  0.00000000000E+00  0.11440710129E+03  0.11440710129E+03  0.00000000000E+00 0.  1.
         21   -1    0    0  503  502 -0.00000000000E+00 -0.00000000000E+00 -0.16841995391E+04  0.16841995391E+04  0.00000000000E+00 0.  1.
         21    1    1    2  503  506 -0.61891048348E+02 -0.52555639581E+01 -0.63932088725E+03  0.64233116045E+03  0.00000000000E+00 0.  1.
         21    1    1    2  504  501  0.94379655049E+02 -0.87096700237E+02  0.69143293834E+02  0.14585660616E+03  0.00000000000E+00 0.  1.
         21    1    1    2  505  502  0.41018011652E+02  0.37507071258E+02 -0.39255421370E+03  0.39646950497E+03  0.00000000000E+00 0. -1.
         21    1    1    2  506  504 -0.73506618353E+02  0.54845192938E+02 -0.60706063072E+03  0.61394936885E+03  0.00000000000E+00 0.  1.
<scales pt_clust_3="51.93282" pt_clust_4="128.57700" pt_clust_5="55.58109" pt_clust_6="51.93282"></scales>
<clustering>
<clus scale="   51.933">  3  6 -1 -1</clus>
<clus scale="   55.581">  2  5  1 -1</clus>
<clus scale="  128.577">  1  4  2 -1</clus>
<clus scale="  128.577">  1  3  2 -1</clus>
</clustering>
</event>
<event>
 6    0  0.5563122E+002  0.3862278E+03  0.7546771E-02  0.1048656E+00
         21   -1    0    0  503  501  0.00000000000E+00  0.00000000000E+00  0.20736226819E+03  0.20736226819E+03  0.00000000000E+00 0. -1.
         21   -1    0    0  504  502 -0.00000000000E+00 -0.00000000000E+00 -0.12690573684E+04  0.12690573684E+04  0.00000000000E+00 0. -1.
         21    1    1    2  503  505  0.89208266527E+02  0.79743339814E+01 -0.17878461389E+03  0.19996410424E+03  0.00000000000E+00 0.  1.
         21    1    1    2  504  506 -0.33137952949E+03  0.12530092791E+03 -0.22784191430E+03  0.42121805874E+03  0.00000000000E+00 0. -1.
         21    1    1    2  505  502  0.28459082697E+03 -0.11337583186E+03 -0.71576118429E+03  0.77856283688E+03  0.00000000000E+00 0. -1.
         21    1    1    2  506  501 -0.42419564014E+02 -0.19899430033E+02  0.60692612290E+02  0.76674636702E+02  0.00000000000E+00 0. -1.
<scales pt_clust_3="43.48432" pt_clust_4="377.76229" pt_clust_5="43.48432" pt_clust_6="46.85517"></scales>
<clustering>
<clus scale="   43.484">  3  5 -1 -1</clus>
<clus scale="   46.855">  1  6  2 -1</clus>
<clus scale="  377.762">  1  4  2 -1</clus>
<clus scale="   46.855">  1  3  2 -1</clus>
</clustering>
</event>
<event>
 6    0  0.5563122E+002  0.1011656E+03  0.7546771E-02  0.1277864E+00
         21   -1    0    0  503  501  0.00000000000E+00  0.00000000000E+00  0.53520573373E+02  0.53520573373E+02  0.00000000000E+00 0. -1.
         21   -1    0    0  504  502 -0.00000000000E+00 -0.00000000000E+00 -0.11433036610E+04  0.11433036610E+04  0.00000000000E+00 0. -1.
         21    1    1    2  503  505  0.14062086745E+02  0.26678867980E+02 -0.47960601484E+02  0.56654422378E+02  0.00000000000E+00 0.  1.
         21    1    1    2  504  506  0.69887020975E+02 -0.42420286479E+02 -0.83929952283E+02  0.11716617812E+03  0.00000000000E+00 0. -1.
         21    1    1    2  505  502 -0.71730979746E+02  0.76663896426E+02 -0.95504963653E+03  0.96080304678E+03  0.00000000000E+00 0. -1.
         21    1    1    2  506  501 -0.12218127974E+02 -0.60922477928E+02 -0.28428973234E+01  0.62200587081E+02  0.00000000000E+00 0. -1.
<scales pt_clust_3="30.15799" pt_clust_4="101.16561" pt_clust_5="14000.00000" pt_clust_6="44.97542"></scales>
<clustering>
<clus scale="   30.158">  1  3  2 -1</clus>
<clus scale="   44.975">  1  6  2 -1</clus>
<clus scale="  101.166">  1  4  2 -1</clus>
<clus scale="   30.158">  1  3  2 -1</clus>
</clustering>
</event>
<event>
 6    0  0.5563122E+002  0.2371342E+03  0.7546771E-02  0.1121717E+00
         21   -1    0    0  504  501  0.00000000000E+00  0.00000000000E+00  0.22451336884E+04  0.22451336884E+04  0.00000000000E+00 0. -1.
         21   -1    0    0  506  502 -0.00000000000E+00 -0.00000000000E+00 -0.66609722283E+02  0.66609722283E+02  0.00000000000E+00 0. -1.
         21    1    1    2  503  502 -0.24729912302E+03  0.79157476734E+02  0.51144053408E+03  0.57358014459E+03  0.00000000000E+00 0. -1.
         21    1    1    2  504  503  0.22877759666E+03  0.13153241121E+02  0.13558654445E+04  0.13750939241E+04  0.00000000000E+00 0. -1.
         21    1    1    2  505  501  0.66283526014E-01 -0.58966629604E+02  0.31880361463E+03  0.32421106166E+03  0.00000000000E+00 0. -1.
         21    1    1    2  506  505  0.18455242830E+02 -0.33344088250E+02 -0.75856271334E+01  0.38858280303E+02  0.00000000000E+00 0. -1.
<scales pt_clust_3="237.13422" pt_clust_4="14000.00000" pt_clust_5="61.05659" pt_clust_6="38.11068"></scales>
<clustering>
<clus scale="   38.111">  2  6  1 -1</clus>
<clus scale="   61.057">  1  5  2 -1</clus>
<clus scale="  237.134">  2  3  1 -1</clus>
<clus scale="   61.057">  1  3  2 -1</clus>
</clustering>
</event>
<event>
 6    0  0.5563122E+002  0.8903379E+02  0.7546771E-02  0.1305209E+00
         21   -1    0    0  503  501  0.00000000000E+00  0.00000000000E+00  0.23699503575E+03  0.23699503575E+03  0.00000000000E+00 0. -1.
         21   -1    0    0  505  502 -0.00000000000E+00 -0.00000000000E+00 -0.41391942810E+03  0.41391942810E+03  0.00000000000E+00 0.  1.
         21    1    1    2  503  502 -0.56899388028E+02 -0.40810972930E+02 -0.10695153191E+03  0.12783468249E+03  0.00000000000E+00 0.  1.
         21    1    1    2  504  501 -0.39460456065E+02 -0.42521080031E+02  0.19691337988E+03  0.20528041557E+03  0.00000000000E+00 0. -1.
         21    1    1    2  505  506  0.36554158019E+02 -0.27395587667E+02 -0.86985695563E+02  0.98250882565E+02  0.00000000000E+00 0.  1.
         21    1    1    2  506  504  0.59805686074E+02  0.11072764063E+03 -0.17990054476E+03  0.21954848323E+03  0.00000000000E+00 0.  1.
<scales pt_clust_3="14000.00000" pt_clust_4="57.95081" pt_clust_5="45.68068" pt_clust_6="89.03379"></scales>
<clustering>
<clus scale="   45.681">  2  5  1 -1</clus>
<clus scale="   57.951">  1  4  2 -1</clus>
<clus scale="   89.034">  1  6  2 -1</clus>
<clus scale="   57.951">  1  3  2 -1</clus>
</clustering>
</event>
<event>
 6    0  0.5563122E+002  0.9966165E+02  0.7546771E-02  0.1281009E+00
         21   -1    0    0  505  501  0.00000000000E+00  0.00000000000E+00  0.58586070020E+03  0.58586070020E+03  0.00000000000E+00 0. -1.
         21   -1    0    0  504  502 -0.00000000000E+00 -0.00000000000E+00 -0.31908839865E+02  0.31908839865E+02  0.00000000000E+00 0.  1.
         21    1    1    2  503  506 -0.98088770626E+01  0.39365388314E+02  0.52277842363E+02  0.66172658012E+02  0.00000000000E+00 0.  1.
         21    1    1    2  504  503  0.28957379924E+02  0.42715795556E+02  0.50434297599E+02  0.72158072427E+02  0.00000000000E+00 0.  1.
         21    1    1    2  505  502  0.37436001824E+02  0.21334855168E+02  0.98194837180E+02  0.10723272041E+03  0.00000000000E+00 0.  1.
         21    1    1    2  506  501 -0.56584504685E+02 -0.10341603904E+03  0.35304488319E+03  0.37220608922E+03  0.00000000000E+00 0. -1.
<scales pt_clust_3="34.12843" pt_clust_4="34.12843" pt_clust_5="43.08863" pt_clust_6="91.92836"></scales>
<clustering>
<clus scale="   34.128">  3  4 -1 -1</clus>
<clus scale="   43.089">  1  5  2 -1</clus>
<clus scale="   91.928">  1  6  2 -1</clus>
<clus scale="   43.089">  1  3  2 -1</clus>
</clustering>
</event>
<event>
 6    0  0.5563122E+002  0.1784902E+03  0.7546771E-02  0.1169272E+00
         21   -1    0    0  504  501  0.00000000000E+00  0.00000000000E+00  0.83225387550E+03  0.83225387550E+03  0.00000000000E+00 0. -1.
         21   -1    0    0  506  502 -0.00000000000E+00 -0.00000000000E+00 -0.85848918635E+03  0.85848918635E+03  0.00000000000E+00 0.  1.
         21    1    1    2  503  502  0.53443111046E+02 -0.20293873752E+03 -0.40425532681E+03  0.45548069834E+03  0.00000000000E+00 0.  1.
         21    1    1    2  504  503 -0.40541790087E+02  0.13834375334E+03  0.45601884010E+02  0.15120238972E+03  0.00000000000E+00 0. -1.
         21    1    1    2  505  501  0.81723030030E+02  0.48528834947E+02  0.69884144068E+03  0.70527516663E+03  0.00000000000E+00 0. -1.
         21    1    1    2  506  505 -0.94624350989E+02  0.16066149237E+02 -0.36642330874E+03  0.37878480716E+03  0.00000000000E+00 0.  1.
<scales pt_clust_3="14000.00000" pt_clust_4="178.49015" pt_clust_5="95.04579" pt_clust_6="92.58543"></scales>
<clustering>
<clus scale="   95.046">  1  5  2 -1</clus>
<clus scale="   92.585">  2  6  1 -1</clus>
<clus scale="  178.490">  1  4  2 -1</clus>
<clus scale="   95.046">  1  3  2 -1</clus>
</clustering>
</event>
<event>
 6    0  0.5563122E+002  0.1586458E+03  0.7546771E-02  0.1190234E+00
         21   -1    0    0  504  501  0.00000000000E+00  0.00000000000E+00  0.13097593152E+03  0.13097593152E+03  0.00000000000E+00 0.  1.
         21   -1    0    0  506  502 -0.00000000000E+00 -0.00000000000E+00 -0.12851510022E+04  0.12851510022E+04  0.00000000000E+00 0. -1.
         21    1    1    2  503  502 -0.19475582865E+02  0.16031593177E+03 -0.11735001185E+04  0.11845602663E+04  0.00000000000E+00 0. -1.
         21    1    1    2  504  503  0.72786287524E+02 -0.10475008095E+03  0.41437754884E+02  0.13411752547E+03  0.00000000000E+00 0.  1.
         21    1    1    2  505  501 -0.32815124013E+02 -0.48403259396E+01  0.91868904556E+01  0.34418891258E+02  0.00000000000E+00 0.  1.
         21    1    1    2  506  505 -0.20495580646E+02 -0.50725524885E+02 -0.31299597531E+02  0.63030250725E+02  0.00000000000E+00 0.  1.
<scales pt_clust_3="158.64577" pt_clust_4="14000.00000" pt_clust_5="33.17018" pt_clust_6="57.29942"></scales>
<clustering>
<clus scale="   33.170">  1  5  2 -1</clus>
<clus scale="   57.299">  1  6  2 -1</clus>
<clus scale="  158.646">  2  3  1 -1</clus>
<clus scale="   33.170">  1  3  2 -1</clus>
</clustering>
</event>
<event>
 6    0  0.5563122E+002  0.1260587E+03  0.7546771E-02  0.1233424E+00
         21   -1    0    0  504  501  0.00000000000E+00  0.00000000000E+00  0.11496363276E+04  0.11496363276E+04  0.00000000000E+00 0. -1.
         21   -1    0    0  503  502 -0.00000000000E+00 -0.00000000000E+00 -0.11493214122E+03  0.11493214122E+03  0.00000000000E+00 0. -1.
         21    1    1    2  503  506  0.30829188201E+02 -0.71820312136E+02 -0.71140385673E+02  0.10568609442E+03  0.00000000000E+00 0. -1.
         21    1    1    2  504  505 -0.34332785479E+02  0.32117080383E+02  0.10129844151E+03  0.11167641319E+03  0.00000000000E+00 0. -1.
         21    1    1    2  505  502 -0.10906849831E+03  0.23242832739E+02  0.15998413293E+03  0.19501561319E+03  0.00000000000E+00 0. -1.
         21    1    1    2  506  501  0.11257209559E+03  0.16460399013E+02  0.84456199766E+03  0.85219034806E+03  0.00000000000E+00 0. -1.
<scales pt_clust_3="78.15751" pt_clust_4="30.19559" pt_clust_5="30.19559" pt_clust_6="117.16671"></scales>
<clustering>
<clus scale="   30.196">  4  5 -1 -1</clus>
<clus scale="   78.158">  2  3  1 -1</clus>
<clus scale="  117.167">  1  6  2 -1</clus>
<clus scale="  117.167">  1  3  2 -1</clus>
</clustering>
</event>
<event>
 6    0  0.5563122E+002  0.8137371E+02  0.7546771E-02  0.1325198E+00
         21   -1    0    0  506  501  0.00000000000E+00  0.00000000000E+00  0.90991161057E+03  0.90991161057E+03  0.00000000000E+00 0.  1.
         21   -1    0    0  503  502 -0.00000000000E+00 -0.00000000000E+00 -0.13711252454E+03  0.13711252454E+03  0.00000000000E+00 0.  1.
         21    1    1    2  503  505  0.63379738314E+02 -0.16921824413E+02 -0.11431548847E+03  0.13180049422E+03  0.00000000000E+00 0.  1.
         21    1    1    2  504  501  0.32550964532E+02 -0.66215654638E+02  0.41062595030E+03  0.41720228819E+03  0.00000000000E+00 0. -1.
         21    1    1    2  505  504 -0.56236723412E+02  0.83161286054E+02  0.39234282092E+03  0.40498303382E+03  0.00000000000E+00 0.  1.
         21    1    1    2  506  502 -0.39693979434E+02 -0.23807003214E-01  0.84145803286E+02  0.93038318884E+02  0.00000000000E+00 0. -1.
<scales pt_clust_3="65.19178" pt_clust_4="81.37371" pt_clust_5="14000.00000" pt_clust_6="39.69399"></scales>
<clustering>
<clus scale="   39.694">  1  6  2 -1</clus>
<clus scale="   65.192">  2  3  1 -1</clus>
<clus scale="   81.374">  1  4  2 -1</clus>
<clus scale="   39.694">  1  3  2 -1</clus>
</clustering>
</event>
<event>
 6    0  0.5563122E+002  0.1081402E+03  0.7546771E-02  0.1264053E+00
         21   -1    0    0  504  501  0.00000000000E+00  0.00000000000E+00  0.15074511089E+04  0.15074511089E+04  0.00000000000E+00 0.  1.
         21   -1    0    0  505  502 -0.00000000000E+00 -0.00000000000E+00 -0.59176921851E+02  0.59176921851E+02  0.00000000000E+00 0.  1.
         21    1    1    2  503  506 -0.12797645043E+02 -0.73260467034E+02  0.12210965851E+04  0.12233592056E+04  0.00000000000E+00 0.  1.
         21    1    1    2  504  502  0.81203538607E+02  0.75680529562E+02  0.49635026755E+02  0.12159437947E+03  0.00000000000E+00 0.  1.
         21    1    1    2  505  503 -0.57877679317E+02  0.37288717204E+02  0.43410763413E+02  0.81392681329E+02  0.00000000000E+00 0.  1.
         21    1    1    2  506  501 -0.10528214247E+02 -0.39708779732E+02  0.13413181182E+03  0.14028176440E+03  0.00000000000E+00 0. -1.
<scales pt_clust_3="14000.00000" pt_clust_4="108.14020" pt_clust_5="68.29650" pt_clust_6="41.08078"></scales>
<clustering>
<clus scale="   41.081">  1  6  2 -1</clus>
<clus scale="   68.296">  2  5  1 -1</clus>
<clus scale="  108.140">  2  4  1 -1</clus>
<clus scale="   41.081">  1  3  2 -1</clus>
</clustering>
</event>
<event>
 6    0  0.5563122E+002  0.1811371E+03  0.7546771E-02  0.1166707E+00
         21   -1    0    0  504  501  0.00000000000E+00  0.00000000000E+00  0.66421987929E+02  0.66421987929E+02  0.00000000000E+00 0. -1.
         21   -1    0    0  506  502 -0.00000000000E+00 -0.00000000000E+00 -0.86540891906E+03  0.86540891906E+03  0.00000000000E+00 0.  1.
         21    1    1    2  503  502  0.30349426222E+02  0.10370141009E+03 -0.17205481810E+03  0.20316970876E+03  0.00000000000E+00 0.  1.
         21    1    1    2  504  503 -0.92629363754E+01  0.92964373768E+02 -0.20510755559E+03  0.22538253291E+03  0.00000000000E+00 0.  1.
         21    1    1    2  505  501  0.46037523241E+01 -0.36978045895E+02  0.12905946809E+02  0.39435185769E+02  0.00000000000E+00 0. -1.
         21    1    1    2  506  505 -0.25690242171E+02 -0.15968773796E+03 -0.43473050424E+03  0.46384347954E+03  0.00000000000E+00 0.  1.
<scales pt_clust_3="44.94421" pt_clust_4="44.94421" pt_clust_5="37.26353" pt_clust_6="174.72016"></scales>
<clustering>
<clus scale="   37.264">  1  5  2 -1</clus>
<clus scale="   44.944">  3  4 -1 -1</clus>
<clus scale="  174.720">  2  6  1 -1</clus>
<clus scale="   37.264">  1  3  2 -1</clus>
</clustering>
</event>
<event>
 6    0  0.5563122E+002  0.1055595E+03  0.7546771E-02  0.1269021E+00
         21   -1    0    0  503  501  0.00000000000E+00  0.00000000000E+00  0.10062179973E+03  0.10062179973E+03  0.00000000000E+00 0.  1.
         21   -1    0    0  504  502 -0.00000000000E+00 -0.00000000000E+00 -0.89305500859E+03  0.89305500859E+03  0.00000000000E+00 0. -1.
         21    1    1    2  503  506 -0.36520379728E+02  0.53676167578E+01 -0.29630274381E+02  0.47333947702E+02  0.00000000000E+00 0. -1.
         21    1    1    2  504  505  0.35143327502E+02  0.38683744335E+02 -0.16646586636E+03  0.17447742034E+03  0.00000000000E+00 0. -1.
         21    1    1    2  505  501 -0.58114785699E+02  0.49769711202E+02  0.65529892185E+02  0.10073985924E+03  0.00000000000E+00 0.  1.
         21    1    1    2  506  502  0.59491837925E+02 -0.93821072295E+02 -0.66186696030E+03  0.67112558104E+03  0.00000000000E+00 0. -1.
<scales pt_clust_3="36.91273" pt_clust_4="51.38252" pt_clust_5="105.55948" pt_clust_6="14000.00000"></scales>
<clustering>
<clus scale="   36.913">  1  3  2 -1</clus>
<clus scale="   51.383">  2  4  1 -1</clus>
<clus scale="  105.559">  1  5  2 -1</clus>
<clus scale="   36.913">  1  3  2 -1</clus>
</clustering>
</event>
<event>
 6    0  0.5563122E+002  0.1204358E+03  0.7546771E-02  0.1242380E+00
         21   -1    0    0  503  501  0.00000000000E+00  0.00000000000E+00  0.93536221580E+03  0.93536221580E+03  0.00000000000E+00 0.  1.
         21   -1    0    0  505  502 -0.00000000000E+00 -0.00000000000E+00 -0.84700598150E+02  0.84700598150E+02  0.00000000000E+00 0.  1.
         21    1    1    2  503  504  0.48898077035E+02  0.50344810189E+02  0.53918913449E+03  0.54373756960E+03  0.00000000000E+00 0.  1.
         21    1    1    2  504  506 -0.50397715948E+02 -0.13881697172E+03  0.16659873388E+03  0.22263247638E+03  0.00000000000E+00 0.  1.
         21    1    1    2  505  501  0.68868588067E+02 -0.27041602996E+02  0.42908010411E+02  0.85529106580E+02  0.00000000000E+00 0.  1.
         21    1    1    2  506  502 -0.67368949154E+02  0.11551376453E+03  0.10196573887E+03  0.16816366138E+03  0.00000000000E+00 0.  1.
<scales pt_clust_3="70.18277" pt_clust_4="14000.00000" pt_clust_5="79.11502" pt_clust_6="120.43577"></scales>
<clustering>
<clus scale="   70.183">  1  3  2 -1</clus>
<clus scale="   79.115">  2  5  1 -1</clus>
<clus scale="  120.436">  2  6  1 -1</clus>
<clus scale="   70.183">  1  3  2 -1</clus>
</clustering>
</event>
<event>
 6    0  0.5563122E+002  0.9463639E+02  0.7546771E-02  0.1291997E+00
         21   -1    0    0  504  501  0.00000000000E+00  0.00000000000E+00  0.23308170918E+03  0.23308170918E+03  0.00000000000E+00 0. -1.
         21   -1    0    0  506  502 -0.00000000000E+00 -0.00000000000E+00 -0.24655337183E+03  0.24655337183E+03  0.00000000000E+00 0.  1.
         21    1    1    2  503  502  0.86678770241E+02  0.48152336190E+02 -0.20526926921E+03  0.22796343912E+03  0.00000000000E+00 0.  1.
         21    1    1    2  504  503 -0.67362227217E+01 -0.56202646944E+02  0.68266947520E+02  0.88681961772E+02  0.00000000000E+00 0. -1.
         21    1    1    2  505  501 -0.20748769667E+02  0.34167998863E+02  0.61554904874E+02  0.73395980156E+02  0.00000000000E+00 0. -1.
         21    1    1    2  506  505 -0.59193777852E+02 -0.26117688108E+02  0.61975754173E+02  0.89593699967E+02  0.00000000000E+00 0. -1.
<scales pt_clust_3="94.63639" pt_clust_4="43.30643" pt_clust_5="39.97454" pt_clust_6="14000.00000"></scales>
<clustering>
<clus scale="   39.975">  1  5  2 -1</clus>
<clus scale="   43.306">  1  4  2 -1</clus>
<clus scale="   94.636">  2  3  1 -1</clus>
<clus scale="   39.975">  1  3  2 -1</clus>
</clustering>
</event>
<event>
 6    0  0.5563122E+002  0.8282490E+02  0.7546771E-02  0.1321221E+00
         21   -1    0    0  504  501  0.00000000000E+00  0.00000000000E+00  0.25059991677E+03  0.25059991677E+03  0.00000000000E+00 0. -1.
         21   -1    0    0  505  502 -0.00000000000E+00 -0.00000000000E+00 -0.83912691779E+03  0.83912691779E+03  0.00000000000E+00 0. -1.
         21    1    1    2  503  506  0.99864001696E+02  0.80829545795E+01 -0.44904214876E+02  0.10979317603E+03  0.00000000000E+00 0. -1.
         21    1    1    2  504  502 -0.36326142307E+01 -0.42808692382E+02 -0.36112280519E+02  0.56123763540E+02  0.00000000000E+00 0. -1.
         21    1    1    2  505  503 -0.64214806296E+02 -0.49692433849E+01 -0.71105905602E+03  0.71397003850E+03  0.00000000000E+00 0. -1.
         21    1    1    2  506  501 -0.32016581169E+02  0.39694981187E+02  0.20354855040E+03  0.20983985649E+03  0.00000000000E+00 0. -1.
<scales pt_clust_3="14000.00000" pt_clust_4="42.96254" pt_clust_5="82.82490" pt_clust_6="50.87459"></scales>
<clustering>
<clus scale="   42.963">  2  4  1 -1</clus>
<clus scale="   50.875">  1  6  2 -1</clus>
<clus scale="   82.825">  2  5  1 -1</clus>
<clus scale="   50.875">  1  3  2 -1</clus>
</clustering>
</event>
<event>
 6    0  0.5563122E+002  0.1010427E+03  0.7546771E-02  0.1278119E+00
         21   -1    0    0  506  501  0.00000000000E+00  0.00000000000E+00  0.21246692282E+04  0.21246692282E+04  0.00000000000E+00 0.  1.
         21   -1    0    0  503  502 -0.00000000000E+00 -0.00000000000E+00 -0.25707637073E+02  0.25707637073E+02  0.00000000000E+00 0.  1.
         21    1    1    2  503  501  0.37181724666E+02 -0.44978402727E+01  0.51996157443E+03  0.52130868984E+03  0.00000000000E+00 0.  1.
         21    1    1    2  504  505  0.33780349718E+02  0.97405186689E+02  0.92794667987E+03  0.93365621248E+03  0.00000000000E+00 0.  1.
         21    1    1    2  505  502 -0.17268276587E+01 -0.10136782587E+03  0.10888837944E+03  0.14877868541E+03  0.00000000000E+00 0.  1.
         21    1    1    2  506  504 -0.69235246725E+02  0.84604794508E+01  0.54216495739E+03  0.54663327755E+03  0.00000000000E+00 0.  1.
<scales pt_clust_3="37.45279" pt_clust_4="101.04267" pt_clust_5="14000.00000" pt_clust_6="57.03903"></scales>
<clustering>
<clus scale="   37.453">  1  3  2 -1</clus>
<clus scale="   57.039">  1  6  2 -1</clus>
<clus scale="  101.043">  1  4  2 -1</clus>
<clus scale="   37.453">  1  3  2 -1</clus>
</clustering>
</event>
<event>
 6    0  0.5563122E+002  0.2314726E+03  0.7546771E-02  0.1125608E+00
         21   -1    0    0  504  501  0.00000000000E+00  0.00000000000E+00  0.62376067437E+02  0.62376067437E+02  0.00000000000E+00 0. -1.
         21   -1    0    0  506  502 -0.00000000000E+00 -0.00000000000E+00 -0.17072298147E+04  0.17072298147E+04  0.00000000000E+00 0. -1.
         21    1    1    2  503  502  0.10045967242E+03 -0.13584651839E+03 -0.57011294760E+03  0.59462189277E+03  0.00000000000E+00 0. -1.
         21    1    1    2  504  503  0.75634587588E+01 -0.82549012018E+02 -0.18879525828E+02  0.85017538126E+02  0.00000000000E+00 0. -1.
         21    1    1    2  505  501 -0.43925445112E+02  0.18081761033E+03 -0.60322447125E+03  0.63127190310E+03  0.00000000000E+00 0. -1.
         21    1    1    2  506  505 -0.64097686068E+02  0.37577920078E+02 -0.45263680262E+03  0.45869454817E+03  0.00000000000E+00 0. -1.
<scales pt_clust_3="199.40244" pt_clust_4="82.89478" pt_clust_5="74.28093" pt_clust_6="74.28093"></scales>
<clustering>
<clus scale="   74.281">  5  6 -1 -1</clus>
<clus scale="   82.895">  1  4  2 -1</clus>
<clus scale="  199.402">  2  3  1 -1</clus>
<clus scale="   82.895">  1  3  2 -1</clus>
</clustering>
</event>
<event>
 6    0  0.5563122E+002  0.7094473E+02  0.7546771E-02  0.1356910E+00
         21   -1    0    0  504  501  0.00000000000E+00  0.00000000000E+00  0.57743544260E+03  0.57743544260E+03  0.00000000000E+00 0. -1.
         21   -1    0    0  506  502 -0.00000000000E+00 -0.00000000000E+00 -0.22769781066E+03  0.22769781066E+03  0.00000000000E+00 0.  1.
         21    1    1    2  503  502  0.58811801811E+02  0.31502049327E+02 -0.70992521210E+02  0.97422508754E+02  0.00000000000E+00 0. -1.
         21    1    1    2  504  503  0.11826705097E+02  0.68464001107E+02 -0.79659023825E+02  0.10570123215E+03  0.00000000000E+00 0.  1.
         21    1    1    2  505  501 -0.23895778285E+02 -0.46043779490E+02  0.52421498035E+03  0.52677545831E+03  0.00000000000E+00 0. -1.
         21    1    1    2  506  505 -0.46742728623E+02 -0.53922270944E+02 -0.23825803373E+02  0.75234054053E+02  0.00000000000E+00 0. -1.
<scales pt_clust_3="56.32235" pt_clust_4="14000.00000" pt_clust_5="51.87521" pt_clust_6="70.94473"></scales>
<clustering>
<clus scale="   51.875">  1  5  2 -1</clus>
<clus scale="   56.322">  2  3  1 -1</clus>
<clus scale="   70.945">  2  6  1 -1</clus>
<clus scale="   51.875">  1  3  2 -1</clus>
</clustering>
</event>
<event>
 6    0  0.5563122E+002  0.1360611E+03  0.7546771E-02  0.1218729E+00
         21   -1    0    0  506  501  0.00000000000E+00  0.00000000000E+00  0.68146143737E+02  0.68146143737E+02  0.00000000000E+00 0. -1.
         21   -1    0    0  505  502 -0.00000000000E+00 -0.00000000000E+00 -0.85326485454E+03  0.85326485454E+03  0.00000000000E+00 0. -1.
         21    1    1    2  503  504 -0.11723356021E+03 -0.23843340512E+02 -0.33894618202E+03  0.35943946198E+03  0.00000000000E+00 0. -1.
         21    1    1    2  504  501  0.11177892357E+02  0.28839761766E+02  0.97021378903E+01  0.32416178305E+02  0.00000000000E+00 0. -1.
         21    1    1    2  505  503 -0.90464169980E+01 -0.74985940695E+02 -0.35044723818E+03  0.35849406649E+03  0.00000000000E+00 0. -1.
         21    1    1    2  506  502  0.11510208485E+03  0.69989519441E+02 -0.10542742850E+03  0.17106129150E+03  0.00000000000E+00 0. -1.
<scales pt_clust_3="14000.00000" pt_clust_4="30.93020" pt_clust_5="72.97167" pt_clust_6="136.06112"></scales>
<clustering>
<clus scale="   30.930">  1  4  2 -1</clus>
<clus scale="   72.972">  2  5  1 -1</clus>
<clus scale="  136.061">  1  6  2 -1</clus>
<clus scale="   30.930">  1  3  2 -1</clus>
</clustering>
</event>
<event>
 6    0  0.5563122E+002  0.3701322E+03  0.7546771E-02  0.1054642E+00
         21   -1    0    0  503  501  0.00000000000E+00  0.00000000000E+00  0.13567625243E+03  0.13567625243E+03  0.00000000000E+00 0.  1.
         21   -1    0    0  501  502 -0.00000000000E+00 -0.00000000000E+00 -0.12156061214E+04  0.12156061214E+04  0.00000000000E+00 0. -1.
         21    1    1    2  503  505 -0.16054253913E+03 -0.22364817626E+02 -0.14939148143E+03  0.22043572002E+03  0.00000000000E+00 0.  1.
         21    1    1    2  504  502  0.27547914209E+03  0.15880022018E+03 -0.86881911870E+03  0.92517724176E+03  0.00000000000E+00 0. -1.
         21    1    1    2  505  506  0.24804881176E+01 -0.50687194039E+02 -0.17969830254E+02  0.53835483283E+02  0.00000000000E+00 0.  1.
         21    1    1    2  506  504 -0.11741709107E+03 -0.85748208516E+02 -0.43749438542E+02  0.15183392873E+03  0.00000000000E+00 0.  1.
<scales pt_clust_3="150.13133" pt_clust_4="317.97212" pt_clust_5="48.23414" pt_clust_6="150.13133"></scales>
<clustering>
<clus scale="   48.234">  5  6 -1 -1</clus>
<clus scale="  150.131">  3  5 -1 -1</clus>
<clus scale="  317.972">  2  4  1 -1</clus>
<clus scale="  370.132">  1  3  2 -1</clus>
</clustering>
</event>
<event>
 6    0  0.5563122E+002  0.1336568E+03  0.7546771E-02  0.1222128E+00
         21   -1    0    0  503  501  0.00000000000E+00  0.00000000000E+00  0.47247177334E+03  0.47247177334E+03  0.00000000000E+00 0.  1.
         21   -1    0    0  504  502 -0.00000000000E+00 -0.00000000000E+00 -0.48020948270E+03  0.48020948270E+03  0.00000000000E+00 0.  1.
         21    1    1    2  503  502 -0.52750686000E+02  0.76481364206E+02  0.41274389443E+03  0.42307157353E+03  0.00000000000E+00 0.  1.
         21    1    1    2  504  506 -0.96753393677E+01  0.62462938616E+02 -0.87520012178E+02  0.10795824852E+03  0.00000000000E+00 0.  1.
         21    1    1    2  505  501  0.64158516830E+02 -0.18118226513E+03 -0.18134713160E+03  0.26425387531E+03  0.00000000000E+00 0.  1.
         21    1    1    2  506  505 -0.17324914618E+01  0.42237962311E+02 -0.15161446002E+03  0.15739755866E+03  0.00000000000E+00 0.  1.
<scales pt_clust_3="92.90874" pt_clust_4="37.79621" pt_clust_5="125.41189" pt_clust_6="37.79621"></scales>
<clustering>
<clus scale="   37.796">  4  6 -1 -1</clus>
<clus scale="   92.909">  1  3  2 -1</clus>
<clus scale="  125.412">  1  5  2 -1</clus>
<clus scale="   92.909">  1  3  2 -1</clus>
</clustering>
</event>
<event>
 6    0  0.5563122E+002  0.1204432E+03  0.7546771E-02  0.1242368E+00
         21   -1    0    0  505  501  0.00000000000E+00  0.00000000000E+00  0.99025822980E+03  0.99025822980E+03  0.00000000000E+00 0. -1.
         21   -1    0    0  506  502 -0.00000000000E+00 -0.00000000000E+00 -0.73720908689E+02  0.73720908689E+02  0.00000000000E+00 0. -1.
         21    1    1    2  503  501 -0.31865079265E+02  0.16156043864E+02  0.25341912483E+03  0.25592509423E+03  0.00000000000E+00 0. -1.
         21    1    1    2  504  502 -0.11149556704E+03 -0.34756573492E+02 -0.94014724297E+00  0.11679111588E+03  0.00000000000E+00 0. -1.
         21    1    1    2  505  504  0.14013024863E+03  0.54441974274E+02  0.45675372302E+03  0.48085796097E+03  0.00000000000E+00 0. -1.
         21    1    1    2  506  503  0.32303976817E+01 -0.35841444646E+02  0.20730462051E+03  0.21040496740E+03  0.00000000000E+00 0.  1.
<scales pt_clust_3="35.72676" pt_clust_4="14000.00000" pt_clust_5="120.44321" pt_clust_6="31.79099"></scales>
<clustering>
<clus scale="   35.727">  1  3  2 -1</clus>
<clus scale="   31.791">  1  6  2 -1</clus>
<clus scale="  120.443">  1  5  2 -1</clus>
<clus scale="   35.727">  1  3  2 -1</clus>
</clustering>
</event>
<event>
 6    0  0.5563122E+002  0.1709553E+03  0.7546771E-02  0.1176855E+00
         21   -1    0    0  504  501  0.00000000000E+00  0.00000000000E+00  0.41355986373E+03  0.41355986373E+03  0.00000000000E+00 0. -1.
         21   -1    0    0  505  502 -0.00000000000E+00 -0.00000000000E+00 -0.28650254136E+03  0.28650254136E+03  0.00000000000E+00 0.  1.
         21    1    1    2  503  502  0.12677050813E+03 -0.38154493078E+02  0.10937359904E+03  0.17172393904E+03  0.00000000000E+00 0.  1.
         21    1    1    2  504  503  0.32131423574E+02 -0.53739165083E+02  0.37756300429E+02  0.73115418804E+02  0.00000000000E+00 0.  1.
         21    1    1    2  505  506 -0.15528137514E+03 -0.35644974851E+02 -0.18664773117E+03  0.24539813620E+03  0.00000000000E+00 0.  1.
         21    1    1    2  506  501 -0.36205565706E+01  0.12753863301E+03  0.16657515407E+03  0.20982491105E+03  0.00000000000E+00 0. -1.
<scales pt_clust_3="46.66740" pt_clust_4="46.66740" pt_clust_5="156.91040" pt_clust_6="127.59001"></scales>
<clustering>
<clus scale="   46.667">  3  4 -1 -1</clus>
<clus scale="  127.590">  1  6  2 -1</clus>
<clus scale="  156.910">  2  5  1 -1</clus>
<clus scale="  127.590">  1  3  2 -1</clus>
</clustering>
</event>
<event>
 6    0  0.5563122E+002  0.2313241E+03  0.7546771E-02  0.1125711E+00
         21   -1    0    0  506  501  0.00000000000E+00  0.00000000000E+00  0.30994637966E+04  0.30994637966E+04  0.00000000000E+00 0. -1.
         21   -1    0    0  505  502 -0.00000000000E+00 -0.00000000000E+00 -0.36517740355E+03  0.36517740355E+03  0.00000000000E+00 0. -1.
         21    1    1    2  503  501 -0.81722616125E+02  0.55260953756E+02  0.25014890735E+03  0.26889930242E+03  0.00000000000E+00 0. -1.
         21    1    1    2  504  503 -0.11389546233E+03 -0.26879934949E+02  0.15873083946E+03  0.19720594980E+03  0.00000000000E+00 0. -1.
         21    1    1    2  505  504 -0.71192953953E+01 -0.80630625518E+02 -0.32751329098E+03  0.33736765984E+03  0.00000000000E+00 0. -1.
         21    1    1    2  506  502  0.20273737385E+03  0.52249606711E+02  0.26529199372E+04  0.26611682881E+04  0.00000000000E+00 0. -1.
<scales pt_clust_3="84.11562" pt_clust_4="84.11562" pt_clust_5="80.94432" pt_clust_6="206.18270"></scales>
<clustering>
<clus scale="   80.944">  2  5  1 -1</clus>
<clus scale="   84.116">  3  4 -1 -1</clus>
<clus scale="  206.183">  1  6  2 -1</clus>
<clus scale="  206.183">  1  3  2 -1</clus>
</clustering>
</event>
<event>
 6    0  0.5563122E+002  0.2168312E+03  0.7546771E-02  0.1136268E+00
         21   -1    0    0  506  501  0.00000000000E+00  0.00000000000E+00  0.35039232308E+03  0.35039232308E+03  0.00000000000E+00 0. -1.
         21   -1    0    0  501  502 -0.00000000000E+00 -0.00000000000E+00 -0.53024798935E+03  0.53024798935E+03  0.00000000000E+00 0. -1.
         21    1    1    2  503  502 -0.65448291129E+02  0.91941327599E+01 -0.42287475898E+02  0.78461720009E+02  0.00000000000E+00 0. -1.
         21    1    1    2  504  505 -0.11002418803E+02  0.88366194730E+02 -0.14087914659E+03  0.16666304790E+03  0.00000000000E+00 0. -1.
         21    1    1    2  505  503  0.70599410679E+01  0.10518691690E+03 -0.26904475029E+03  0.28896229497E+03  0.00000000000E+00 0. -1.
         21    1    1    2  506  504  0.69390768864E+02 -0.20274724439E+03  0.27235570651E+03  0.34655324956E+03  0.00000000000E+00 0. -1.
<scales pt_clust_3="66.09093" pt_clust_4="41.90054" pt_clust_5="41.90054" pt_clust_6="211.98408"></scales>
<clustering>
<clus scale="   41.901">  4  5 -1 -1</clus>
<clus scale="   66.091">  2  3  1 -1</clus>
<clus scale="  211.984">  1  6  2 -1</clus>
<clus scale="  211.984">  1  3  2 -1</clus>
</clustering>
</event>
<event>
 6    0  0.5563122E+002  0.9079211E+02  0.7546771E-02  0.1300945E+00
         21   -1    0    0  505  501  0.00000000000E+00  0.00000000000E+00  0.37992281293E+02  0.37992281293E+02  0.00000000000E+00 0.  1.
         21   -1    0    0  504  502 -0.00000000000E+00 -0.00000000000E+00 -0.11774046124E+04  0.11774046124E+04  0.00000000000E+00 0.  1.
         21    1    1    2  503  502 -0.58640025729E+02 -0.40012803797E+02 -0.63130565571E+02  0.95000765231E+02  0.00000000000E+00 0.  1.
         21    1    1    2  504  506  0.91019924672E+02  0.24130742466E+02 -0.96586560962E+03  0.97044489553E+03  0.00000000000E+00 0.  1.
         21    1    1    2  505  503 -0.55923790474E+02  0.35763671567E+02 -0.53613835403E+02  0.85328505739E+02  0.00000000000E+00 0. -1.
         21    1    1    2  506  501  0.23543891531E+02 -0.19881610236E+02 -0.56802320514E+02  0.64622727192E+02  0.00000000000E+00 0.  1.
<scales pt_clust_3="90.79211" pt_clust_4="14000.00000" pt_clust_5="52.20363" pt_clust_6="30.81547"></scales>
<clustering>
<clus scale="   30.815">  1  6  2 -1</clus>
<clus scale="   52.204">  1  5  2 -1</clus>
<clus scale="   90.792">  1  3  2 -1</clus>
<clus scale="   30.815">  1  3  2 -1</clus>
</clustering>
</event>
<event>
 6    0  0.5563122E+002  0.6669609E+02  0.7546771E-02  0.1371703E+00
         21   -1    0    0  506  501  0.00000000000E+00  0.00000000000E+00  0.93949215921E+03  0.93949215921E+03  0.00000000000E+00 0. -1.
         21   -1    0    0  504  502 -0.00000000000E+00 -0.00000000000E+00 -0.50829976996E+03  0.50829976996E+03  0.00000000000E+00 0.  1.
         21    1    1    2  503  502 -0.48523891260E+02 -0.33827985698E+02 -0.23975113735E+03  0.24694029339E+03  0.00000000000E+00 0.  1.
         21    1    1    2  504  505 -0.10061815759E+02  0.46907177308E+02 -0.27514512978E+02  0.55304356463E+02  0.00000000000E+00 0.  1.
         21    1    1    2  505  501 -0.22772748208E+02 -0.62642257389E+02  0.91057918886E+03  0.91301539399E+03  0.00000000000E+00 0. -1.
         21    1    1    2  506  503  0.81358455226E+02  0.49563065779E+02 -0.21212114928E+03  0.23253188534E+03  0.00000000000E+00 0.  1.
<scales pt_clust_3="54.58017" pt_clust_4="47.97420" pt_clust_5="14000.00000" pt_clust_6="66.69609"></scales>
<clustering>
<clus scale="   47.974">  2  4  1 -1</clus>
<clus scale="   54.580">  2  3  1 -1</clus>
<clus scale="   66.696">  2  6  1 -1</clus>
<clus scale="   66.696">  1  3  2 -1</clus>
</clustering>
</event>
<event>
 6    0  0.5563122E+002  0.9270436E+02  0.7546771E-02  0.1296432E+00
         21   -1    0    0  504  501  0.00000000000E+00  0.00000000000E+00  0.70102490065E+02  0.70102490065E+02  0.00000000000E+00 0.  1.
         21   -1    0    0  503  502 -0.00000000000E+00 -0.00000000000E+00 -0.36786134243E+03  0.36786134243E+03  0.00000000000E+00 0. -1.
         21    1    1    2  503  506 -0.42943100920E+02 -0.62029227674E+02 -0.17163821712E+03  0.18748709977E+03  0.00000000000E+00 0. -1.
         21    1    1    2  504  505 -0.81036129219E+01  0.34083181673E+02 -0.15700712601E+02  0.38390678446E+02  0.00000000000E+00 0.  1.
         21    1    1    2  505  502 -0.27163410934E+02  0.57490779132E+02 -0.11163422246E+03  0.12847272163E+03  0.00000000000E+00 0. -1.
         21    1    1    2  506  501  0.78210124776E+02 -0.29544733131E+02  0.12142998162E+01  0.83613332653E+02  0.00000000000E+00 0.  1.
<scales pt_clust_3="75.44359" pt_clust_4="33.19258" pt_clust_5="33.19258" pt_clust_6="81.20618"></scales>
<clustering>
<clus scale="   33.193">  4  5 -1 -1</clus>
<clus scale="   75.444">  2  3  1 -1</clus>
<clus scale="   81.206">  1  6  2 -1</clus>
<clus scale="   81.206">  1  3  2 -1</clus>
</clustering>
</event>
<event>
 6    0  0.5563122E+002  0.7322990E+02  0.7546771E-02  0.1349442E+00
         21   -1    0    0  503  501  0.00000000000E+00  0.00000000000E+00  0.76666793696E+03  0.76666793696E+03  0.00000000000E+00 0. -1.
         21   -1    0    0  505  502 -0.00000000000E+00 -0.00000000000E+00 -0.82676589205E+03  0.82676589205E+03  0.00000000000E+00 0.  1.
         21    1    1    2  503  502 -0.12898372295E+02 -0.58552854553E+02 -0.26637651207E+03  0.27304074965E+03  0.00000000000E+00 0.  1.
         21    1    1    2  504  506  0.79152356960E+02  0.35073426726E+02 -0.42169416462E+02  0.96299016398E+02  0.00000000000E+00 0.  1.
         21    1    1    2  505  504  0.57993064385E+01  0.34913423747E+02 -0.48536993055E+03  0.48665855443E+03  0.00000000000E+00 0.  1.
         21    1    1    2  506  501 -0.72053291103E+02 -0.11433995920E+02  0.73381790400E+03  0.73743550854E+03  0.00000000000E+00 0. -1.
<scales pt_clust_3="32.01530" pt_clust_4="14000.00000" pt_clust_5="35.39179" pt_clust_6="73.22990"></scales>
<clustering>
<clus scale="   35.392">  2  5  1 -1</clus>
<clus scale="   32.015">  2  3  1 -1</clus>
<clus scale="   73.230">  1  6  2 -1</clus>
<clus scale="   73.230">  1  3  2 -1</clus>
</clustering>
</event>
<event>
 6    0  0.5563122E+002  0.1578987E+03  0.7546771E-02  0.1191090E+00
         21   -1    0    0  505  501  0.00000000000E+00  0.00000000000E+00  0.10830762900E+03  0.10830762900E+03  0.00000000000E+00 0. -1.
         21   -1    0    0  506  502 -0.00000000000E+00 -0.00000000000E+00 -0.42999816419E+03  0.42999816419E+03  0.00000000000E+00 0. -1.
         21    1    1    2  503  504 -0.11714796780E+01  0.75450057141E+02 -0.26695514855E+02  0.80042076439E+02  0.00000000000E+00 0. -1.
         21    1    1    2  504  501  0.34591360284E+02  0.82609518002E+02 -0.58178833304E+02  0.10679733759E+03  0.00000000000E+00 0. -1.
         21    1    1    2  505  502 -0.54713353125E+02 -0.13687335973E+03 -0.40501172769E+02  0.15286664977E+03  0.00000000000E+00 0. -1.
         21    1    1    2  506  503  0.21293472519E+02 -0.21186215409E+02 -0.19631501426E+03  0.19859972940E+03  0.00000000000E+00 0. -1.
<scales pt_clust_3="36.30367" pt_clust_4="36.30367" pt_clust_5="152.72981" pt_clust_6="30.03777"></scales>
<clustering>
<clus scale="   30.038">  2  6  1 -1</clus>
<clus scale="   36.304">  3  4 -1 -1</clus>
<clus scale="  152.730">  1  5  2 -1</clus>
<clus scale="  152.730">  1  3  2 -1</clus>
</clustering>
</event>
<event>
 6    0  0.5563122E+002  0.1590622E+03  0.7546771E-02  0.1189760E+00
         21   -1    0    0  503  501  0.00000000000E+00  0.00000000000E+00  0.35131815879E+02  0.35131815879E+02  0.00000000000E+00 0. -1.
         21   -1    0    0  504  502 -0.00000000000E+00 -0.00000000000E+00 -0.13752966087E+04  0.13752966087E+04  0.00000000000E+00 0. -1.
         21    1    1    2  503  502 -0.14586308602E+01  0.39007101991E+02 -0.24176164673E+03  0.24489257938E+03  0.00000000000E+00 0.  1.
         21    1    1    2  504  505 -0.55159021623E+02 -0.87542090987E+01 -0.24900440008E+03  0.25519080136E+03  0.00000000000E+00 0.  1.
         21    1    1    2  505  506 -0.64664804698E+02 -0.99980873500E+02 -0.68139638002E+03  0.69172157602E+03  0.00000000000E+00 0. -1.
         21    1    1    2  506  501  0.12128245718E+03  0.69727980608E+02 -0.16800236604E+03  0.21862346785E+03  0.00000000000E+00 0. -1.
<scales pt_clust_3="39.03436" pt_clust_4="51.53812" pt_clust_5="51.53812" pt_clust_6="143.12380"></scales>
<clustering>
<clus scale="   39.034">  2  3  1 -1</clus>
<clus scale="   51.538">  4  5 -1 -1</clus>
<clus scale="  143.124">  1  6  2 -1</clus>
<clus scale="  143.124">  1  3  2 -1</clus>
</clustering>
</event>
<event>
 6    0  0.5563122E+002  0.1031073E+03  0.7546771E-02  0.1273894E+00
         21   -1    0    0  504  501  0.00000000000E+00  0.00000000000E+00  0.22676532633E+03  0.22676532633E+03  0.00000000000E+00 0.  1.
         21   -1    0    0  505  502 -0.00000000000E+00 -0.00000000000E+00 -0.28500474052E+03  0.28500474052E+03  0.00000000000E+00 0.  1.
         21    1    1    2  503  501  0.85440955585E+02  0.46948165736E+02 -0.31359826354E+02  0.10240959851E+03  0.00000000000E+00 0.  1.
         21    1    1    2  504  506  0.29439870465E+02 -0.40702873968E+02  0.14046880736E+03  0.14918081567E+03  0.00000000000E+00 0.  1.
         21    1    1    2  505  503  0.73331400301E+01 -0.33736427697E+02 -0.12226546324E+03  0.12704631044E+03  0.00000000000E+00 0.  1.
         21    1    1    2  506  502 -0.12221396608E+03  0.27491135929E+02 -0.45082931963E+02  0.13313334223E+03  0.00000000000E+00 0.  1.
<scales pt_clust_3="14000.00000" pt_clust_4="51.09448" pt_clust_5="34.52422" pt_clust_6="103.10725"></scales>
<clustering>
<clus scale="   34.524">  2  5  1 -1</clus>
<clus scale="   51.094">  1  4  2 -1</clus>
<clus scale="  103.107">  1  6  2 -1</clus>
<clus scale="   51.094">  1  3  2 -1</clus>
</clustering>
</event>
<event>
 6    0  0.5563122E+002  0.6984538E+02  0.7546771E-02  0.1360620E+00
         21   -1    0    0  504  501  0.00000000000E+00  0.00000000000E+00  0.43794840392E+03  0.43794840392E+03  0.00000000000E+00 0. -1.
         21   -1    0    0  505  502 -0.00000000000E+00 -0.00000000000E+00 -0.46877583014E+03  0.46877583014E+03  0.00000000000E+00 0.  1.
         21    1    1    2  503  502 -0.35502417134E+02 -0.11756420087E+02 -0.17803534725E+03  0.18192091663E+03  0.00000000000E+00 0. -1.
         21    1    1    2  504  503  0.89583174524E+02  0.53443146415E+02 -0.26955849617E+03  0.28903822916E+03  0.00000000000E+00 0.  1.
         21    1    1    2  505  506 -0.85495409719E+02 -0.33585481216E+02  0.34477347809E+03  0.35679994510E+03  0.00000000000E+00 0. -1.
         21    1    1    2  506  501  0.31414652329E+02 -0.81012451109E+01  0.71992939115E+02  0.78965143169E+02  0.00000000000E+00 0. -1.
<scales pt_clust_3="37.25226" pt_clust_4="14000.00000" pt_clust_5="69.84538" pt_clust_6="32.44242"></scales>
<clustering>
<clus scale="   32.442">  1  6  2 -1</clus>
<clus scale="   37.252">  2  3  1 -1</clus>
<clus scale="   69.845">  1  5  2 -1</clus>
<clus scale="   32.442">  1  3  2 -1</clus>
</clustering>
</event>
<event>
 6    0  0.5563122E+002  0.9512150E+02  0.7546771E-02  0.1290903E+00
         21   -1    0    0  505  501  0.00000000000E+00  0.00000000000E+00  0.13889870671E+04  0.13889870671E+04  0.00000000000E+00 0. -1.
         21   -1    0    0  506  502 -0.00000000000E+00 -0.00000000000E+00 -0.56473025611E+02  0.56473025611E+02  0.00000000000E+00 0. -1.
         21    1    1    2  503  504 -0.78916314553E+02  0.44340555068E+02  0.10860886660E+00  0.90520060331E+02  0.00000000000E+00 0. -1.
         21    1    1    2  504  502 -0.20582127813E+02 -0.45938048291E+02  0.78086967224E+02  0.92905880957E+02  0.00000000000E+00 0. -1.
         21    1    1    2  505  503  0.73647714867E+02  0.22191376580E+02  0.11507952972E+04  0.11533630214E+04  0.00000000000E+00 0. -1.
         21    1    1    2  506  501  0.25850727499E+02 -0.20593883357E+02  0.10352316814E+03  0.10867112995E+03  0.00000000000E+00 0.  1.
<scales pt_clust_3="95.12150" pt_clust_4="50.93092" pt_clust_5="14000.00000" pt_clust_6="33.05099"></scales>
<clustering>
<clus scale="   33.051">  1  6  2 -1</clus>
<clus scale="   50.931">  2  4  1 -1</clus>
<clus scale="   95.122">  2  3  1 -1</clus>
<clus scale="   33.051">  1  3  2 -1</clus>
</clustering>
</event>
<event>
 6    0  0.5563122E+002  0.1042558E+03  0.7546771E-02  0.1271593E+00
         21   -1    0    0  505  501  0.00000000000E+00  0.00000000000E+00  0.13877851383E+03  0.13877851383E+03  0.00000000000E+00 0.  1.
         21   -1    0    0  506  502 -0.00000000000E+00 -0.00000000000E+00 -0.76087751806E+03  0.76087751806E+03  0.00000000000E+00 0.  1.
         21    1    1    2  503  502  0.89080839193E+01 -0.30389436417E+02 -0.50605982849E+03  0.50704972322E+03  0.00000000000E+00 0.  1.
         21    1    1    2  504  503 -0.39946981040E+02  0.77338373196E+02 -0.23682320569E+02  0.90209963809E+02  0.00000000000E+00 0.  1.
         21    1    1    2  505  504 -0.87858930093E+02  0.39649280827E+02  0.40152657283E+02  0.10441979197E+03  0.00000000000E+00 0.  1.
         21    1    1    2  506  501  0.11889782721E+03 -0.86598217605E+02 -0.13250951245E+03  0.19797655290E+03  0.00000000000E+00 0.  1.
<scales pt_clust_3="31.66815" pt_clust_4="80.09616" pt_clust_5="104.25580" pt_clust_6="14000.00000"></scales>
<clustering>
<clus scale="   31.668">  2  3  1 -1</clus>
<clus scale="   80.096">  2  4  1 -1</clus>
<clus scale="  104.256">  1  5  2 -1</clus>
<clus scale="  104.256">  1  3  2 -1</clus>
</clustering>
</event>
<event>
 6    0  0.5563122E+002  0.1789309E+03  0.7546771E-02  0.1168842E+00
         21   -1    0    0  506  501  0.00000000000E+00  0.00000000000E+00  0.36624849594E+03  0.36624849594E+03  0.00000000000E+00 0.  1.
         21   -1    0    0  504  502 -0.00000000000E+00 -0.00000000000E+00 -0.78996081039E+03  0.78996081039E+03  0.00000000000E+00 0. -1.
         21    1    1    2  503  501 -0.22404462009E+03  0.77167351478E+02  0.15016850834E+03  0.28053764956E+03  0.00000000000E+00 0.  1.
         21    1    1    2  504  503  0.10208927645E+03 -0.27083176016E+02 -0.63875103801E+03  0.64742459587E+03  0.00000000000E+00 0. -1.
         21    1    1    2  505  502  0.14059730715E+03  0.22485480976E+02  0.55157639625E+02  0.15269435105E+03  0.00000000000E+00 0. -1.
         21    1    1    2  506  505 -0.18641963516E+02 -0.72569656438E+02  0.97125755860E+01  0.75552709837E+02  0.00000000000E+00 0. -1.
<scales pt_clust_3="14000.00000" pt_clust_4="105.63331" pt_clust_5="178.93086" pt_clust_6="74.92582"></scales>
<clustering>
<clus scale="   74.926">  1  6  2 -1</clus>
<clus scale="  105.633">  2  4  1 -1</clus>
<clus scale="  178.931">  1  5  2 -1</clus>
<clus scale="   74.926">  1  3  2 -1</clus>
</clustering>
</event>
<event>
 6    0  0.5563122E+002  0.1729496E+03  0.7546771E-02  0.1174806E+00
         21   -1    0    0  504  501  0.00000000000E+00  0.00000000000E+00  0.19465797780E+03  0.19465797780E+03  0.00000000000E+00 0.  1.
         21   -1    0    0  503  502 -0.00000000000E+00 -0.00000000000E+00 -0.50710515157E+03  0.50710515157E+03  0.00000000000E+00 0.  1.
         21    1    1    2  503  501  0.13147700627E+03 -0.12175482620E+03 -0.12002769587E+03  0.21567820626E+03  0.00000000000E+00 0.  1.
         21    1    1    2  504  505 -0.61876235233E+02 -0.51229506576E+01  0.65212493808E+02  0.90042114916E+02  0.00000000000E+00 0.  1.
         21    1    1    2  505  506 -0.10437812351E+03  0.12037755860E+03 -0.25651724105E+02  0.16138017298E+03  0.00000000000E+00 0.  1.
         21    1    1    2  506  502  0.34777352478E+02  0.65002182550E+01 -0.23198024760E+03  0.23466263520E+03  0.00000000000E+00 0.  1.
<scales pt_clust_3="172.94964" pt_clust_4="60.49223" pt_clust_5="14000.00000" pt_clust_6="35.37961"></scales>
<clustering>
<clus scale="   35.380">  2  6  1 -1</clus>
<clus scale="   60.492">  1  4  2 -1</clus>
<clus scale="  172.950">  2  3  1 -1</clus>
<clus scale="   60.492">  1  3  2 -1</clus>
</clustering>
</event>
<event>
 6    0  0.5563122E+002  0.1056752E+03  0.7546771E-02  0.1268795E+00
         21   -1    0    0  505  501  0.00000000000E+00  0.00000000000E+00  0.60562843069E+03  0.60562843069E+03  0.00000000000E+00 0.  1.
         21   -1    0    0  504  502 -0.00000000000E+00 -0.00000000000E+00 -0.41965568378E+03  0.41965568378E+03  0.00000000000E+00 0. -1.
         21    1    1    2  503  506  0.33260938207E+02 -0.83942615246E+02  0.29690400217E+03  0.31032988765E+03  0.00000000000E+00 0.  1.
         21    1    1    2  504  503 -0.47443380029E+02  0.94857653353E+02 -0.37026895134E+03  0.38515963578E+03  0.00000000000E+00 0. -1.
         21    1    1    2  505  502 -0.18553219464E+02 -0.54749668572E+02 -0.66954194818E+01  0.58194302155E+02  0.00000000000E+00 0. -1.
         21    1    1    2  506  501  0.32735661286E+02  0.43834630465E+02  0.26603311557E+03  0.27160028889E+03  0.00000000000E+00 0.  1.
<scales pt_clust_3="105.67525" pt_clust_4="14000.00000" pt_clust_5="53.84631" pt_clust_6="54.70922"></scales>
<clustering>
<clus scale="   54.709">  1  6  2 -1</clus>
<clus scale="   53.846">  1  5  2 -1</clus>
<clus scale="  105.675">  1  3  2 -1</clus>
<clus scale="   54.709">  1  3  2 -1</clus>
</clustering>
</event>
<event>
 6    0  0.5563122E+002  0.1333398E+03  0.7546771E-02  0.1222583E+00
         21   -1    0    0  504  501  0.00000000000E+00  0.00000000000E+00  0.83923493552E+03  0.83923493552E+03  0.00000000000E+00 0.  1.
         21   -1    0    0  505  502 -0.00000000000E+00 -0.00000000000E+00 -0.10445267195E+03  0.10445267195E+03  0.00000000000E+00 0.  1.
         21    1    1    2  503  502  0.76645316667E+02 -0.90291878187E+02  0.21913323584E+03  0.24909135449E+03  0.00000000000E+00 0.  1.
         21    1    1    2  504  503 -0.85574874858E-01 -0.30895251007E+02  0.51438667642E+03  0.51531366830E+03  0.00000000000E+00 0.  1.
         21    1    1    2  505  506  0.25241600684E+02  0.36487620220E+02  0.13271144030E+02  0.46309913607E+02  0.00000000000E+00 0.  1.
         21    1    1    2  506  501 -0.10180134248E+03  0.84699508974E+02 -0.12008792715E+02  0.13297267108E+03  0.00000000000E+00 0.  1.
<scales pt_clust_3="133.33977" pt_clust_4="30.89537" pt_clust_5="42.06048" pt_clust_6="14000.00000"></scales>
<clustering>
<clus scale="   30.895">  1  4  2 -1</clus>
<clus scale="   42.060">  2  5  1 -1</clus>
<clus scale="  133.340">  1  3  2 -1</clus>
<clus scale="   30.895">  1  3  2 -1</clus>
</clustering>
</event>
<event>
 6    0  0.5563122E+002  0.1568811E+03  0.7546771E-02  0.1192264E+00
         21   -1    0    0  506  501  0.00000000000E+00  0.00000000000E+00  0.42149858691E+03  0.42149858691E+03  0.00000000000E+00 0.  1.
         21   -1    0    0  501  502 -0.00000000000E+00 -0.00000000000E+00 -0.33832090099E+03  0.33832090099E+03  0.00000000000E+00 0.  1.
         21    1    1    2  503  504  0.71864570071E+02 -0.98745485352E+02 -0.45821737153E+02  0.13044086363E+03  0.00000000000E+00 0.  1.
         21    1    1    2  504  502 -0.47370225192E+02  0.12591408369E+03 -0.18071830444E+03  0.22529403069E+03  0.00000000000E+00 0.  1.
         21    1    1    2  505  503  0.52771660115E+02  0.36130834445E+01 -0.25487178639E+02  0.58715404778E+02  0.00000000000E+00 0.  1.
         21    1    1    2  506  505 -0.77266004993E+02 -0.30781681784E+02  0.33520490616E+03  0.34536918880E+03  0.00000000000E+00 0.  1.
<scales pt_clust_3="51.44568" pt_clust_4="136.01801" pt_clust_5="51.44568" pt_clust_6="83.17179"></scales>
<clustering>
<clus scale="   51.446">  3  5 -1 -1</clus>
<clus scale="   83.172">  1  6  2 -1</clus>
<clus scale="  136.018">  2  4  1 -1</clus>
<clus scale="   83.172">  1  3  2 -1</clus>
</clustering>
</event>
<event>
 6    0  0.5563122E+002  0.1952916E+03  0.7546771E-02  0.1153773E+00
         21   -1    0    0  506  501  0.00000000000E+00  0.00000000000E+00  0.19989778822E+03  0.19989778822E+03  0.00000000000E+00 0.  1.
         21   -1    0    0  503  502 -0.00000000000E+00 -0.00000000000E+00 -0.43236794524E+03  0.43236794524E+03  0.00000000000E+00 0. -1.
         21    1    1    2  503  504  0.17764510524E+03  0.28825554115E+02 -0.22090537197E+03  0.28493486861E+03  0.00000000000E+00 0. -1.
         21    1    1    2  504  501  0.33363390745E+02 -0.27359400579E+02 -0.43850121519E+02  0.61518174545E+02  0.00000000000E+00 0. -1.
         21    1    1    2  505  502 -0.38605553001E+02  0.36054857043E+02 -0.65454422947E+02  0.84110777682E+02  0.00000000000E+00 0. -1.
         21    1    1    2  506  505 -0.17240294298E+03 -0.37521010579E+02  0.97739759418E+02  0.20170191262E+03  0.00000000000E+00 0.  1.
<scales pt_clust_3="36.00599" pt_clust_4="36.00599" pt_clust_5="52.82368" pt_clust_6="180.91793"></scales>
<clustering>
<clus scale="   36.006">  3  4 -1 -1</clus>
<clus scale="   52.824">  2  5  1 -1</clus>
<clus scale="  180.918">  1  6  2 -1</clus>
<clus scale="  180.918">  1  3  2 -1</clus>
</clustering>
</event>
<event>
 6    0  0.5563122E+002  0.9223047E+02  0.7546771E-02  0.1297538E+00
         21   -1    0    0  506  501  0.00000000000E+00  0.00000000000E+00  0.14972817921E+04  0.14972817921E+04  0.00000000000E+00 0.  1.
         21   -1    0    0  504  502 -0.00000000000E+00 -0.00000000000E+00 -0.58853489189E+02  0.58853489189E+02  0.00000000000E+00 0.  1.
         21    1    1    2  503  505 -0.96617545279E+02 -0.53644549376E+02  0.14271393166E+03  0.18049918012E+03  0.00000000000E+00 0.  1.
         21    1    1    2  504  503  0.41255822220E+02 -0.78759850840E+01 -0.21685200332E+02  0.47268614550E+02  0.00000000000E+00 0.  1.
         21    1    1    2  505  501 -0.47897159123E+02 -0.30946311091E+01  0.42190175472E+03  0.42462313318E+03  0.00000000000E+00 0. -1.
         21    1    1    2  506  502  0.10325888218E+03  0.64615165569E+02  0.89549781682E+03  0.90374435340E+03  0.00000000000E+00 0.  1.
<scales pt_clust_3="14000.00000" pt_clust_4="42.00088" pt_clust_5="45.73105" pt_clust_6="92.23047"></scales>
<clustering>
<clus scale="   42.001">  2  4  1 -1</clus>
<clus scale="   45.731">  1  5  2 -1</clus>
<clus scale="   92.230">  1  6  2 -1</clus>
<clus scale="   45.731">  1  3  2 -1</clus>
</clustering>
</event>
<event>
 6    0  0.5563122E+002  0.1713132E+03  0.7546771E-02  0.1176485E+00
         21   -1    0    0  502  501  0.00000000000E+00  0.00000000000E+00  0.99029985935E+02  0.99029985935E+02  0.00000000000E+00 0. -1.
         21   -1    0    0  505  502 -0.00000000000E+00 -0.00000000000E+00 -0.35463790049E+03  0.35463790049E+03  0.00000000000E+00 0. -1.
         21    1    1    2  503  501  0.78271958639E+02 -0.11372702556E+03 -0.65420638386E+02  0.15277498414E+03  0.00000000000E+00 0. -1.
         21    1    1    2  504  503 -0.10609338615E+02 -0.32718865987E+02 -0.18725044781E+02  0.39162604094E+02  0.00000000000E+00 0.  1.
         21    1    1    2  505  506 -0.31345580684E+02 -0.97514211678E+01 -0.53053952805E+02  0.62388761420E+02  0.00000000000E+00 0. -1.
         21    1    1    2  506  504 -0.36317039340E+02  0.15619731272E+03 -0.11840827858E+03  0.19934153677E+03  0.00000000000E+00 0. -1.
<scales pt_clust_3="30.50432" pt_clust_4="30.50432" pt_clust_5="32.82736" pt_clust_6="160.04157"></scales>
<clustering>
<clus scale="   30.504">  3  4 -1 -1</clus>
<clus scale="   32.827">  2  5  1 -1</clus>
<clus scale="  160.042">  2  6  1 -1</clus>
<clus scale="  171.313">  1  3  2 -1</clus>
</clustering>
</event>
<event>
 6    0  0.5563122E+002  0.2126143E+03  0.7546771E-02  0.1139512E+00
         21   -1    0    0  504  501  0.00000000000E+00  0.00000000000E+00  0.29509331472E+03  0.29509331472E+03  0.00000000000E+00 0. -1.
         21   -1    0    0  506  502 -0.00000000000E+00 -0.00000000000E+00 -0.41629289662E+03  0.41629289662E+03  0.00000000000E+00 0. -1.
         21    1    1    2  503  502 -0.20704773362E+03 -0.34431514435E+02 -0.70147535548E+02  0.22130289182E+03  0.00000000000E+00 0. -1.
         21    1    1    2  504  503 -0.37651859185E+02  0.33447588650E+02  0.38531010198E+02  0.63411690038E+02  0.00000000000E+00 0. -1.
         21    1    1    2  505  501  0.28689927019E+02  0.25212444092E+02  0.11926647812E+03  0.12523287129E+03  0.00000000000E+00 0. -1.
         21    1    1    2  506  505  0.21600966579E+03 -0.24228518307E+02 -0.20884953467E+03  0.30143875820E+03  0.00000000000E+00 0. -1.
<scales pt_clust_3="14000.00000" pt_clust_4="50.23469" pt_clust_5="38.19397" pt_clust_6="212.61428"></scales>
<clustering>
<clus scale="   38.194">  1  5  2 -1</clus>
<clus scale="   50.235">  1  4  2 -1</clus>
<clus scale="  212.614">  2  6  1 -1</clus>
<clus scale="   38.194">  1  3  2 -1</clus>
</clustering>
</event>
<event>
 6    0  0.5563122E+002  0.1692236E+03  0.7546771E-02  0.1178660E+00
         21   -1    0    0  503  501  0.00000000000E+00  0.00000000000E+00  0.58458161426E+03  0.58458161426E+03  0.00000000000E+00 0. -1.
         21   -1    0    0  506  502 -0.00000000000E+00 -0.00000000000E+00 -0.98726857096E+03  0.98726857096E+03  0.00000000000E+00 0. -1.
         21    1    1    2  503  505  0.13867153967E+02 -0.12977429739E+03 -0.64375722269E+03  0.65685388634E+03  0.00000000000E+00 0. -1.
         21    1    1    2  504  501  0.11970438175E+01  0.15824915868E+03  0.55140218286E+03  0.57366244116E+03  0.00000000000E+00 0. -1.
         21    1    1    2  505  502 -0.33261475588E+01 -0.81720153665E+02 -0.23117010029E+03  0.24521187174E+03  0.00000000000E+00 0. -1.
         21    1    1    2  506  504 -0.11738050225E+02  0.53245292380E+02 -0.79161816581E+02  0.96121985977E+02  0.00000000000E+00 0. -1.
<scales pt_clust_3="46.04891" pt_clust_4="158.91139" pt_clust_5="46.04891" pt_clust_6="54.52378"></scales>
<clustering>
<clus scale="   46.049">  3  5 -1 -1</clus>
<clus scale="   54.524">  2  6  1 -1</clus>
<clus scale="  158.911">  1  4  2 -1</clus>
<clus scale="  158.911">  1  3  2 -1</clus>
</clustering>
</event>
<event>
 6    0  0.7697763E+002  0.1951185E+03  0.7546771E-02  0.1153924E+00
         21   -1    0    0  503  501  0.00000000000E+00  0.00000000000E+00  0.10746698060E+04  0.10746698060E+04  0.00000000000E+00 0. -1.
         21   -1    0    0  505  502 -0.00000000000E+00 -0.00000000000E+00 -0.61836240759E+03  0.61836240759E+03  0.00000000000E+00 0. -1.
         21    1    1    2  503  504  0.41131904667E+02  0.30444088897E+02  0.10779146203E+03  0.11932173070E+03  0.00000000000E+00 0. -1.
         21    1    1    2  504  502 -0.48102058100E+02  0.19085278359E+03 -0.56400465471E+03  0.59736073150E+03  0.00000000000E+00 0. -1.
         21    1    1    2  505  506  0.14210432693E+02 -0.17218820475E+03  0.20938516116E+03  0.27146428856E+03  0.00000000000E+00 0. -1.
         21    1    1    2  506  501 -0.72402792604E+01 -0.49108667738E+02  0.70313542994E+03  0.70488546285E+03  0.00000000000E+00 0. -1.
<scales pt_clust_3="41.84983" pt_clust_4="195.11851" pt_clust_5="14000.00000" pt_clust_6="49.63953"></scales>
<clustering>
<clus scale="   49.640">  1  6  2 -1</clus>
<clus scale="   41.850">  1  3  2 -1</clus>
<clus scale="  195.119">  2  4  1 -1</clus>
<clus scale="   49.640">  1  3  2 -1</clus>
</clustering>
</event>
<event>
 6    0  0.5563122E+002  0.1642211E+03  0.7546771E-02  0.1184012E+00
         21   -1    0    0  505  501  0.00000000000E+00  0.00000000000E+00  0.19296847097E+04  0.19296847097E+04  0.00000000000E+00 0.  1.
         21   -1    0    0  504  502 -0.00000000000E+00 -0.00000000000E+00 -0.25493818924E+03  0.25493818924E+03  0.00000000000E+00 0.  1.
         21    1    1    2  503  501  0.26045051634E+02 -0.52033196264E+02  0.38999742744E+03  0.39431433101E+03  0.00000000000E+00 0. -1.
         21    1    1    2  504  506 -0.41279744831E+02 -0.24533622203E+01 -0.21145530696E+03  0.21546086225E+03  0.00000000000E+00 0.  1.
         21    1    1    2  505  502  0.14472786250E+03  0.79860924903E+02  0.14044088648E+04  0.14141033134E+04  0.00000000000E+00 0.  1.
         21    1    1    2  506  503 -0.12949316931E+03 -0.25374366419E+02  0.91795535218E+02  0.16074439230E+03  0.00000000000E+00 0.  1.
<scales pt_clust_3="57.37441" pt_clust_4="41.35259" pt_clust_5="14000.00000" pt_clust_6="164.22108"></scales>
<clustering>
<clus scale="   41.353">  2  4  1 -1</clus>
<clus scale="   57.374">  1  3  2 -1</clus>
<clus scale="  164.221">  2  6  1 -1</clus>
<clus scale="   57.374">  1  3  2 -1</clus>
</clustering>
</event>
<event>
 6    0  0.5563122E+002  0.1431946E+03  0.7546771E-02  0.1209094E+00
         21   -1    0    0  504  501  0.00000000000E+00  0.00000000000E+00  0.51799771089E+02  0.51799771089E+02  0.00000000000E+00 0.  1.
         21   -1    0    0  503  502 -0.00000000000E+00 -0.00000000000E+00 -0.19204131633E+04  0.19204131633E+04  0.00000000000E+00 0. -1.
         21    1    1    2  503  501 -0.59241150417E+01  0.86343973797E+02 -0.77836514422E+01  0.86896272531E+02  0.00000000000E+00 0.  1.
         21    1    1    2  504  505  0.49184636763E+02 -0.79944115851E+02 -0.51186931501E+03  0.52040406013E+03  0.00000000000E+00 0. -1.
         21    1    1    2  505  506  0.75853466855E+02 -0.33124258390E+02 -0.43155898445E+03  0.43942476260E+03  0.00000000000E+00 0. -1.
         21    1    1    2  506  502 -0.11911398858E+03  0.26724400444E+02 -0.91740144127E+03  0.92548783909E+03  0.00000000000E+00 0. -1.
<scales pt_clust_3="86.54696" pt_clust_4="49.64960" pt_clust_5="49.64960" pt_clust_6="133.07617"></scales>
<clustering>
<clus scale="   49.650">  4  5 -1 -1</clus>
<clus scale="   86.547">  1  3  2 -1</clus>
<clus scale="  133.076">  2  6  1 -1</clus>
<clus scale="   86.547">  1  3  2 -1</clus>
</clustering>
</event>
<event>
 6    0  0.5563122E+002  0.9162891E+02  0.7546771E-02  0.1298954E+00
         21   -1    0    0  505  501  0.00000000000E+00  0.00000000000E+00  0.93459785939E+02  0.93459785939E+02  0.00000000000E+00 0.  1.
         21   -1    0    0  506  502 -0.00000000000E+00 -0.00000000000E+00 -0.56544597831E+03  0.56544597831E+03  0.00000000000E+00 0.  1.
         21    1    1    2  503  501  0.67717544586E+02  0.46707834833E+02 -0.39516170627E+02  0.91262343936E+02  0.00000000000E+00 0.  1.
         21    1    1    2  504  503 -0.78950528399E+02 -0.84955960776E+02 -0.20146422979E+03  0.23246190460E+03  0.00000000000E+00 0.  1.
         21    1    1    2  505  502  0.33330563481E+02 -0.47590603166E+02  0.25753375210E+02  0.63553350080E+02  0.00000000000E+00 0.  1.
         21    1    1    2  506  504 -0.22097579668E+02  0.85838729109E+02 -0.25675916716E+03  0.27162816563E+03  0.00000000000E+00 0.  1.
<scales pt_clust_3="91.62891" pt_clust_4="14000.00000" pt_clust_5="58.10157" pt_clust_6="80.41141"></scales>
<clustering>
<clus scale="   58.102">  1  5  2 -1</clus>
<clus scale="   80.411">  2  6  1 -1</clus>
<clus scale="   91.629">  1  3  2 -1</clus>
<clus scale="   58.102">  1  3  2 -1</clus>
</clustering>
</event>
<event>
 6    0  0.5563122E+002  0.1092029E+03  0.7546771E-02  0.1262053E+00
         21   -1    0    0  504  501  0.00000000000E+00  0.00000000000E+00  0.33822643875E+04  0.33822643875E+04  0.00000000000E+00 0.  1.
         21   -1    0    0  506  502 -0.00000000000E+00 -0.00000000000E+00 -0.65996903733E+02  0.65996903733E+02  0.00000000000E+00 0.  1.
         21    1    1    2  503  502 -0.59104526498E+02 -0.92758871724E+02 -0.12682936550E+02  0.11071770507E+03  0.00000000000E+00 0.  1.
         21    1    1    2  504  503  0.67714334432E+01  0.38427569904E+02  0.26620837126E+03  0.26905283379E+03  0.00000000000E+00 0.  1.
         21    1    1    2  505  501 -0.58067087603E+02  0.23758941847E+02  0.16172757450E+04  0.16184922333E+04  0.00000000000E+00 0.  1.
         21    1    1    2  506  505  0.11040018066E+03  0.30572359972E+02  0.14454663041E+04  0.14499985191E+04  0.00000000000E+00 0.  1.
<scales pt_clust_3="14000.00000" pt_clust_4="39.01962" pt_clust_5="69.90784" pt_clust_6="109.20295"></scales>
<clustering>
<clus scale="   39.020">  1  4  2 -1</clus>
<clus scale="   69.908">  1  5  2 -1</clus>
<clus scale="  109.203">  1  6  2 -1</clus>
<clus scale="   39.020">  1  3  2 -1</clus>
</clustering>
</event>
<event>
 6    0  0.5563122E+002  0.1293749E+03  0.7546771E-02  0.1228386E+00
         21   -1    0    0  506  501  0.00000000000E+00  0.00000000000E+00  0.49644959614E+03  0.49644959614E+03  0.00000000000E+00 0.  1.
         21   -1    0    0  504  502 -0.00000000000E+00 -0.00000000000E+00 -0.36618087286E+03  0.36618087286E+03  0.00000000000E+00 0. -1.
         21    1    1    2  503  502 -0.30859621114E+02  0.48762095032E+02 -0.10282598983E+03  0.11791201089E+03  0.00000000000E+00 0. -1.
         21    1    1    2  504  505 -0.23213310935E+02 -0.10290488095E+03 -0.20893210260E+02  0.10753975341E+03  0.00000000000E+00 0. -1.
         21    1    1    2  505  501  0.56571053323E+02 -0.26427393032E+02  0.43477456925E+03  0.43923526412E+03  0.00000000000E+00 0.  1.
         21    1    1    2  506  503 -0.24981212734E+01  0.80570178949E+02 -0.18078664588E+03  0.19794344060E+03  0.00000000000E+00 0.  1.
<scales pt_clust_3="32.64851" pt_clust_4="123.48640" pt_clust_5="62.43950" pt_clust_6="32.64851"></scales>
<clustering>
<clus scale="   32.649">  3  6 -1 -1</clus>
<clus scale="   62.440">  1  5  2 -1</clus>
<clus scale="  123.486">  1  4  2 -1</clus>
<clus scale="   62.440">  1  3  2 -1</clus>
</clustering>
</event>
<event>
 6    0  0.5563122E+002  0.1241483E+03  0.7546771E-02  0.1236406E+00
         21   -1    0    0  502  501  0.00000000000E+00  0.00000000000E+00  0.14515665473E+04  0.14515665473E+04  0.00000000000E+00 0. -1.
         21   -1    0    0  503  502 -0.00000000000E+00 -0.00000000000E+00 -0.43448398663E+03  0.43448398663E+03  0.00000000000E+00 0.  1.
         21    1    1    2  503  504 -0.35328484741E+02 -0.10989372360E+02 -0.40479262800E+03  0.40647993778E+03  0.00000000000E+00 0.  1.
         21    1    1    2  504  505 -0.24683522156E+02  0.10929808117E+03  0.95219353437E+02  0.14704445614E+03  0.00000000000E+00 0. -1.
         21    1    1    2  505  506  0.27496701585E+02 -0.39348130087E+02  0.31550023417E+03  0.31913122959E+03  0.00000000000E+00 0. -1.
         21    1    1    2  506  501  0.32515305311E+02 -0.58960578721E+02  0.10111556010E+04  0.10133949104E+04  0.00000000000E+00 0. -1.
<scales pt_clust_3="36.99822" pt_clust_4="114.31809" pt_clust_5="40.68401" pt_clust_6="40.68401"></scales>
<clustering>
<clus scale="   36.998">  2  3  1 -1</clus>
<clus scale="   40.684">  5  6 -1 -1</clus>
<clus scale="  114.318">  2  4  1 -1</clus>
<clus scale="  124.148">  1  3  2 -1</clus>
</clustering>
</event>
<event>
 6    0  0.5563122E+002  0.7206343E+02  0.7546771E-02  0.1353214E+00
         21   -1    0    0  503  501  0.00000000000E+00  0.00000000000E+00  0.78573930128E+03  0.78573930128E+03  0.00000000000E+00 0. -1.
         21   -1    0    0  505  502 -0.00000000000E+00 -0.00000000000E+00 -0.51594732589E+02  0.51594732589E+02  0.00000000000E+00 0. -1.
         21    1    1    2  503  506  0.73742875548E+02 -0.10316892759E+03  0.55593641701E+03  0.57021674746E+03  0.00000000000E+00 0. -1.
         21    1    1    2  504  502  0.23576906618E+02  0.27181599402E+02  0.10086466741E+02  0.37369060505E+02  0.00000000000E+00 0. -1.
         21    1    1    2  505  501 -0.27188646736E+02  0.56908402252E+02  0.13673683184E+03  0.15058137315E+03  0.00000000000E+00 0. -1.
         21    1    1    2  506  504 -0.70131135431E+02  0.19078925940E+02  0.31384853095E+02  0.79166852758E+02  0.00000000000E+00 0. -1.
<scales pt_clust_3="72.06343" pt_clust_4="35.98208" pt_clust_5="65.96428" pt_clust_6="14000.00000"></scales>
<clustering>
<clus scale="   35.982">  2  4  1 -1</clus>
<clus scale="   65.964">  1  5  2 -1</clus>
<clus scale="   72.063">  1  3  2 -1</clus>
<clus scale="   65.964">  1  3  2 -1</clus>
</clustering>
</event>
<event>
 6    0  0.5563122E+002  0.1052967E+03  0.7546771E-02  0.1269536E+00
         21   -1    0    0  506  501  0.00000000000E+00  0.00000000000E+00  0.20332177068E+04  0.20332177068E+04  0.00000000000E+00 0.  1.
         21   -1    0    0  503  502 -0.00000000000E+00 -0.00000000000E+00 -0.79618817985E+02  0.79618817985E+02  0.00000000000E+00 0.  1.
         21    1    1    2  503  504 -0.35211378840E+02 -0.18288709966E+02  0.27797526231E+02  0.48446058422E+02  0.00000000000E+00 0.  1.
         21    1    1    2  504  501  0.12218799060E+03  0.21467267789E+02  0.17393565458E+04  0.17437751982E+04  0.00000000000E+00 0.  1.
         21    1    1    2  505  502 -0.31567667044E+02  0.38645137982E+02 -0.52119480293E+02  0.72155419188E+02  0.00000000000E+00 0.  1.
         21    1    1    2  506  505 -0.55408944715E+02 -0.41823695805E+02  0.23856429707E+03  0.24845984891E+03  0.00000000000E+00 0.  1.
<scales pt_clust_3="39.67768" pt_clust_4="105.29669" pt_clust_5="66.94623" pt_clust_6="14000.00000"></scales>
<clustering>
<clus scale="   39.678">  2  3  1 -1</clus>
<clus scale="   66.946">  2  5  1 -1</clus>
<clus scale="  105.297">  1  4  2 -1</clus>
<clus scale="  105.297">  1  3  2 -1</clus>
</clustering>
</event>
<event>
 6    0  0.5563122E+002  0.9209146E+02  0.7546771E-02  0.1297865E+00
         21   -1    0    0  503  501  0.00000000000E+00  0.00000000000E+00  0.21058325368E+03  0.21058325368E+03  0.00000000000E+00 0.  1.
         21   -1    0    0  504  502 -0.00000000000E+00 -0.00000000000E+00 -0.42947816771E+03  0.42947816771E+03  0.00000000000E+00 0. -1.
         21    1    1    2  503  502 -0.25257702043E+00  0.10764734095E+03 -0.73855733750E+02  0.13054762815E+03  0.00000000000E+00 0. -1.
         21    1    1    2  504  505  0.12583432669E+02 -0.63095932405E+02 -0.16491110895E+03  0.17701726842E+03  0.00000000000E+00 0. -1.
         21    1    1    2  505  506 -0.73764142336E+02 -0.52849090116E+02 -0.13671291598E+03  0.16408716104E+03  0.00000000000E+00 0. -1.
         21    1    1    2  506  501  0.61433286688E+02  0.82976815711E+01  0.15658484465E+03  0.16840936378E+03  0.00000000000E+00 0.  1.
<scales pt_clust_3="92.09146" pt_clust_4="65.29276" pt_clust_5="14000.00000" pt_clust_6="61.99113"></scales>
<clustering>
<clus scale="   61.991">  1  6  2 -1</clus>
<clus scale="   65.293">  2  4  1 -1</clus>
<clus scale="   92.091">  2  3  1 -1</clus>
<clus scale="   61.991">  1  3  2 -1</clus>
</clustering>
</event>
<event>
 6    0  0.5563122E+002  0.1282643E+03  0.7546771E-02  0.1230054E+00
         21   -1    0    0  503  501  0.00000000000E+00  0.00000000000E+00  0.41326169506E+03  0.41326169506E+03  0.00000000000E+00 0.  1.
         21   -1    0    0  504  502 -0.00000000000E+00 -0.00000000000E+00 -0.37247169855E+03  0.37247169855E+03  0.00000000000E+00 0.  1.
         21    1    1    2  503  502  0.38803740593E+02 -0.52382799297E+00  0.31432009294E+02  0.49939722547E+02  0.00000000000E+00 0. -1.
         21    1    1    2  504  505 -0.57401399770E+02 -0.63277287048E+02 -0.29727113813E+03  0.30930416311E+03  0.00000000000E+00 0.  1.
         21    1    1    2  505  506 -0.11056895863E+02 -0.32733660143E+02 -0.47220774922E+02  0.58511101824E+02  0.00000000000E+00 0. -1.
         21    1    1    2  506  501  0.29654555040E+02  0.96534775183E+02  0.35384990027E+03  0.36797840613E+03  0.00000000000E+00 0.  1.
<scales pt_clust_3="38.80728" pt_clust_4="33.09770" pt_clust_5="33.09770" pt_clust_6="117.23042"></scales>
<clustering>
<clus scale="   33.098">  4  5 -1 -1</clus>
<clus scale="   38.807">  1  3  2 -1</clus>
<clus scale="  117.230">  1  6  2 -1</clus>
<clus scale="   38.807">  1  3  2 -1</clus>
</clustering>
</event>
<event>
 6    0  0.5563122E+002  0.7812640E+02  0.7546771E-02  0.1334454E+00
         21   -1    0    0  504  501  0.00000000000E+00  0.00000000000E+00  0.15089172362E+03  0.15089172362E+03  0.00000000000E+00 0. -1.
         21   -1    0    0  505  502 -0.00000000000E+00 -0.00000000000E+00 -0.60369003728E+03  0.60369003728E+03  0.00000000000E+00 0.  1.
         21    1    1    2  503  501  0.65864660432E+02 -0.40928623363E+02  0.33190609582E+02  0.84349998629E+02  0.00000000000E+00 0.  1.
         21    1    1    2  504  502 -0.19990983054E+02  0.44346830015E+02 -0.29693698503E+02  0.56991196396E+02  0.00000000000E+00 0.  1.
         21    1    1    2  505  506  0.47604291151E+02  0.30975184601E+02 -0.50089658985E+03  0.50410616374E+03  0.00000000000E+00 0.  1.
         21    1    1    2  506  503 -0.93477968530E+02 -0.34393391254E+02  0.44601365109E+02  0.10913440215E+03  0.00000000000E+00 0. -1.
<scales pt_clust_3="78.12640" pt_clust_4="48.64443" pt_clust_5="56.88429" pt_clust_6="14000.00000"></scales>
<clustering>
<clus scale="   48.644">  1  4  2 -1</clus>
<clus scale="   56.884">  2  5  1 -1</clus>
<clus scale="   78.126">  1  3  2 -1</clus>
<clus scale="   48.644">  1  3  2 -1</clus>
</clustering>
</event>
<event>
 6    0  0.5563122E+002  0.1242784E+03  0.7546771E-02  0.1236201E+00
         21   -1    0    0  505  501  0.00000000000E+00  0.00000000000E+00  0.74113137863E+03  0.74113137863E+03  0.00000000000E+00 0.  1.
         21   -1    0    0  504  502 -0.00000000000E+00 -0.00000000000E+00 -0.76711781030E+02  0.76711781030E+02  0.00000000000E+00 0. -1.
         21    1    1    2  503  502 -0.61377384971E+01 -0.57055122702E+02  0.28208090861E+02  0.63942593398E+02  0.00000000000E+00 0. -1.
         21    1    1    2  504  506  0.21422013370E+02  0.16357488605E+03  0.11567374724E+03  0.20148464408E+03  0.00000000000E+00 0. -1.
         21    1    1    2  505  503  0.32651975639E+02 -0.12324340235E+03  0.43126824015E+03  0.44971922652E+03  0.00000000000E+00 0.  1.
         21    1    1    2  506  501 -0.47936250512E+02  0.16723639003E+02  0.89269519347E+02  0.10269669566E+03  0.00000000000E+00 0. -1.
<scales pt_clust_3="56.67311" pt_clust_4="14000.00000" pt_clust_5="124.27835" pt_clust_6="50.76972"></scales>
<clustering>
<clus scale="   50.770">  1  6  2 -1</clus>
<clus scale="   56.673">  2  3  1 -1</clus>
<clus scale="  124.278">  1  5  2 -1</clus>
<clus scale="   50.770">  1  3  2 -1</clus>
</clustering>
</event>
<event>
 6    0  0.5563122E+002  0.9262197E+02  0.7546771E-02  0.1296624E+00
         21   -1    0    0  505  501  0.00000000000E+00  0.00000000000E+00  0.45292359869E+03  0.45292359869E+03  0.00000000000E+00 0.  1.
         21   -1    0    0  503  502 -0.00000000000E+00 -0.00000000000E+00 -0.81467899383E+02  0.81467899383E+02  0.00000000000E+00 0.  1.
         21    1    1    2  503  504  0.38501269639E+02 -0.62376018965E+01  0.35410121317E+02  0.52679522899E+02  0.00000000000E+00 0.  1.
         21    1    1    2  504  501  0.97987216760E+02  0.20184898722E+02  0.28594974501E+03  0.30294583915E+03  0.00000000000E+00 0.  1.
         21    1    1    2  505  506 -0.76649106367E+02 -0.17240613068E+02  0.79709069558E+02  0.11191898863E+03  0.00000000000E+00 0.  1.
         21    1    1    2  506  502 -0.59839380032E+02  0.32933162420E+01 -0.29613236580E+02  0.66847147397E+02  0.00000000000E+00 0.  1.
<scales pt_clust_3="39.00327" pt_clust_4="92.62197" pt_clust_5="14000.00000" pt_clust_6="34.35402"></scales>
<clustering>
<clus scale="   39.003">  2  3  1 -1</clus>
<clus scale="   34.354">  2  6  1 -1</clus>
<clus scale="   92.622">  1  4  2 -1</clus>
<clus scale="   92.622">  1  3  2 -1</clus>
</clustering>
</event>
<event>
 6    0  0.5563122E+002  0.1272249E+03  0.7546771E-02  0.1231633E+00
         21   -1    0    0  506  501  0.00000000000E+00  0.00000000000E+00  0.25600775821E+03  0.25600775821E+03  0.00000000000E+00 0.  1.
         21   -1    0    0  503  502 -0.00000000000E+00 -0.00000000000E+00 -0.15218540325E+03  0.15218540325E+03  0.00000000000E+00 0.  1.
         21    1    1    2  503  505 -0.44088191382E+02  0.35071715688E+02 -0.59003028214E+02  0.81579110065E+02  0.00000000000E+00 0.  1.
         21    1    1    2  504  501  0.97304246417E+02 -0.31164160808E+02  0.40131327591E+02  0.10977178483E+03  0.00000000000E+00 0.  1.
         21    1    1    2  505  504 -0.67285240171E+02  0.24712983570E+02 -0.16905116323E+02  0.73646575342E+02  0.00000000000E+00 0.  1.
         21    1    1    2  506  502  0.14069185136E+02 -0.28620538450E+02  0.13959917190E+03  0.14319569123E+03  0.00000000000E+00 0.  1.
<scales pt_clust_3="43.63117" pt_clust_4="117.60718" pt_clust_5="43.63117" pt_clust_6="31.89165"></scales>
<clustering>
<clus scale="   31.892">  1  6  2 -1</clus>
<clus scale="   43.631">  3  5 -1 -1</clus>
<clus scale="  117.607">  1  4  2 -1</clus>
<clus scale="   31.892">  1  3  2 -1</clus>
</clustering>
</event>
<event>
 6    0  0.5563122E+002  0.1337036E+03  0.7546771E-02  0.1222062E+00
         21   -1    0    0  505  501  0.00000000000E+00  0.00000000000E+00  0.69833473407E+03  0.69833473407E+03  0.00000000000E+00 0.  1.
         21   -1    0    0  504  502 -0.00000000000E+00 -0.00000000000E+00 -0.13278366668E+03  0.13278366668E+03  0.00000000000E+00 0.  1.
         21    1    1    2  503  501 -0.18908235937E+03 -0.49584477827E+01  0.68931001734E+02  0.20131618869E+03  0.00000000000E+00 0.  1.
         21    1    1    2  504  503  0.49237983913E+02 -0.81797989901E+02  0.54507458198E+02  0.10993795164E+03  0.00000000000E+00 0.  1.
         21    1    1    2  505  506  0.11354427762E+03  0.60274822164E+02  0.46060801819E+03  0.47821031313E+03  0.00000000000E+00 0.  1.
         21    1    1    2  506  502  0.26300097837E+02  0.26481615519E+02 -0.18495410730E+02  0.41653947290E+02  0.00000000000E+00 0. -1.
<scales pt_clust_3="133.70358" pt_clust_4="93.52303" pt_clust_5="14000.00000" pt_clust_6="37.32253"></scales>
<clustering>
<clus scale="   37.323">  2  6  1 -1</clus>
<clus scale="   93.523">  2  4  1 -1</clus>
<clus scale="  133.704">  2  3  1 -1</clus>
<clus scale="  133.704">  1  3  2 -1</clus>
</clustering>
</event>
<event>
 6    0  0.5563122E+002  0.9716004E+02  0.7546771E-02  0.1286384E+00
         21   -1    0    0  505  501  0.00000000000E+00  0.00000000000E+00  0.41212757295E+02  0.41212757295E+02  0.00000000000E+00 0.  1.
         21   -1    0    0  504  502 -0.00000000000E+00 -0.00000000000E+00 -0.17119590616E+04  0.17119590616E+04  0.00000000000E+00 0.  1.
         21    1    1    2  503  506  0.28033740798E+02  0.13103396715E+03 -0.64389483820E+03  0.65769016553E+03  0.00000000000E+00 0.  1.
         21    1    1    2  504  501 -0.69647266680E+02 -0.42866762368E+02 -0.50852243228E+03  0.51505666212E+03  0.00000000000E+00 0.  1.
         21    1    1    2  505  503  0.15931623553E+02 -0.26566734991E+02  0.20714737630E+02  0.37265377929E+02  0.00000000000E+00 0.  1.
         21    1    1    2  506  502  0.25681902329E+02 -0.61600469787E+02 -0.53904377141E+03  0.54315961327E+03  0.00000000000E+00 0.  1.
<scales pt_clust_3="97.16004" pt_clust_4="14000.00000" pt_clust_5="30.97754" pt_clust_6="71.90436"></scales>
<clustering>
<clus scale="   30.978">  1  5  2 -1</clus>
<clus scale="   71.904">  2  6  1 -1</clus>
<clus scale="   97.160">  2  3  1 -1</clus>
<clus scale="   30.978">  1  3  2 -1</clus>
</clustering>
</event>
<event>
 6    0  0.7663157E+002  0.7895277E+02  0.7546771E-02  0.1332050E+00
         21   -1    0    0  503  501  0.00000000000E+00  0.00000000000E+00  0.21228924776E+04  0.21228924776E+04  0.00000000000E+00 0. -1.
         21   -1    0    0  506  502 -0.00000000000E+00 -0.00000000000E+00 -0.83251085910E+03  0.83251085910E+03  0.00000000000E+00 0.  1.
         21    1    1    2  503  505  0.11029255411E+03  0.75428721151E+02  0.59307696424E+03  0.60794261652E+03  0.00000000000E+00 0. -1.
         21    1    1    2  504  501 -0.47523623117E+02 -0.16247868333E+01  0.11085367632E+04  0.11095561680E+04  0.00000000000E+00 0. -1.
         21    1    1    2  505  502 -0.35232359444E+02 -0.34380534218E+02 -0.82243119513E+03  0.82390315632E+03  0.00000000000E+00 0.  1.
         21    1    1    2  506  504 -0.27536571551E+02 -0.39423400099E+02  0.41119908619E+03  0.41400139580E+03  0.00000000000E+00 0. -1.
<scales pt_clust_3="14000.00000" pt_clust_4="47.55139" pt_clust_5="49.25295" pt_clust_6="78.95277"></scales>
<clustering>
<clus scale="   47.551">  1  4  2 -1</clus>
<clus scale="   49.253">  2  5  1 -1</clus>
<clus scale="   78.953">  1  6  2 -1</clus>
<clus scale="   47.551">  1  3  2 -1</clus>
</clustering>
</event>
<event>
 6    0  0.5563122E+002  0.2843202E+03  0.7546771E-02  0.1093352E+00
         21   -1    0    0  506  501  0.00000000000E+00  0.00000000000E+00  0.89653177960E+03  0.89653177960E+03  0.00000000000E+00 0. -1.
         21   -1    0    0  503  502 -0.00000000000E+00 -0.00000000000E+00 -0.10386575030E+03  0.10386575030E+03  0.00000000000E+00 0. -1.
         21    1    1    2  503  504  0.13004160332E+02  0.48639816982E+02  0.34241575166E+02  0.60888631548E+02  0.00000000000E+00 0.  1.
         21    1    1    2  504  501 -0.16967744005E+03  0.18577288328E+03  0.29023919892E+03  0.38411038831E+03  0.00000000000E+00 0. -1.
         21    1    1    2  505  502  0.87614642923E+02 -0.16485328683E+03  0.21986422875E+03  0.28843233334E+03  0.00000000000E+00 0. -1.
         21    1    1    2  506  505  0.69058636791E+02 -0.69559413436E+02  0.24832102647E+03  0.26696617669E+03  0.00000000000E+00 0. -1.
<scales pt_clust_3="50.34819" pt_clust_4="266.57782" pt_clust_5="73.41203" pt_clust_6="73.41203"></scales>
<clustering>
<clus scale="   50.348">  2  3  1 -1</clus>
<clus scale="   73.412">  5  6 -1 -1</clus>
<clus scale="  266.578">  2  4  1 -1</clus>
<clus scale="  284.320">  1  3  2 -1</clus>
</clustering>
</event>
<event>
 6    0  0.5563122E+002  0.1922098E+03  0.7546771E-02  0.1156483E+00
         21   -1    0    0  505  501  0.00000000000E+00  0.00000000000E+00  0.28779835820E+03  0.28779835820E+03  0.00000000000E+00 0.  1.
         21   -1    0    0  503  502 -0.00000000000E+00 -0.00000000000E+00 -0.19033190050E+03  0.19033190050E+03  0.00000000000E+00 0.  1.
         21    1    1    2  503  501 -0.16398635672E+03  0.19535604221E+02  0.10323495197E+03  0.19475785051E+03  0.00000000000E+00 0.  1.
         21    1    1    2  504  502 -0.26133054286E+02  0.18363258733E+02 -0.59352302428E+02  0.67400605347E+02  0.00000000000E+00 0. -1.
         21    1    1    2  505  506  0.99644486511E+02 -0.25533720433E+02 -0.11975952048E+02  0.10355876592E+03  0.00000000000E+00 0.  1.
         21    1    1    2  506  504  0.90474924500E+02 -0.12365142521E+02  0.65559760200E+02  0.11241303692E+03  0.00000000000E+00 0.  1.
<scales pt_clust_3="175.36744" pt_clust_4="31.93972" pt_clust_5="77.21790" pt_clust_6="77.21790"></scales>
<clustering>
<clus scale="   31.940">  2  4  1 -1</clus>
<clus scale="   77.218">  5  6 -1 -1</clus>
<clus scale="  175.367">  1  3  2 -1</clus>
<clus scale="  175.367">  1  3  2 -1</clus>
</clustering>
</event>
<event>
 6    0  0.5563122E+002  0.7015734E+02  0.7546771E-02  0.1359559E+00
         21   -1    0    0  503  501  0.00000000000E+00  0.00000000000E+00  0.30803392774E+03  0.30803392774E+03  0.00000000000E+00 0. -1.
         21   -1    0    0  504  502 -0.00000000000E+00 -0.00000000000E+00 -0.68985827223E+02  0.68985827223E+02  0.00000000000E+00 0. -1.
         21    1    1    2  503  505 -0.18934070265E+02 -0.60447788799E+02  0.15261912027E+03  0.16524233737E+03  0.00000000000E+00 0. -1.
         21    1    1    2  504  506 -0.44883842239E+02 -0.12802080591E+02  0.12539359381E+02  0.48328957109E+02  0.00000000000E+00 0. -1.
         21    1    1    2  505  502  0.93606104414E+02  0.50830777150E+02  0.42393914934E+02  0.11464342420E+03  0.00000000000E+00 0. -1.
         21    1    1    2  506  501 -0.29788191910E+02  0.22419092240E+02  0.31495705924E+02  0.48805036275E+02  0.00000000000E+00 0. -1.
<scales pt_clust_3="14000.00000" pt_clust_4="49.34544" pt_clust_5="70.15734" pt_clust_6="37.28206"></scales>
<clustering>
<clus scale="   37.282">  1  6  2 -1</clus>
<clus scale="   49.345">  2  4  1 -1</clus>
<clus scale="   70.157">  2  5  1 -1</clus>
<clus scale="   37.282">  1  3  2 -1</clus>
</clustering>
</event>
<event>
 6    0  0.5563122E+002  0.1264482E+03  0.7546771E-02  0.1232823E+00
         21   -1    0    0  504  501  0.00000000000E+00  0.00000000000E+00  0.38093922298E+03  0.38093922298E+03  0.00000000000E+00 0. -1.
         21   -1    0    0  503  502 -0.00000000000E+00 -0.00000000000E+00 -0.18592911017E+03  0.18592911017E+03  0.00000000000E+00 0.  1.
         21    1    1    2  503  501 -0.89001766246E+02 -0.75220654221E+02 -0.29751034603E+02  0.12026880425E+03  0.00000000000E+00 0.  1.
         21    1    1    2  504  506  0.25908521452E+02 -0.18379938852E+02  0.25610695324E+03  0.25806945797E+03  0.00000000000E+00 0. -1.
         21    1    1    2  505  502  0.50346881587E+01 -0.36520509576E+02 -0.27498531984E+02  0.45992009804E+02  0.00000000000E+00 0.  1.
         21    1    1    2  506  505  0.58058556636E+02  0.13012110265E+03 -0.38472738455E+01  0.14253806113E+03  0.00000000000E+00 0.  1.
<scales pt_clust_3="14000.00000" pt_clust_4="31.76592" pt_clust_5="38.52828" pt_clust_6="126.44818"></scales>
<clustering>
<clus scale="   31.766">  1  4  2 -1</clus>
<clus scale="   38.528">  2  5  1 -1</clus>
<clus scale="  126.448">  1  6  2 -1</clus>
<clus scale="   31.766">  1  3  2 -1</clus>
</clustering>
</event>
<event>
 6    0  0.5563122E+002  0.1123119E+03  0.7546771E-02  0.1256348E+00
         21   -1    0    0  504  501  0.00000000000E+00  0.00000000000E+00  0.47203418357E+02  0.47203418357E+02  0.00000000000E+00 0. -1.
         21   -1    0    0  505  502 -0.00000000000E+00 -0.00000000000E+00 -0.26507401248E+04  0.26507401248E+04  0.00000000000E+00 0. -1.
         21    1    1    2  503  506 -0.31985709956E+02  0.11093577810E+03 -0.36081644413E+03  0.37883814336E+03  0.00000000000E+00 0. -1.
         21    1    1    2  504  502  0.22145091236E+02 -0.24863819785E+02 -0.16033740725E+04  0.16037197483E+04  0.00000000000E+00 0. -1.
         21    1    1    2  505  503  0.98010640809E+02 -0.62721297279E+02 -0.60785543415E+03  0.61889278204E+03  0.00000000000E+00 0. -1.
         21    1    1    2  506  501 -0.88170022089E+02 -0.23350661036E+02 -0.31490755624E+02  0.96492869456E+02  0.00000000000E+00 0. -1.
<scales pt_clust_3="14000.00000" pt_clust_4="33.29586" pt_clust_5="112.31189" pt_clust_6="90.30876"></scales>
<clustering>
<clus scale="   33.296">  2  4  1 -1</clus>
<clus scale="   90.309">  1  6  2 -1</clus>
<clus scale="  112.312">  2  5  1 -1</clus>
<clus scale="   90.309">  1  3  2 -1</clus>
</clustering>
</event>
<event>
 6    0  0.5563122E+002  0.9053061E+02  0.7546771E-02  0.1301572E+00
         21   -1    0    0  504  501  0.00000000000E+00  0.00000000000E+00  0.17723099162E+04  0.17723099162E+04  0.00000000000E+00 0. -1.
         21   -1    0    0  506  502 -0.00000000000E+00 -0.00000000000E+00 -0.23444978512E+02  0.23444978512E+02  0.00000000000E+00 0. -1.
         21    1    1    2  503  502  0.78174183781E+02 -0.26307614868E+01  0.10776882862E+03  0.13316247346E+03  0.00000000000E+00 0. -1.
         21    1    1    2  504  503  0.31605906599E+01 -0.48895653995E+02  0.72925880254E+03  0.73090298631E+03  0.00000000000E+00 0. -1.
         21    1    1    2  505  501 -0.85656616557E+02 -0.16190636151E+02  0.76478076028E+03  0.76973294327E+03  0.00000000000E+00 0. -1.
         21    1    1    2  506  505  0.43218421158E+01  0.67717051633E+02  0.14705654625E+03  0.16195649168E+03  0.00000000000E+00 0. -1.
<scales pt_clust_3="90.53061" pt_clust_4="48.99770" pt_clust_5="14000.00000" pt_clust_6="60.65791"></scales>
<clustering>
<clus scale="   48.998">  1  4  2 -1</clus>
<clus scale="   60.658">  2  6  1 -1</clus>
<clus scale="   90.531">  2  3  1 -1</clus>
<clus scale="   48.998">  1  3  2 -1</clus>
</clustering>
</event>
<event>
 6    0  0.5563122E+002  0.1341460E+03  0.7546771E-02  0.1221430E+00
         21   -1    0    0  506  501  0.00000000000E+00  0.00000000000E+00  0.32148860963E+03  0.32148860963E+03  0.00000000000E+00 0. -1.
         21   -1    0    0  504  502 -0.00000000000E+00 -0.00000000000E+00 -0.56184312148E+03  0.56184312148E+03  0.00000000000E+00 0. -1.
         21    1    1    2  503  501  0.41574946842E+02  0.70941072810E+02 -0.16348178169E+02  0.83835403893E+02  0.00000000000E+00 0. -1.
         21    1    1    2  504  503 -0.97412663116E+00 -0.41660277579E+02 -0.39603097358E+02  0.57488546433E+02  0.00000000000E+00 0. -1.
         21    1    1    2  505  502 -0.11575555507E+03  0.10236039963E+03 -0.42803285088E+03  0.45507045759E+03  0.00000000000E+00 0. -1.
         21    1    1    2  506  505  0.75154734861E+02 -0.13164119486E+03  0.24362961455E+03  0.28693732319E+03  0.00000000000E+00 0. -1.
<scales pt_clust_3="78.69508" pt_clust_4="41.67166" pt_clust_5="14000.00000" pt_clust_6="134.14600"></scales>
<clustering>
<clus scale="   41.672">  2  4  1 -1</clus>
<clus scale="   78.695">  1  3  2 -1</clus>
<clus scale="  134.146">  1  6  2 -1</clus>
<clus scale="   78.695">  1  3  2 -1</clus>
</clustering>
</event>
<event>
 6    0  0.5563122E+002  0.8872309E+02  0.7546771E-02  0.1305974E+00
         21   -1    0    0  504  501  0.00000000000E+00  0.00000000000E+00  0.12547236252E+04  0.12547236252E+04  0.00000000000E+00 0.  1.
         21   -1    0    0  503  502 -0.00000000000E+00 -0.00000000000E+00 -0.10722251416E+03  0.10722251416E+03  0.00000000000E+00 0.  1.
         21    1    1    2  503  505 -0.28557675306E+02 -0.57159991613E+02 -0.34147481226E+02  0.72448988497E+02  0.00000000000E+00 0.  1.
         21    1    1    2  504  506  0.19569267154E+02  0.61549726759E+02  0.11199534944E+04  0.11218142247E+04  0.00000000000E+00 0.  1.
         21    1    1    2  505  501  0.26507210186E+02 -0.65260270905E+02 -0.10968708134E+02  0.71287079535E+02  0.00000000000E+00 0.  1.
         21    1    1    2  506  502 -0.17518802033E+02  0.60870535760E+02  0.72663806015E+02  0.96395846659E+02  0.00000000000E+00 0.  1.
<scales pt_clust_3="57.41269" pt_clust_4="65.10089" pt_clust_5="57.41269" pt_clust_6="63.34138"></scales>
<clustering>
<clus scale="   57.413">  3  5 -1 -1</clus>
<clus scale="   63.341">  2  6  1 -1</clus>
<clus scale="   65.101">  1  4  2 -1</clus>
<clus scale="   65.101">  1  3  2 -1</clus>
</clustering>
</event>
<event>
 6    0  0.5563122E+002  0.1182338E+03  0.7546771E-02  0.1246040E+00
         21   -1    0    0  505  501  0.00000000000E+00  0.00000000000E+00  0.57623432671E+03  0.57623432671E+03  0.00000000000E+00 0. -1.
         21   -1    0    0  506  502 -0.00000000000E+00 -0.00000000000E+00 -0.53941200015E+02  0.53941200015E+02  0.00000000000E+00 0. -1.
         21    1    1    2  503  502 -0.54663481997E+02  0.79386924121E+01  0.49408934309E+02  0.74110470858E+02  0.00000000000E+00 0. -1.
         21    1    1    2  504  501 -0.44329851116E+02  0.10310472524E+03  0.21475279028E+03  0.24231071169E+03  0.00000000000E+00 0. -1.
         21    1    1    2  505  503  0.62321839146E+02 -0.10862031086E+03  0.24422489951E+03  0.27445980599E+03  0.00000000000E+00 0. -1.
         21    1    1    2  506  504  0.36671493968E+02 -0.24231067876E+01  0.13906502596E+02  0.39294538180E+02  0.00000000000E+00 0.  1.
<scales pt_clust_3="44.27436" pt_clust_4="118.23375" pt_clust_5="14000.00000" pt_clust_6="36.75146"></scales>
<clustering>
<clus scale="   36.751">  2  6  1 -1</clus>
<clus scale="   44.274">  2  3  1 -1</clus>
<clus scale="  118.234">  1  4  2 -1</clus>
<clus scale="  118.234">  1  3  2 -1</clus>
</clustering>
</event>
<event>
 6    0  0.5563122E+002  0.8981534E+02  0.7546771E-02  0.1303299E+00
         21   -1    0    0  504  501  0.00000000000E+00  0.00000000000E+00  0.42251141284E+03  0.42251141284E+03  0.00000000000E+00 0. -1.
         21   -1    0    0  505  502 -0.00000000000E+00 -0.00000000000E+00 -0.46480146267E+03  0.46480146267E+03  0.00000000000E+00 0.  1.
         21    1    1    2  503  501 -0.56222790642E+02 -0.48341374911E+02 -0.15360817605E+03  0.17056776502E+03  0.00000000000E+00 0.  1.
         21    1    1    2  504  506  0.68860155248E+02  0.38813963883E+02  0.37715186241E+03  0.38534630151E+03  0.00000000000E+00 0. -1.
         21    1    1    2  505  503 -0.55368420019E+02 -0.38968963640E+02 -0.25747004649E+03  0.26622371589E+03  0.00000000000E+00 0.  1.
         21    1    1    2  506  502  0.42731055412E+02  0.48496374668E+02 -0.83636896928E+01  0.65175093079E+02  0.00000000000E+00 0. -1.
<scales pt_clust_3="39.69749" pt_clust_4="79.63037" pt_clust_5="39.69749" pt_clust_6="64.63622"></scales>
<clustering>
<clus scale="   39.697">  3  5 -1 -1</clus>
<clus scale="   64.636">  2  6  1 -1</clus>
<clus scale="   79.630">  1  4  2 -1</clus>
<clus scale="   79.630">  1  3  2 -1</clus>
</clustering>
</event>
<event>
 6    0  0.5563122E+002  0.1053645E+03  0.7546771E-02  0.1269403E+00
         21   -1    0    0  505  501  0.00000000000E+00  0.00000000000E+00  0.92714098118E+02  0.92714098118E+02  0.00000000000E+00 0.  1.
         21   -1    0    0  506  502 -0.00000000000E+00 -0.00000000000E+00 -0.10827462351E+04  0.10827462351E+04  0.00000000000E+00 0.  1.
         21    1    1    2  503  504 -0.59547240933E+02 -0.46237243324E+02  0.30964731229E+02  0.81501970240E+02  0.00000000000E+00 0.  1.
         21    1    1    2  504  501  0.10689031556E+02  0.28171903009E+02  0.45029650610E+01  0.30466181400E+02  0.00000000000E+00 0. -1.
         21    1    1    2  505  502  0.11282593558E+03  0.18516955070E+02 -0.97582514042E+03  0.98250052113E+03  0.00000000000E+00 0.  1.
         21    1    1    2  506  503 -0.63967726198E+02 -0.45161475572E+00 -0.49674692857E+02  0.80991660443E+02  0.00000000000E+00 0.  1.
<scales pt_clust_3="57.37715" pt_clust_4="30.13157" pt_clust_5="14000.00000" pt_clust_6="105.36446"></scales>
<clustering>
<clus scale="   30.132">  1  4  2 -1</clus>
<clus scale="   57.377">  1  3  2 -1</clus>
<clus scale="  105.364">  1  6  2 -1</clus>
<clus scale="   30.132">  1  3  2 -1</clus>
</clustering>
</event>
<event>
 6    0  0.5563122E+002  0.1173610E+03  0.7546771E-02  0.1247515E+00
         21   -1    0    0  506  501  0.00000000000E+00  0.00000000000E+00  0.39301598003E+03  0.39301598003E+03  0.00000000000E+00 0. -1.
         21   -1    0    0  504  502 -0.00000000000E+00 -0.00000000000E+00 -0.59077607233E+02  0.59077607233E+02  0.00000000000E+00 0. -1.
         21    1    1    2  503  501  0.45797343395E+02  0.35763819078E+01  0.70302374536E+02  0.83979825166E+02  0.00000000000E+00 0. -1.
         21    1    1    2  504  505 -0.39160388910E+02 -0.22755166283E+02  0.32659812537E+02  0.55839027634E+02  0.00000000000E+00 0.  1.
         21    1    1    2  505  503  0.69490070694E+02 -0.32156668306E+02  0.20194825961E+03  0.21597689877E+03  0.00000000000E+00 0. -1.
         21    1    1    2  506  502 -0.76127025179E+02  0.51335452681E+02  0.29027926111E+02  0.96297835692E+02  0.00000000000E+00 0. -1.
<scales pt_clust_3="32.36123" pt_clust_4="45.29165" pt_clust_5="32.36123" pt_clust_6="109.67221"></scales>
<clustering>
<clus scale="   32.361">  3  5 -1 -1</clus>
<clus scale="   45.292">  2  4  1 -1</clus>
<clus scale="  109.672">  2  6  1 -1</clus>
<clus scale="  117.361">  1  3  2 -1</clus>
</clustering>
</event>
<event>
 6    0  0.5563122E+002  0.1165252E+03  0.7546771E-02  0.1248942E+00
         21   -1    0    0  506  501  0.00000000000E+00  0.00000000000E+00  0.68277885423E+03  0.68277885423E+03  0.00000000000E+00 0.  1.
         21   -1    0    0  501  502 -0.00000000000E+00 -0.00000000000E+00 -0.16416017965E+03  0.16416017965E+03  0.00000000000E+00 0.  1.
         21    1    1    2  503  502  0.24605905373E+02 -0.58101963803E+02 -0.10328069755E+03  0.12102971232E+03  0.00000000000E+00 0.  1.
         21    1    1    2  504  505  0.56623900857E+02 -0.11212853888E+03  0.24659844075E+03  0.27674874230E+03  0.00000000000E+00 0. -1.
         21    1    1    2  505  503 -0.10306596203E+03  0.51651523079E+02  0.11778024772E+03  0.16481097997E+03  0.00000000000E+00 0.  1.
         21    1    1    2  506  504  0.21836155801E+02  0.11857897961E+03  0.25752068366E+03  0.28434959929E+03  0.00000000000E+00 0.  1.
<scales pt_clust_3="63.09745" pt_clust_4="14000.00000" pt_clust_5="95.37835" pt_clust_6="116.52520"></scales>
<clustering>
<clus scale="   63.097">  2  3  1 -1</clus>
<clus scale="   95.378">  2  5  1 -1</clus>
<clus scale="  116.525">  1  6  2 -1</clus>
<clus scale="  116.525">  1  3  2 -1</clus>
</clustering>
</event>
<event>
 6    0  0.5563122E+002  0.1510068E+03  0.7546771E-02  0.1199241E+00
         21   -1    0    0  504  501  0.00000000000E+00  0.00000000000E+00  0.15993611370E+03  0.15993611370E+03  0.00000000000E+00 0. -1.
         21   -1    0    0  506  502 -0.00000000000E+00 -0.00000000000E+00 -0.94716474212E+03  0.94716474212E+03  0.00000000000E+00 0. -1.
         21    1    1    2  503  502  0.13769749625E+03  0.53845699780E+02 -0.64351032599E+03  0.66027683551E+03  0.00000000000E+00 0. -1.
         21    1    1    2  504  505 -0.83995844829E-01 -0.53175885401E+02  0.95652621095E+02  0.10943996421E+03  0.00000000000E+00 0. -1.
         21    1    1    2  505  503  0.15671295737E+02  0.63134903197E+02 -0.10621148734E+03  0.12454912908E+03  0.00000000000E+00 0. -1.
         21    1    1    2  506  501 -0.15328479614E+03 -0.63804717576E+02 -0.13315943619E+03  0.21283492702E+03  0.00000000000E+00 0. -1.
<scales pt_clust_3="14000.00000" pt_clust_4="53.17595" pt_clust_5="56.83858" pt_clust_6="151.00675"></scales>
<clustering>
<clus scale="   53.176">  1  4  2 -1</clus>
<clus scale="   56.839">  1  5  2 -1</clus>
<clus scale="  151.007">  1  6  2 -1</clus>
<clus scale="   53.176">  1  3  2 -1</clus>
</clustering>
</event>
<event>
 6    0  0.5563122E+002  0.9834889E+02  0.7546771E-02  0.1283807E+00
         21   -1    0    0  505  501  0.00000000000E+00  0.00000000000E+00  0.10073379698E+04  0.10073379698E+04  0.00000000000E+00 0. -1.
         21   -1    0    0  506  502 -0.00000000000E+00 -0.00000000000E+00 -0.44464405662E+03  0.44464405662E+03  0.00000000000E+00 0. -1.
         21    1    1    2  503  501 -0.83539626158E+01 -0.10507137478E+03  0.19894903385E+03  0.22514550975E+03  0.00000000000E+00 0. -1.
         21    1    1    2  504  502 -0.12342978198E+02 -0.69244733421E+02 -0.40241420665E+03  0.40851484175E+03  0.00000000000E+00 0. -1.
         21    1    1    2  505  504 -0.40052275205E+02  0.90683886572E+02  0.66950737936E+03  0.67680712397E+03  0.00000000000E+00 0. -1.
         21    1    1    2  506  503  0.60749216019E+02  0.83632221625E+02  0.96651706601E+02  0.14151455095E+03  0.00000000000E+00 0. -1.
<scales pt_clust_3="98.34889" pt_clust_4="70.33621" pt_clust_5="14000.00000" pt_clust_6="69.40259"></scales>
<clustering>
<clus scale="   70.336">  2  4  1 -1</clus>
<clus scale="   69.403">  2  6  1 -1</clus>
<clus scale="   98.349">  2  3  1 -1</clus>
<clus scale="   98.349">  1  3  2 -1</clus>
</clustering>
</event>
<event>
 6    0  0.5563122E+002  0.1277080E+03  0.7546771E-02  0.1230897E+00
         21   -1    0    0  505  501  0.00000000000E+00  0.00000000000E+00  0.82905252024E+02  0.82905252024E+02  0.00000000000E+00 0.  1.
         21   -1    0    0  506  502 -0.00000000000E+00 -0.00000000000E+00 -0.58478465698E+03  0.58478465698E+03  0.00000000000E+00 0.  1.
         21    1    1    2  503  504  0.10143951781E+03  0.11946118484E+02 -0.10940829415E+03  0.14967585092E+03  0.00000000000E+00 0.  1.
         21    1    1    2  504  502  0.83160680187E+02  0.44296809334E+02 -0.82176980194E+02  0.12502384621E+03  0.00000000000E+00 0.  1.
         21    1    1    2  505  503 -0.88869024106E+02 -0.44243532603E+02 -0.41848704636E+02  0.10773350316E+03  0.00000000000E+00 0.  1.
         21    1    1    2  506  501 -0.95731173894E+02 -0.11999395215E+02 -0.26844542598E+03  0.28525670872E+03  0.00000000000E+00 0.  1.
<scales pt_clust_3="37.37783" pt_clust_4="37.37783" pt_clust_5="121.63399" pt_clust_6="96.48027"></scales>
<clustering>
<clus scale="   37.378">  3  4 -1 -1</clus>
<clus scale="   96.480">  2  6  1 -1</clus>
<clus scale="  121.634">  1  5  2 -1</clus>
<clus scale="  121.634">  1  3  2 -1</clus>
</clustering>
</event>
<event>
 6    0  0.5563122E+002  0.1055149E+03  0.7546771E-02  0.1269108E+00
         21   -1    0    0  505  501  0.00000000000E+00  0.00000000000E+00  0.23541562523E+03  0.23541562523E+03  0.00000000000E+00 0. -1.
         21   -1    0    0  506  502 -0.00000000000E+00 -0.00000000000E+00 -0.25708093628E+03  0.25708093628E+03  0.00000000000E+00 0.  1.
         21    1    1    2  503  504  0.36214165151E+02  0.34539754866E+02 -0.71620558858E+02  0.87372563628E+02  0.00000000000E+00 0.  1.
         21    1    1    2  504  501 -0.47359040125E+02 -0.82060581826E+02  0.19383688795E+03  0.21575346324E+03  0.00000000000E+00 0. -1.
         21    1    1    2  505  502 -0.12064119811E+01 -0.36882120863E+02 -0.33252758970E+02  0.49673858803E+02  0.00000000000E+00 0. -1.
         21    1    1    2  506  503  0.12351286955E+02  0.84402947823E+02 -0.11062888117E+03  0.13969667583E+03  0.00000000000E+00 0.  1.
<scales pt_clust_3="32.85204" pt_clust_4="96.40425" pt_clust_5="36.90185" pt_clust_6="32.85204"></scales>
<clustering>
<clus scale="   32.852">  3  6 -1 -1</clus>
<clus scale="   36.902">  2  5  1 -1</clus>
<clus scale="   96.404">  1  4  2 -1</clus>
<clus scale="   96.404">  1  3  2 -1</clus>
</clustering>
</event>
<event>
 6    0  0.5563122E+002  0.8772800E+02  0.7546771E-02  0.1308449E+00
         21   -1    0    0  503  501  0.00000000000E+00  0.00000000000E+00  0.60814450406E+03  0.60814450406E+03  0.00000000000E+00 0.  1.
         21   -1    0    0  506  502 -0.00000000000E+00 -0.00000000000E+00 -0.60925167948E+03  0.60925167948E+03  0.00000000000E+00 0.  1.
         21    1    1    2  503  502 -0.32898868694E+02 -0.23550452115E+02  0.80331965117E+01  0.41249140626E+02  0.00000000000E+00 0. -1.
         21    1    1    2  504  501  0.40793609736E+01  0.71195934414E+02  0.56497536140E+03  0.56945821730E+03  0.00000000000E+00 0.  1.
         21    1    1    2  505  504 -0.22715745503E+02 -0.10924452167E+03 -0.27002543808E+03  0.29217136721E+03  0.00000000000E+00 0.  1.
         21    1    1    2  506  505  0.51535253224E+02  0.61599039367E+02 -0.30409029526E+03  0.31451745841E+03  0.00000000000E+00 0.  1.
<scales pt_clust_3="40.45935" pt_clust_4="55.78209" pt_clust_5="14000.00000" pt_clust_6="87.72800"></scales>
<clustering>
<clus scale="   40.459">  1  3  2 -1</clus>
<clus scale="   55.782">  1  4  2 -1</clus>
<clus scale="   87.728">  2  6  1 -1</clus>
<clus scale="   40.459">  1  3  2 -1</clus>
</clustering>
</event>
<event>
 6    0  0.5563122E+002  0.1893961E+03  0.7546771E-02  0.1159007E+00
         21   -1    0    0  505  501  0.00000000000E+00  0.00000000000E+00  0.10507608770E+03  0.10507608770E+03  0.00000000000E+00 0. -1.
         21   -1    0    0  503  502 -0.00000000000E+00 -0.00000000000E+00 -0.16109051313E+04  0.16109051313E+04  0.00000000000E+00 0. -1.
         21    1    1    2  503  506 -0.65795065050E+02  0.70879304550E+02 -0.66780362875E+02  0.11752652154E+03  0.00000000000E+00 0. -1.
         21    1    1    2  504  502  0.11877310320E+03 -0.12970000199E+03 -0.13418013617E+04  0.13532775158E+04  0.00000000000E+00 0. -1.
         21    1    1    2  505  504  0.42178960973E+02  0.18543658224E+02  0.48253477819E+02  0.66718289326E+02  0.00000000000E+00 0. -1.
         21    1    1    2  506  501 -0.95156999118E+02  0.40277039214E+02 -0.14550079686E+03  0.17845889234E+03  0.00000000000E+00 0. -1.
<scales pt_clust_3="64.92605" pt_clust_4="177.73040" pt_clust_5="46.07529" pt_clust_6="64.92605"></scales>
<clustering>
<clus scale="   46.075">  1  5  2 -1</clus>
<clus scale="   64.926">  3  6 -1 -1</clus>
<clus scale="  177.730">  2  4  1 -1</clus>
<clus scale="   46.075">  1  3  2 -1</clus>
</clustering>
</event>
<event>
 6    0  0.5563122E+002  0.1402011E+03  0.7546771E-02  0.1213059E+00
         21   -1    0    0  502  501  0.00000000000E+00  0.00000000000E+00  0.10145878762E+03  0.10145878762E+03  0.00000000000E+00 0.  1.
         21   -1    0    0  506  502 -0.00000000000E+00 -0.00000000000E+00 -0.14732335324E+04  0.14732335324E+04  0.00000000000E+00 0. -1.
         21    1    1    2  503  505  0.11043086200E+03 -0.75907706753E+02 -0.22036572064E+03  0.25791084906E+03  0.00000000000E+00 0.  1.
         21    1    1    2  504  503 -0.63139287843E+02 -0.25297152086E+02 -0.26159345303E+03  0.27029178722E+03  0.00000000000E+00 0.  1.
         21    1    1    2  505  501 -0.49136228969E+02  0.13972253162E+03  0.75433583138E+01  0.14830258627E+03  0.00000000000E+00 0.  1.
         21    1    1    2  506  504  0.18446548166E+01 -0.38517672782E+02 -0.89735892939E+03  0.89818709745E+03  0.00000000000E+00 0. -1.
<scales pt_clust_3="14000.00000" pt_clust_4="75.74334" pt_clust_5="140.20107" pt_clust_6="38.56182"></scales>
<clustering>
<clus scale="   38.562">  2  6  1 -1</clus>
<clus scale="   75.743">  2  4  1 -1</clus>
<clus scale="  140.201">  1  5  2 -1</clus>
<clus scale="  140.201">  1  3  2 -1</clus>
</clustering>
</event>
<event>
 6    0  0.5563122E+002  0.1412016E+03  0.7546771E-02  0.1211721E+00
         21   -1    0    0  505  501  0.00000000000E+00  0.00000000000E+00  0.21293736177E+03  0.21293736177E+03  0.00000000000E+00 0.  1.
         21   -1    0    0  504  502 -0.00000000000E+00 -0.00000000000E+00 -0.30112662295E+03  0.30112662295E+03  0.00000000000E+00 0. -1.
         21    1    1    2  503  506  0.49925121388E+02 -0.18002262037E+03 -0.35702989631E+02  0.19019822570E+03  0.00000000000E+00 0.  1.
         21    1    1    2  504  501  0.53012132251E+02  0.86148645630E+02 -0.41820200049E+01  0.10123914560E+03  0.00000000000E+00 0. -1.
         21    1    1    2  505  503 -0.67528158488E+02  0.10467547267E+03  0.36741560119E+02  0.12987281858E+03  0.00000000000E+00 0.  1.
         21    1    1    2  506  502 -0.35409095152E+02 -0.10801497931E+02 -0.85045811663E+02  0.92753794847E+02  0.00000000000E+00 0.  1.
<scales pt_clust_3="141.20165" pt_clust_4="94.45502" pt_clust_5="14000.00000" pt_clust_6="37.01995"></scales>
<clustering>
<clus scale="   37.020">  2  6  1 -1</clus>
<clus scale="   94.455">  2  4  1 -1</clus>
<clus scale="  141.202">  2  3  1 -1</clus>
<clus scale="  141.202">  1  3  2 -1</clus>
</clustering>
</event>
<event>
 6    0  0.5563122E+002  0.8488494E+02  0.7546771E-02  0.1315734E+00
         21   -1    0    0  504  501  0.00000000000E+00  0.00000000000E+00  0.52984920910E+03  0.52984920910E+03  0.00000000000E+00 0.  1.
         21   -1    0    0  505  502 -0.00000000000E+00 -0.00000000000E+00 -0.48741731028E+03  0.48741731028E+03  0.00000000000E+00 0. -1.
         21    1    1    2  503  506 -0.59423451661E+01  0.13301988554E+03  0.33696025154E+02  0.13735000374E+03  0.00000000000E+00 0. -1.
         21    1    1    2  504  502 -0.42416884776E+02 -0.49945791934E+02  0.63861254857E+02  0.91498820309E+02  0.00000000000E+00 0. -1.
         21    1    1    2  505  503  0.38515911283E+02 -0.53252974361E+02 -0.41852999938E+03  0.42365872478E+03  0.00000000000E+00 0. -1.
         21    1    1    2  506  501  0.98433186588E+01 -0.29821119244E+02  0.36340461819E+03  0.36475897055E+03  0.00000000000E+00 0.  1.
<scales pt_clust_3="84.88494" pt_clust_4="14000.00000" pt_clust_5="66.18500" pt_clust_6="31.40366"></scales>
<clustering>
<clus scale="   31.404">  1  6  2 -1</clus>
<clus scale="   66.185">  2  5  1 -1</clus>
<clus scale="   84.885">  2  3  1 -1</clus>
<clus scale="   31.404">  1  3  2 -1</clus>
</clustering>
</event>
<event>
 6    0  0.5563122E+002  0.1183359E+03  0.7546771E-02  0.1245868E+00
         21   -1    0    0  506  501  0.00000000000E+00  0.00000000000E+00  0.17223762408E+03  0.17223762408E+03  0.00000000000E+00 0. -1.
         21   -1    0    0  504  502 -0.00000000000E+00 -0.00000000000E+00 -0.52322064236E+03  0.52322064236E+03  0.00000000000E+00 0.  1.
         21    1    1    2  503  502 -0.14195974309E+02  0.28834110291E+02 -0.17996455050E+03  0.18281184600E+03  0.00000000000E+00 0. -1.
         21    1    1    2  504  501  0.20062225783E+02 -0.71143866534E+02 -0.47971014599E+02  0.88120150308E+02  0.00000000000E+00 0. -1.
         21    1    1    2  505  503  0.24281086702E+02  0.92313734875E+02 -0.25928853525E+03  0.27630045482E+03  0.00000000000E+00 0.  1.
         21    1    1    2  506  505 -0.30147338176E+02 -0.50003978632E+02  0.13624108207E+03  0.14822581530E+03  0.00000000000E+00 0. -1.
<scales pt_clust_3="32.11050" pt_clust_4="104.59954" pt_clust_5="32.11050" pt_clust_6="58.38887"></scales>
<clustering>
<clus scale="   32.110">  3  5 -1 -1</clus>
<clus scale="   58.389">  1  6  2 -1</clus>
<clus scale="  104.600">  1  4  2 -1</clus>
<clus scale="   58.389">  1  3  2 -1</clus>
</clustering>
</event>
<event>
 6    0  0.5563122E+002  0.1960036E+03  0.7546771E-02  0.1153155E+00
         21   -1    0    0  504  501  0.00000000000E+00  0.00000000000E+00  0.48912553940E+03  0.48912553940E+03  0.00000000000E+00 0. -1.
         21   -1    0    0  503  502 -0.00000000000E+00 -0.00000000000E+00 -0.39171953935E+03  0.39171953935E+03  0.00000000000E+00 0. -1.
         21    1    1    2  503  501  0.14329813232E+03  0.10084587735E+03 -0.16475737818E+03  0.24051868820E+03  0.00000000000E+00 0. -1.
         21    1    1    2  504  506 -0.29972018146E+02  0.17952124609E+02  0.28461466897E+03  0.28675095543E+03  0.00000000000E+00 0. -1.
         21    1    1    2  505  502  0.86057683437E+01  0.38383013843E+02 -0.12409616419E+03  0.13018130806E+03  0.00000000000E+00 0. -1.
         21    1    1    2  506  505 -0.12193188252E+03 -0.15718101580E+03  0.10164487345E+03  0.22339412706E+03  0.00000000000E+00 0. -1.
<scales pt_clust_3="196.00357" pt_clust_4="34.93710" pt_clust_5="39.50295" pt_clust_6="14000.00000"></scales>
<clustering>
<clus scale="   34.937">  1  4  2 -1</clus>
<clus scale="   39.503">  2  5  1 -1</clus>
<clus scale="  196.004">  2  3  1 -1</clus>
<clus scale="   34.937">  1  3  2 -1</clus>
</clustering>
</event>
<event>
 6    0  0.5563122E+002  0.8761362E+02  0.7546771E-02  0.1308736E+00
         21   -1    0    0  503  501  0.00000000000E+00  0.00000000000E+00  0.30458750726E+02  0.30458750726E+02  0.00000000000E+00 0.  1.
         21   -1    0    0  506  502 -0.00000000000E+00 -0.00000000000E+00 -0.19058841165E+04  0.19058841165E+04  0.00000000000E+00 0.  1.
         21    1    1    2  503  504 -0.24878160242E+02 -0.26793309572E+02 -0.27294613742E+02  0.45626749108E+02  0.00000000000E+00 0.  1.
         21    1    1    2  504  505 -0.75404870295E+02  0.43685905246E+02 -0.16579819716E+03  0.18730561914E+03  0.00000000000E+00 0.  1.
         21    1    1    2  505  502  0.29257212546E+01 -0.30943989728E+02 -0.14595186597E+04  0.14598495841E+04  0.00000000000E+00 0.  1.
         21    1    1    2  506  501  0.97357309282E+02  0.14051394054E+02 -0.22281389516E+03  0.24356091481E+03  0.00000000000E+00 0.  1.
<scales pt_clust_3="38.29956" pt_clust_4="87.61362" pt_clust_5="31.08199" pt_clust_6="14000.00000"></scales>
<clustering>
<clus scale="   31.082">  2  5  1 -1</clus>
<clus scale="   38.300">  1  3  2 -1</clus>
<clus scale="   87.614">  2  4  1 -1</clus>
<clus scale="   38.300">  1  3  2 -1</clus>
</clustering>
</event>
<event>
 6    0  0.5563122E+002  0.1791306E+03  0.7546771E-02  0.1168647E+00
         21   -1    0    0  504  501  0.00000000000E+00  0.00000000000E+00  0.13277560547E+04  0.13277560547E+04  0.00000000000E+00 0.  1.
         21   -1    0    0  505  502 -0.00000000000E+00 -0.00000000000E+00 -0.85400885577E+02  0.85400885577E+02  0.00000000000E+00 0.  1.
         21    1    1    2  503  502  0.13479413442E+03  0.99242080844E+02  0.32629187514E+02  0.17053771771E+03  0.00000000000E+00 0.  1.
         21    1    1    2  504  503  0.26785261321E+02 -0.35261869322E+02  0.68206654591E+03  0.68350246722E+03  0.00000000000E+00 0.  1.
         21    1    1    2  505  506 -0.66411924367E+02 -0.55906953799E+02  0.20512861986E+03  0.22274173805E+03  0.00000000000E+00 0.  1.
         21    1    1    2  506  501 -0.95167471374E+02 -0.80732577231E+01  0.32253081586E+03  0.33637501732E+03  0.00000000000E+00 0. -1.
<scales pt_clust_3="167.63671" pt_clust_4="44.28148" pt_clust_5="61.98103" pt_clust_6="61.98103"></scales>
<clustering>
<clus scale="   44.281">  1  4  2 -1</clus>
<clus scale="   61.981">  5  6 -1 -1</clus>
<clus scale="  167.637">  2  3  1 -1</clus>
<clus scale="   44.281">  1  3  2 -1</clus>
</clustering>
</event>
<event>
 6    0  0.5563122E+002  0.2272044E+03  0.7546771E-02  0.1128623E+00
         21   -1    0    0  502  501  0.00000000000E+00  0.00000000000E+00  0.34162076969E+03  0.34162076969E+03  0.00000000000E+00 0. -1.
         21   -1    0    0  503  502 -0.00000000000E+00 -0.00000000000E+00 -0.24207514791E+03  0.24207514791E+03  0.00000000000E+00 0. -1.
         21    1    1    2  503  504  0.11384180573E+02 -0.20565949823E+03 -0.91708257477E+02  0.22546803159E+03  0.00000000000E+00 0. -1.
         21    1    1    2  504  505  0.13271651358E+02  0.95038054111E+02  0.43023246320E+02  0.10516353067E+03  0.00000000000E+00 0. -1.
         21    1    1    2  505  506 -0.63706649196E+02  0.13947018626E+03  0.13059688043E+03  0.20141006723E+03  0.00000000000E+00 0. -1.
         21    1    1    2  506  501  0.39050817265E+02 -0.28848742134E+02  0.17633752516E+02  0.51654288104E+02  0.00000000000E+00 0. -1.
<scales pt_clust_3="212.87610" pt_clust_4="66.16945" pt_clust_5="66.16945" pt_clust_6="48.55117"></scales>
<clustering>
<clus scale="   48.551">  1  6  2 -1</clus>
<clus scale="   66.169">  4  5 -1 -1</clus>
<clus scale="  212.876">  2  3  1 -1</clus>
<clus scale="   48.551">  1  3  2 -1</clus>
</clustering>
</event>
<event>
 6    0  0.5563122E+002  0.7128648E+02  0.7546771E-02  0.1355772E+00
         21   -1    0    0  504  501  0.00000000000E+00  0.00000000000E+00  0.17477466619E+03  0.17477466619E+03  0.00000000000E+00 0. -1.
         21   -1    0    0  505  502 -0.00000000000E+00 -0.00000000000E+00 -0.29833530005E+03  0.29833530005E+03  0.00000000000E+00 0. -1.
         21    1    1    2  503  502  0.39777711933E+02 -0.80068431945E+02 -0.10850525168E+03  0.14059377583E+03  0.00000000000E+00 0. -1.
         21    1    1    2  504  503  0.30564433994E+01 -0.51503495991E+02  0.11162178714E+03  0.12296900142E+03  0.00000000000E+00 0. -1.
         21    1    1    2  505  506  0.64848151853E+01  0.57110198795E+02 -0.10168094946E+03  0.11680172566E+03  0.00000000000E+00 0. -1.
         21    1    1    2  506  501 -0.49318970517E+02  0.74461729142E+02 -0.24996219873E+02  0.92745463326E+02  0.00000000000E+00 0. -1.
<scales pt_clust_3="14000.00000" pt_clust_4="51.59411" pt_clust_5="50.80476" pt_clust_6="71.28648"></scales>
<clustering>
<clus scale="   51.594">  1  4  2 -1</clus>
<clus scale="   50.805">  2  5  1 -1</clus>
<clus scale="   71.286">  1  6  2 -1</clus>
<clus scale="   51.594">  1  3  2 -1</clus>
</clustering>
</event>
<event>
 6    0  0.5563122E+002  0.1010062E+03  0.7546771E-02  0.1278194E+00
         21   -1    0    0  506  501  0.00000000000E+00  0.00000000000E+00  0.27165363931E+03  0.27165363931E+03  0.00000000000E+00 0. -1.
         21   -1    0    0  505  502 -0.00000000000E+00 -0.00000000000E+00 -0.10749620017E+04  0.10749620017E+04  0.00000000000E+00 0. -1.
         21    1    1    2  503  502 -0.10686641180E+03 -0.45554022415E+02 -0.82545907159E+03  0.83359359271E+03  0.00000000000E+00 0. -1.
         21    1    1    2  504  501  0.57749260100E+02  0.68642561802E+02 -0.10213115403E+03  0.13593215571E+03  0.00000000000E+00 0. -1.
         21    1    1    2  505  504 -0.50810617985E+02 -0.82149968593E+01 -0.11027781305E+03  0.12169799146E+03  0.00000000000E+00 0. -1.
         21    1    1    2  506  503  0.99927769689E+02 -0.14873542528E+02  0.23455967628E+03  0.25539190113E+03  0.00000000000E+00 0. -1.
<scales pt_clust_3="14000.00000" pt_clust_4="84.96576" pt_clust_5="51.47043" pt_clust_6="101.00622"></scales>
<clustering>
<clus scale="   51.470">  2  5  1 -1</clus>
<clus scale="   84.966">  2  4  1 -1</clus>
<clus scale="  101.006">  1  6  2 -1</clus>
<clus scale="  101.006">  1  3  2 -1</clus>
</clustering>
</event>
<event>
 6    0  0.5563122E+002  0.1627096E+03  0.7546771E-02  0.1185671E+00
         21   -1    0    0  506  501  0.00000000000E+00  0.00000000000E+00  0.12079358151E+03  0.12079358151E+03  0.00000000000E+00 0. -1.
         21   -1    0    0  503  502 -0.00000000000E+00 -0.00000000000E+00 -0.23253704765E+04  0.23253704765E+04  0.00000000000E+00 0. -1.
         21    1    1    2  503  504  0.39015386776E+02 -0.25395421723E+02 -0.21172409237E+04  0.21177526430E+04  0.00000000000E+00 0. -1.
         21    1    1    2  504  505 -0.25225068714E+02  0.79010820961E+02 -0.29633057860E+02  0.88074582251E+02  0.00000000000E+00 0. -1.
         21    1    1    2  505  501  0.29504491930E+02  0.80501256021E+02  0.54320619357E+01  0.85909688405E+02  0.00000000000E+00 0. -1.
         21    1    1    2  506  502 -0.43294809992E+02 -0.13411665526E+03 -0.63134975295E+02  0.15442714430E+03  0.00000000000E+00 0. -1.
<scales pt_clust_3="46.55242" pt_clust_4="60.59704" pt_clust_5="60.59704" pt_clust_6="149.17097"></scales>
<clustering>
<clus scale="   46.552">  2  3  1 -1</clus>
<clus scale="   60.597">  4  5 -1 -1</clus>
<clus scale="  149.171">  2  6  1 -1</clus>
<clus scale="  162.710">  1  3  2 -1</clus>
</clustering>
</event>
<event>
 6    0  0.5563122E+002  0.2014599E+03  0.7546771E-02  0.1148513E+00
         21   -1    0    0  504  501  0.00000000000E+00  0.00000000000E+00  0.71477633565E+03  0.71477633565E+03  0.00000000000E+00 0. -1.
         21   -1    0    0  505  502 -0.00000000000E+00 -0.00000000000E+00 -0.11808175139E+03  0.11808175139E+03  0.00000000000E+00 0. -1.
         21    1    1    2  503  501  0.16689341101E+03  0.14745745670E+03  0.34852857626E+03  0.41360522318E+03  0.00000000000E+00 0. -1.
         21    1    1    2  504  506 -0.32532288179E+02 -0.20388977906E+02  0.11979030894E+03  0.12579260038E+03  0.00000000000E+00 0. -1.
         21    1    1    2  505  503 -0.64728662852E+02 -0.15452686933E+02 -0.41631544007E+02  0.78496947612E+02  0.00000000000E+00 0. -1.
         21    1    1    2  506  502 -0.69632459974E+02 -0.11161579187E+03  0.17000724306E+03  0.21496331587E+03  0.00000000000E+00 0. -1.
<scales pt_clust_3="190.57024" pt_clust_4="35.29733" pt_clust_5="66.54762" pt_clust_6="35.29733"></scales>
<clustering>
<clus scale="   35.297">  4  6 -1 -1</clus>
<clus scale="   66.548">  2  5  1 -1</clus>
<clus scale="  190.570">  2  3  1 -1</clus>
<clus scale="  201.460">  1  3  2 -1</clus>
</clustering>
</event>
<event>
 6    0  0.5563122E+002  0.1061791E+03  0.7546771E-02  0.1267814E+00
         21   -1    0    0  505  501  0.00000000000E+00  0.00000000000E+00  0.55414820593E+03  0.55414820593E+03  0.00000000000E+00 0.  1.
         21   -1    0    0  501  502 -0.00000000000E+00 -0.00000000000E+00 -0.19361980709E+04  0.19361980709E+04  0.00000000000E+00 0.  1.
         21    1    1    2  503  506 -0.49575221706E+02 -0.31301666836E+02  0.20898561418E+02  0.62243448035E+02  0.00000000000E+00 0. -1.
         21    1    1    2  504  503 -0.35451985169E+02 -0.62069205047E+02  0.59080526223E+02  0.92735850923E+02  0.00000000000E+00 0. -1.
         21    1    1    2  505  504  0.68823346425E+02  0.64305567390E+02  0.43144183421E+03  0.44160379902E+03  0.00000000000E+00 0.  1.
         21    1    1    2  506  502  0.16203860450E+02  0.29065304493E+02 -0.18934707869E+04  0.18937631789E+04  0.00000000000E+00 0.  1.
<scales pt_clust_3="35.98338" pt_clust_4="35.98338" pt_clust_5="97.97867" pt_clust_6="33.27697"></scales>
<clustering>
<clus scale="   33.277">  2  6  1 -1</clus>
<clus scale="   35.983">  3  4 -1 -1</clus>
<clus scale="   97.979">  1  5  2 -1</clus>
<clus scale="   97.979">  1  3  2 -1</clus>
</clustering>
</event>
<event>
 6    0  0.5563122E+002  0.8360774E+02  0.7546771E-02  0.1319114E+00
         21   -1    0    0  505  501  0.00000000000E+00  0.00000000000E+00  0.19803193027E+03  0.19803193027E+03  0.00000000000E+00 0.  1.
         21   -1    0    0  503  502 -0.00000000000E+00 -0.00000000000E+00 -0.28693522704E+03  0.28693522704E+03  0.00000000000E+00 0.  1.
         21    1    1    2  503  506 -0.12019206078E+02  0.34206213006E+02 -0.21537208359E+03  0.21840251993E+03  0.00000000000E+00 0.  1.
         21    1    1    2  504  502  0.37209127660E+02  0.55962472335E+02  0.36058767515E+02  0.76266324192E+02  0.00000000000E+00 0.  1.
         21    1    1    2  505  504  0.56337076364E+02 -0.21972851971E+02  0.41190163865E+02  0.73166262691E+02  0.00000000000E+00 0.  1.
         21    1    1    2  506  501 -0.81526997946E+02 -0.68195833371E+02  0.49219855443E+02  0.11713205049E+03  0.00000000000E+00 0.  1.
<scales pt_clust_3="36.25640" pt_clust_4="83.60774" pt_clust_5="55.43421" pt_clust_6="14000.00000"></scales>
<clustering>
<clus scale="   36.256">  2  3  1 -1</clus>
<clus scale="   55.434">  1  5  2 -1</clus>
<clus scale="   83.608">  2  4  1 -1</clus>
<clus scale="   55.434">  1  3  2 -1</clus>
</clustering>
</event>
<event>
 6    0  0.5563122E+002  0.8923639E+02  0.7546771E-02  0.1304711E+00
         21   -1    0    0  504  501  0.00000000000E+00  0.00000000000E+00  0.46129860164E+03  0.46129860164E+03  0.00000000000E+00 0.  1.
         21   -1    0    0  506  502 -0.00000000000E+00 -0.00000000000E+00 -0.12021277594E+03  0.12021277594E+03  0.00000000000E+00 0.  1.
         21    1    1    2  503  501 -0.23623118512E+02 -0.74023605841E+02  0.13987217128E+03  0.16000553193E+03  0.00000000000E+00 0.  1.
         21    1    1    2  504  505 -0.42011505394E+02  0.42394401035E+02  0.12263790906E+03  0.13639028031E+03  0.00000000000E+00 0.  1.
         21    1    1    2  505  502  0.28037354307E+02  0.11187594898E+03  0.13691420425E+03  0.17901905072E+03  0.00000000000E+00 0.  1.
         21    1    1    2  506  503  0.37597269599E+02 -0.80246744169E+02 -0.58338458876E+02  0.10609651462E+03  0.00000000000E+00 0.  1.
<scales pt_clust_3="69.46701" pt_clust_4="59.68460" pt_clust_5="89.23639" pt_clust_6="14000.00000"></scales>
<clustering>
<clus scale="   59.685">  1  4  2 -1</clus>
<clus scale="   69.467">  1  3  2 -1</clus>
<clus scale="   89.236">  1  5  2 -1</clus>
<clus scale="   59.685">  1  3  2 -1</clus>
</clustering>
</event>
<event>
 6    0  0.5563122E+002  0.9335404E+02  0.7546771E-02  0.1294927E+00
         21   -1    0    0  505  501  0.00000000000E+00  0.00000000000E+00  0.13804048844E+03  0.13804048844E+03  0.00000000000E+00 0. -1.
         21   -1    0    0  504  502 -0.00000000000E+00 -0.00000000000E+00 -0.42295072428E+03  0.42295072428E+03  0.00000000000E+00 0. -1.
         21    1    1    2  503  501 -0.83635572955E+02 -0.14607784029E+02  0.23059176202E+02  0.87977394965E+02  0.00000000000E+00 0. -1.
         21    1    1    2  504  503  0.10412419142E+03  0.47254331962E+02  0.11912534720E+02  0.11496402747E+03  0.00000000000E+00 0. -1.
         21    1    1    2  505  506  0.42919192601E+02 -0.32167115820E+02 -0.30291306791E+02  0.61598244300E+02  0.00000000000E+00 0.  1.
         21    1    1    2  506  502 -0.63407811069E+02 -0.47943211296E+00 -0.28959063997E+03  0.29645154599E+03  0.00000000000E+00 0. -1.
<scales pt_clust_3="93.35404" pt_clust_4="14000.00000" pt_clust_5="53.63563" pt_clust_6="62.22013"></scales>
<clustering>
<clus scale="   53.636">  1  5  2 -1</clus>
<clus scale="   62.220">  2  6  1 -1</clus>
<clus scale="   93.354">  1  3  2 -1</clus>
<clus scale="   53.636">  1  3  2 -1</clus>
</clustering>
</event>
<event>
 6    0  0.5563122E+002  0.1160011E+03  0.7546771E-02  0.1249844E+00
         21   -1    0    0  504  501  0.00000000000E+00  0.00000000000E+00  0.13080899620E+03  0.13080899620E+03  0.00000000000E+00 0. -1.
         21   -1    0    0  503  502 -0.00000000000E+00 -0.00000000000E+00 -0.17792067324E+03  0.17792067324E+03  0.00000000000E+00 0.  1.
         21    1    1    2  503  505  0.38418413789E+02 -0.36754911133E+02 -0.14213611605E+02  0.55035668119E+02  0.00000000000E+00 0. -1.
         21    1    1    2  504  506 -0.58413529928E+02  0.76013371908E+02  0.11782391275E+02  0.96586737866E+02  0.00000000000E+00 0.  1.
         21    1    1    2  505  501  0.45865367317E+02 -0.63424943136E+02  0.22266205569E+02  0.81376527583E+02  0.00000000000E+00 0. -1.
         21    1    1    2  506  502 -0.25870251178E+02  0.24166482362E+02 -0.66946662281E+02  0.75730735876E+02  0.00000000000E+00 0.  1.
<scales pt_clust_3="30.87889" pt_clust_4="109.78418" pt_clust_5="30.87889" pt_clust_6="35.40182"></scales>
<clustering>
<clus scale="   30.879">  3  5 -1 -1</clus>
<clus scale="   35.402">  2  6  1 -1</clus>
<clus scale="  109.784">  1  4  2 -1</clus>
<clus scale="  109.784">  1  3  2 -1</clus>
</clustering>
</event>
<event>
 6    0  0.5563122E+002  0.1030662E+03  0.7546771E-02  0.1273977E+00
         21   -1    0    0  503  501  0.00000000000E+00  0.00000000000E+00  0.91608455402E+03  0.91608455402E+03  0.00000000000E+00 0.  1.
         21   -1    0    0  506  502 -0.00000000000E+00 -0.00000000000E+00 -0.27629804747E+02  0.27629804747E+02  0.00000000000E+00 0.  1.
         21    1    1    2  503  504 -0.32997939250E+01  0.97094753681E+02  0.40486597350E+03  0.41635890327E+03  0.00000000000E+00 0.  1.
         21    1    1    2  504  502  0.30436318923E+02  0.23721079652E+02  0.43065130295E+02  0.57824428893E+02  0.00000000000E+00 0. -1.
         21    1    1    2  505  501  0.18037831152E+02 -0.11375298911E+03  0.28399016657E+03  0.30645639265E+03  0.00000000000E+00 0.  1.
         21    1    1    2  506  505 -0.45174356150E+02 -0.70628442199E+01  0.15653347890E+03  0.16307463395E+03  0.00000000000E+00 0.  1.
<scales pt_clust_3="103.06621" pt_clust_4="38.58833" pt_clust_5="14000.00000" pt_clust_6="40.38812"></scales>
<clustering>
<clus scale="   38.588">  2  4  1 -1</clus>
<clus scale="   40.388">  2  6  1 -1</clus>
<clus scale="  103.066">  1  3  2 -1</clus>
<clus scale="  103.066">  1  3  2 -1</clus>
</clustering>
</event>
<event>
 6    0  0.5563122E+002  0.1691966E+03  0.7546771E-02  0.1178688E+00
         21   -1    0    0  505  501  0.00000000000E+00  0.00000000000E+00  0.98758573369E+02  0.98758573369E+02  0.00000000000E+00 0.  1.
         21   -1    0    0  503  502 -0.00000000000E+00 -0.00000000000E+00 -0.51587636362E+03  0.51587636362E+03  0.00000000000E+00 0.  1.
         21    1    1    2  503  504 -0.15532934370E+02 -0.65200298434E+02 -0.79635592550E+02  0.10408736026E+03  0.00000000000E+00 0.  1.
         21    1    1    2  504  501 -0.87645312700E+02 -0.26429266879E+02 -0.11964368237E+03  0.15064799274E+03  0.00000000000E+00 0.  1.
         21    1    1    2  505  506  0.13318876693E+03  0.79698336456E+02 -0.16613648372E+02  0.15609960212E+03  0.00000000000E+00 0.  1.
         21    1    1    2  506  502 -0.30010519859E+02  0.11931228856E+02 -0.20122486696E+03  0.20379998186E+03  0.00000000000E+00 0.  1.
<scales pt_clust_3="62.91619" pt_clust_4="62.91619" pt_clust_5="149.97120" pt_clust_6="32.29529"></scales>
<clustering>
<clus scale="   32.295">  2  6  1 -1</clus>
<clus scale="   62.916">  3  4 -1 -1</clus>
<clus scale="  149.971">  1  5  2 -1</clus>
<clus scale="  149.971">  1  3  2 -1</clus>
</clustering>
</event>
<event>
 6    0  0.5563122E+002  0.1021512E+03  0.7546771E-02  0.1275836E+00
         21   -1    0    0  503  501  0.00000000000E+00  0.00000000000E+00  0.14521975064E+04  0.14521975064E+04  0.00000000000E+00 0.  1.
         21   -1    0    0  504  502 -0.00000000000E+00 -0.00000000000E+00 -0.72382061172E+02  0.72382061172E+02  0.00000000000E+00 0. -1.
         21    1    1    2  503  505 -0.11315703879E+03 -0.22572621715E+02  0.12389778179E+04  0.12443392110E+04  0.00000000000E+00 0.  1.
         21    1    1    2  504  506  0.32231774448E+02 -0.37791093359E+02  0.66256999458E+02  0.82807270203E+02  0.00000000000E+00 0. -1.
         21    1    1    2  505  502  0.21845876175E+02  0.36357705882E+02 -0.45044503073E+02  0.61871902670E+02  0.00000000000E+00 0. -1.
         21    1    1    2  506  501  0.59079388171E+02  0.24006009192E+02  0.11962513094E+03  0.13556118373E+03  0.00000000000E+00 0. -1.
<scales pt_clust_3="102.15122" pt_clust_4="47.17239" pt_clust_5="42.41609" pt_clust_6="14000.00000"></scales>
<clustering>
<clus scale="   42.416">  2  5  1 -1</clus>
<clus scale="   47.172">  2  4  1 -1</clus>
<clus scale="  102.151">  1  3  2 -1</clus>
<clus scale="  102.151">  1  3  2 -1</clus>
</clustering>
</event>
<event>
 6    0  0.5563122E+002  0.7728360E+02  0.7546771E-02  0.1336942E+00
         21   -1    0    0  505  501  0.00000000000E+00  0.00000000000E+00  0.40385998792E+03  0.40385998792E+03  0.00000000000E+00 0. -1.
         21   -1    0    0  504  502 -0.00000000000E+00 -0.00000000000E+00 -0.15113178281E+03  0.15113178281E+03  0.00000000000E+00 0. -1.
         21    1    1    2  503  501  0.48321675393E+02 -0.11864105020E+02  0.30830497859E+02  0.58534271149E+02  0.00000000000E+00 0. -1.
         21    1    1    2  504  503  0.41035200639E+01  0.77833995260E+02 -0.78778831495E+02  0.11082000716E+03  0.00000000000E+00 0. -1.
         21    1    1    2  505  506  0.37842980113E+02 -0.53196561663E+01  0.26993261133E+03  0.27262429192E+03  0.00000000000E+00 0. -1.
         21    1    1    2  506  502 -0.90268175570E+02 -0.60650234073E+02  0.30743927415E+02  0.11301320050E+03  0.00000000000E+00 0. -1.
<scales pt_clust_3="62.58372" pt_clust_4="14000.00000" pt_clust_5="38.21505" pt_clust_6="77.28360"></scales>
<clustering>
<clus scale="   38.215">  1  5  2 -1</clus>
<clus scale="   62.584">  1  3  2 -1</clus>
<clus scale="   77.284">  1  6  2 -1</clus>
<clus scale="   38.215">  1  3  2 -1</clus>
</clustering>
</event>
<event>
 6    0  0.5563122E+002  0.9366527E+02  0.7546771E-02  0.1294211E+00
         21   -1    0    0  506  501  0.00000000000E+00  0.00000000000E+00  0.25681971637E+04  0.25681971637E+04  0.00000000000E+00 0.  1.
         21   -1    0    0  504  502 -0.00000000000E+00 -0.00000000000E+00 -0.25196146189E+03  0.25196146189E+03  0.00000000000E+00 0.  1.
         21    1    1    2  503  502  0.76146792099E+02 -0.75434552269E+02 -0.14926932880E+02  0.10821977152E+03  0.00000000000E+00 0.  1.
         21    1    1    2  504  505 -0.59564019334E+02 -0.78713763595E+02 -0.14251932847E+03  0.17336518672E+03  0.00000000000E+00 0.  1.
         21    1    1    2  505  501 -0.32204429266E+02  0.76225339884E+02  0.22026690685E+02  0.85630618399E+02  0.00000000000E+00 0.  1.
         21    1    1    2  506  503  0.15621656501E+02  0.77922975980E+02  0.24516552725E+04  0.24529430489E+04  0.00000000000E+00 0.  1.
<scales pt_clust_3="14000.00000" pt_clust_4="89.30560" pt_clust_5="93.66527" pt_clust_6="79.47343"></scales>
<clustering>
<clus scale="   79.473">  1  6  2 -1</clus>
<clus scale="   89.306">  2  4  1 -1</clus>
<clus scale="   93.665">  2  5  1 -1</clus>
<clus scale="   79.473">  1  3  2 -1</clus>
</clustering>
</event>
<event>
 6    0  0.5563122E+002  0.1020417E+03  0.7546771E-02  0.1276060E+00
         21   -1    0    0  506  501  0.00000000000E+00  0.00000000000E+00  0.36590431370E+03  0.36590431370E+03  0.00000000000E+00 0. -1.
         21   -1    0    0  504  502 -0.00000000000E+00 -0.00000000000E+00 -0.14837702562E+03  0.14837702562E+03  0.00000000000E+00 0. -1.
         21    1    1    2  503  502 -0.49238878008E+02 -0.79440582717E+02  0.90664446542E+00  0.93467081339E+02  0.00000000000E+00 0. -1.
         21    1    1    2  504  505  0.10310472051E+03 -0.68723599824E+01  0.56196127063E+02  0.11762575152E+03  0.00000000000E+00 0. -1.
         21    1    1    2  505  501 -0.50723745140E+02 -0.35753349165E+02  0.16973827178E+03  0.18072709040E+03  0.00000000000E+00 0. -1.
         21    1    1    2  506  503 -0.31420973665E+01  0.12206629186E+03 -0.93137552293E+01  0.12246141605E+03  0.00000000000E+00 0. -1.
<scales pt_clust_3="102.04169" pt_clust_4="83.27226" pt_clust_5="62.05804" pt_clust_6="14000.00000"></scales>
<clustering>
<clus scale="   62.058">  1  5  2 -1</clus>
<clus scale="   83.272">  1  4  2 -1</clus>
<clus scale="  102.042">  2  3  1 -1</clus>
<clus scale="   62.058">  1  3  2 -1</clus>
</clustering>
</event>
<event>
 6    0  0.5563122E+002  0.8555449E+02  0.7546771E-02  0.1313989E+00
         21   -1    0    0  505  501  0.00000000000E+00  0.00000000000E+00  0.10637185632E+04  0.10637185632E+04  0.00000000000E+00 0.  1.
         21   -1    0    0  504  502 -0.00000000000E+00 -0.00000000000E+00 -0.39304041634E+02  0.39304041634E+02  0.00000000000E+00 0.  1.
         21    1    1    2  503  501 -0.18902613992E+02 -0.36527950473E+02  0.12073800069E+03  0.12755102819E+03  0.00000000000E+00 0.  1.
         21    1    1    2  504  506 -0.10613368288E+03 -0.21016614875E+02  0.12197845111E+03  0.16304845683E+03  0.00000000000E+00 0.  1.
         21    1    1    2  505  502  0.30236723674E+02  0.39942114831E+02  0.38986387378E+02  0.63478897253E+02  0.00000000000E+00 0.  1.
         21    1    1    2  506  503  0.94799573194E+02  0.17602450516E+02  0.74271168238E+03  0.74894422255E+03  0.00000000000E+00 0.  1.
<scales pt_clust_3="41.12906" pt_clust_4="85.55449" pt_clust_5="47.88757" pt_clust_6="14000.00000"></scales>
<clustering>
<clus scale="   41.129">  1  3  2 -1</clus>
<clus scale="   47.888">  2  5  1 -1</clus>
<clus scale="   85.554">  2  4  1 -1</clus>
<clus scale="   41.129">  1  3  2 -1</clus>
</clustering>
</event>
<event>
 6    0  0.5563122E+002  0.1753534E+03  0.7546771E-02  0.1172377E+00
         21   -1    0    0  506  501  0.00000000000E+00  0.00000000000E+00  0.45593036733E+03  0.45593036733E+03  0.00000000000E+00 0.  1.
         21   -1    0    0  503  502 -0.00000000000E+00 -0.00000000000E+00 -0.11693147345E+03  0.11693147345E+03  0.00000000000E+00 0.  1.
         21    1    1    2  503  505  0.11417223009E+03  0.92062723291E+02  0.29557482199E+02  0.14961446420E+03  0.00000000000E+00 0.  1.
         21    1    1    2  504  502 -0.37072787864E+02 -0.12362665707E+03  0.10967234619E+03  0.16936931675E+03  0.00000000000E+00 0.  1.
         21    1    1    2  505  501 -0.58579712722E+01  0.51668677081E+02  0.13921641385E+02  0.53831033035E+02  0.00000000000E+00 0. -1.
         21    1    1    2  506  504 -0.71241470952E+02 -0.20104743301E+02  0.18584742410E+03  0.20004702680E+03  0.00000000000E+00 0.  1.
<scales pt_clust_3="50.20402" pt_clust_4="153.75267" pt_clust_5="50.20402" pt_clust_6="74.02397"></scales>
<clustering>
<clus scale="   50.204">  3  5 -1 -1</clus>
<clus scale="   74.024">  1  6  2 -1</clus>
<clus scale="  153.753">  1  4  2 -1</clus>
<clus scale="   74.024">  1  3  2 -1</clus>
</clustering>
</event>
<event>
 6    0  0.5563122E+002  0.1393030E+03  0.7546771E-02  0.1214270E+00
         21   -1    0    0  506  501  0.00000000000E+00  0.00000000000E+00  0.70767554743E+03  0.70767554743E+03  0.00000000000E+00 0. -1.
         21   -1    0    0  503  502 -0.00000000000E+00 -0.00000000000E+00 -0.64333425005E+03  0.64333425005E+03  0.00000000000E+00 0. -1.
         21    1    1    2  503  504 -0.86939866305E+02 -0.93874546022E+01 -0.52570582151E+03  0.53292895908E+03  0.00000000000E+00 0. -1.
         21    1    1    2  504  505  0.64250256941E+02 -0.47280694820E+02  0.42346896771E+03  0.43091707582E+03  0.00000000000E+00 0. -1.
         21    1    1    2  505  501  0.57289663033E+02  0.16327346616E+02  0.26698967673E+03  0.27355470242E+03  0.00000000000E+00 0.  1.
         21    1    1    2  506  502 -0.34600053669E+02  0.40340802806E+02 -0.10041152555E+03  0.11360906015E+03  0.00000000000E+00 0. -1.
<scales pt_clust_3="124.85208" pt_clust_4="53.45107" pt_clust_5="53.45107" pt_clust_6="53.14644"></scales>
<clustering>
<clus scale="   53.146">  2  6  1 -1</clus>
<clus scale="   53.451">  4  5 -1 -1</clus>
<clus scale="  124.852">  2  3  1 -1</clus>
<clus scale="  139.303">  1  3  2 -1</clus>
</clustering>
</event>
<event>
 6    0  0.5563122E+002  0.1488060E+03  0.7546771E-02  0.1201948E+00
         21   -1    0    0  505  501  0.00000000000E+00  0.00000000000E+00  0.45668037653E+03  0.45668037653E+03  0.00000000000E+00 0.  1.
         21   -1    0    0  504  502 -0.00000000000E+00 -0.00000000000E+00 -0.84971410212E+03  0.84971410212E+03  0.00000000000E+00 0. -1.
         21    1    1    2  503  501  0.14443020056E+02  0.60224237059E+02  0.31629641152E+03  0.32230262099E+03  0.00000000000E+00 0.  1.
         21    1    1    2  504  506 -0.15187998053E+03  0.28585890884E+01 -0.72635466677E+03  0.74206927032E+03  0.00000000000E+00 0. -1.
         21    1    1    2  505  502  0.19926497630E+02 -0.10966891479E+03 -0.12644809060E+02  0.11217944275E+03  0.00000000000E+00 0.  1.
         21    1    1    2  506  503  0.11751046285E+03  0.46586088647E+02  0.29669338729E+02  0.12984314458E+03  0.00000000000E+00 0.  1.
<scales pt_clust_3="61.93189" pt_clust_4="14000.00000" pt_clust_5="91.38361" pt_clust_6="148.80602"></scales>
<clustering>
<clus scale="   61.932">  1  3  2 -1</clus>
<clus scale="   91.384">  1  5  2 -1</clus>
<clus scale="  148.806">  1  6  2 -1</clus>
<clus scale="   61.932">  1  3  2 -1</clus>
</clustering>
</event>
<event>
 6    0  0.5563122E+002  0.1081022E+03  0.7546771E-02  0.1264125E+00
         21   -1    0    0  506  501  0.00000000000E+00  0.00000000000E+00  0.20013667360E+03  0.20013667360E+03  0.00000000000E+00 0. -1.
         21   -1    0    0  504  502 -0.00000000000E+00 -0.00000000000E+00 -0.77649247540E+03  0.77649247540E+03  0.00000000000E+00 0.  1.
         21    1    1    2  503  502  0.56661206578E+02 -0.92144113250E+02 -0.48147409044E+03  0.49347576405E+03  0.00000000000E+00 0.  1.
         21    1    1    2  504  505 -0.28189196273E+02 -0.24665871394E+02 -0.10195542358E+03  0.10861834282E+03  0.00000000000E+00 0. -1.
         21    1    1    2  505  501 -0.10471706580E+03  0.38825455642E+02 -0.14771450342E+03  0.18518275945E+03  0.00000000000E+00 0. -1.
         21    1    1    2  506  503  0.76245055499E+02  0.77984529002E+02  0.15478821565E+03  0.18935228268E+03  0.00000000000E+00 0. -1.
<scales pt_clust_3="14000.00000" pt_clust_4="37.45712" pt_clust_5="104.78718" pt_clust_6="108.10223"></scales>
<clustering>
<clus scale="   37.457">  2  4  1 -1</clus>
<clus scale="  108.102">  1  6  2 -1</clus>
<clus scale="  104.787">  1  5  2 -1</clus>
<clus scale="  108.102">  1  3  2 -1</clus>
</clustering>
</event>
<event>
 6    0  0.5563122E+002  0.1960486E+03  0.7546771E-02  0.1153116E+00
         21   -1    0    0  505  501  0.00000000000E+00  0.00000000000E+00  0.12957548807E+04  0.12957548807E+04  0.00000000000E+00 0. -1.
         21   -1    0    0  503  502 -0.00000000000E+00 -0.00000000000E+00 -0.66827910117E+02  0.66827910117E+02  0.00000000000E+00 0. -1.
         21    1    1    2  503  501  0.11392934251E+03 -0.12272402439E+03  0.78723764838E+03  0.80485041857E+03  0.00000000000E+00 0. -1.
         21    1    1    2  504  502  0.38481640356E+02  0.49765555621E+01 -0.24063631334E+02  0.45658089127E+02  0.00000000000E+00 0. -1.
         21    1    1    2  505  506 -0.11874604367E+03  0.38133221217E+02  0.30589066963E+03  0.33033901860E+03  0.00000000000E+00 0. -1.
         21    1    1    2  506  504 -0.33664939198E+02  0.79614247611E+02  0.15986228396E+03  0.18173526456E+03  0.00000000000E+00 0. -1.
<scales pt_clust_3="173.88037" pt_clust_4="38.80210" pt_clust_5="78.54677" pt_clust_6="78.54677"></scales>
<clustering>
<clus scale="   38.802">  2  4  1 -1</clus>
<clus scale="   78.547">  5  6 -1 -1</clus>
<clus scale="  173.880">  1  3  2 -1</clus>
<clus scale="  173.880">  1  3  2 -1</clus>
</clustering>
</event>
<event>
 6    0  0.5563122E+002  0.8273746E+02  0.7546771E-02  0.1321458E+00
         21   -1    0    0  505  501  0.00000000000E+00  0.00000000000E+00  0.43413311797E+03  0.43413311797E+03  0.00000000000E+00 0. -1.
         21   -1    0    0  503  502 -0.00000000000E+00 -0.00000000000E+00 -0.47669430967E+03  0.47669430967E+03  0.00000000000E+00 0. -1.
         21    1    1    2  503  506 -0.77879847804E+01 -0.63331757932E+02 -0.11336570412E+03  0.13008976570E+03  0.00000000000E+00 0. -1.
         21    1    1    2  504  502 -0.11338357329E+02  0.53951677917E+02 -0.23601163563E+03  0.24236508422E+03  0.00000000000E+00 0. -1.
         21    1    1    2  505  504  0.79101255361E+02  0.26762551900E+02  0.40964470675E+03  0.41806940639E+03  0.00000000000E+00 0. -1.
         21    1    1    2  506  501 -0.59974913251E+02 -0.17382471885E+02 -0.10282855870E+03  0.12030317133E+03  0.00000000000E+00 0. -1.
<scales pt_clust_3="38.18393" pt_clust_4="55.13023" pt_clust_5="14000.00000" pt_clust_6="82.73746"></scales>
<clustering>
<clus scale="   55.130">  2  4  1 -1</clus>
<clus scale="   38.184">  2  3  1 -1</clus>
<clus scale="   82.737">  2  6  1 -1</clus>
<clus scale="   82.737">  1  3  2 -1</clus>
</clustering>
</event>
<event>
 6    0  0.5563122E+002  0.7455161E+02  0.7546771E-02  0.1345265E+00
         21   -1    0    0  503  501  0.00000000000E+00  0.00000000000E+00  0.14107636022E+03  0.14107636022E+03  0.00000000000E+00 0. -1.
         21   -1    0    0  505  502 -0.00000000000E+00 -0.00000000000E+00 -0.40651709962E+03  0.40651709962E+03  0.00000000000E+00 0. -1.
         21    1    1    2  503  504  0.72232343400E+02 -0.11981706269E+02 -0.70517135644E+02  0.10165500055E+03  0.00000000000E+00 0. -1.
         21    1    1    2  504  502 -0.82068809535E+02  0.19859572025E+02 -0.63381799293E+02  0.10557909159E+03  0.00000000000E+00 0. -1.
         21    1    1    2  505  506  0.38068475625E+02 -0.44732168763E+02 -0.22685767889E+03  0.23433860593E+03  0.00000000000E+00 0. -1.
         21    1    1    2  506  501 -0.28232009490E+02  0.36854303007E+02  0.95315874418E+02  0.10602076177E+03  0.00000000000E+00 0. -1.
<scales pt_clust_3="74.55161" pt_clust_4="14000.00000" pt_clust_5="54.44688" pt_clust_6="46.42506"></scales>
<clustering>
<clus scale="   46.425">  1  6  2 -1</clus>
<clus scale="   54.447">  2  5  1 -1</clus>
<clus scale="   74.552">  1  3  2 -1</clus>
<clus scale="   46.425">  1  3  2 -1</clus>
</clustering>
</event>
<event>
 6    0  0.5563122E+002  0.1288489E+03  0.7546771E-02  0.1229174E+00
         21   -1    0    0  503  501  0.00000000000E+00  0.00000000000E+00  0.85655583026E+03  0.85655583026E+03  0.00000000000E+00 0. -1.
         21   -1    0    0  506  502 -0.00000000000E+00 -0.00000000000E+00 -0.10029296445E+03  0.10029296445E+03  0.00000000000E+00 0. -1.
         21    1    1    2  503  504 -0.34959692955E+02  0.30709537522E+02  0.49777304975E+03  0.49994326166E+03  0.00000000000E+00 0. -1.
         21    1    1    2  504  502 -0.24216468254E+02  0.10333419005E+03  0.18533351139E+03  0.21357177391E+03  0.00000000000E+00 0. -1.
         21    1    1    2  505  501  0.36768257438E+02 -0.64419005275E+00  0.99008341950E+02  0.10561709858E+03  0.00000000000E+00 0.  1.
         21    1    1    2  506  505  0.22407903771E+02 -0.13339953752E+03 -0.25852037282E+02  0.13771666055E+03  0.00000000000E+00 0. -1.
<scales pt_clust_3="32.09862" pt_clust_4="128.84888" pt_clust_5="36.77390" pt_clust_6="14000.00000"></scales>
<clustering>
<clus scale="   36.774">  1  5  2 -1</clus>
<clus scale="   32.099">  1  3  2 -1</clus>
<clus scale="  128.849">  1  4  2 -1</clus>
<clus scale="   36.774">  1  3  2 -1</clus>
</clustering>
</event>
<event>
 6    0  0.5563122E+002  0.1187472E+03  0.7546771E-02  0.1245178E+00
         21   -1    0    0  503  501  0.00000000000E+00  0.00000000000E+00  0.10970275722E+03  0.10970275722E+03  0.00000000000E+00 0. -1.
         21   -1    0    0  504  502 -0.00000000000E+00 -0.00000000000E+00 -0.10225423032E+04  0.10225423032E+04  0.00000000000E+00 0. -1.
         21    1    1    2  503  505 -0.13719364566E+02  0.96813085867E+02 -0.37620205258E+03  0.38870165799E+03  0.00000000000E+00 0. -1.
         21    1    1    2  504  506 -0.27628746468E+02 -0.14523503618E+03 -0.39094579564E+03  0.41796552309E+03  0.00000000000E+00 0. -1.
         21    1    1    2  505  502  0.60994863303E+02  0.15781463268E+02 -0.22711008061E+03  0.23568711600E+03  0.00000000000E+00 0. -1.
         21    1    1    2  506  501 -0.19646752269E+02  0.32640487043E+02  0.81418382849E+02  0.89890763346E+02  0.00000000000E+00 0. -1.
<scales pt_clust_3="14000.00000" pt_clust_4="118.74719" pt_clust_5="61.41581" pt_clust_6="38.09720"></scales>
<clustering>
<clus scale="   38.097">  1  6  2 -1</clus>
<clus scale="   61.416">  2  5  1 -1</clus>
<clus scale="  118.747">  1  4  2 -1</clus>
<clus scale="   38.097">  1  3  2 -1</clus>
</clustering>
</event>
<event>
 6    0  0.5563122E+002  0.9801319E+02  0.7546771E-02  0.1284530E+00
         21   -1    0    0  504  501  0.00000000000E+00  0.00000000000E+00  0.21164149868E+03  0.21164149868E+03  0.00000000000E+00 0. -1.
         21   -1    0    0  505  502 -0.00000000000E+00 -0.00000000000E+00 -0.11553289282E+03  0.11553289282E+03  0.00000000000E+00 0. -1.
         21    1    1    2  503  502 -0.47089262996E+02  0.11630173096E+02 -0.29011775049E+02  0.56518516499E+02  0.00000000000E+00 0. -1.
         21    1    1    2  504  506  0.25019716751E+01 -0.67832636708E+02  0.89443604515E+02  0.11228394744E+03  0.00000000000E+00 0. -1.
         21    1    1    2  505  501  0.87848738628E+02  0.64713681659E+02  0.33857904119E+02  0.11424368317E+03  0.00000000000E+00 0. -1.
         21    1    1    2  506  503 -0.43261447307E+02 -0.85112180470E+01  0.18188722755E+01  0.44128244381E+02  0.00000000000E+00 0. -1.
<scales pt_clust_3="33.26515" pt_clust_4="67.87876" pt_clust_5="91.59284" pt_clust_6="33.26515"></scales>
<clustering>
<clus scale="   33.265">  3  6 -1 -1</clus>
<clus scale="   67.879">  1  4  2 -1</clus>
<clus scale="   91.593">  1  5  2 -1</clus>
<clus scale="   67.879">  1  3  2 -1</clus>
</clustering>
</event>
<event>
 6    0  0.5563122E+002  0.1347139E+03  0.7546771E-02  0.1220624E+00
         21   -1    0    0  503  501  0.00000000000E+00  0.00000000000E+00  0.35444085551E+04  0.35444085551E+04  0.00000000000E+00 0.  1.
         21   -1    0    0  505  502 -0.00000000000E+00 -0.00000000000E+00 -0.86212202610E+02  0.86212202610E+02  0.00000000000E+00 0. -1.
         21    1    1    2  503  506  0.39905588196E+02  0.99144274643E+02  0.22824158411E+02  0.10928396667E+03  0.00000000000E+00 0. -1.
         21    1    1    2  504  501  0.17914602487E+02 -0.13486282318E+03  0.33187889988E+04  0.33215763325E+04  0.00000000000E+00 0.  1.
         21    1    1    2  505  504  0.43326384157E+02  0.18472376750E+02  0.76017397469E+02  0.89426220903E+02  0.00000000000E+00 0.  1.
         21    1    1    2  506  502 -0.10114657484E+03  0.17246171786E+02  0.40565797808E+02  0.11033423764E+03  0.00000000000E+00 0. -1.
<scales pt_clust_3="134.71387" pt_clust_4="14000.00000" pt_clust_5="47.09994" pt_clust_6="85.96024"></scales>
<clustering>
<clus scale="   47.100">  2  5  1 -1</clus>
<clus scale="   85.960">  2  6  1 -1</clus>
<clus scale="  134.714">  2  3  1 -1</clus>
<clus scale="  134.714">  1  3  2 -1</clus>
</clustering>
</event>
<event>
 6    0  0.1055732E+003  0.5495000E+02  0.7546771E-02  0.1420336E+00
         21   -1    0    0  505  501  0.00000000000E+00  0.00000000000E+00  0.51293111693E+03  0.51293111693E+03  0.00000000000E+00 0. -1.
         21   -1    0    0  504  502 -0.00000000000E+00 -0.00000000000E+00 -0.15343827693E+04  0.15343827693E+04  0.00000000000E+00 0. -1.
         21    1    1    2  503  502 -0.47484841685E+02  0.27429073500E+02 -0.14719285213E+04  0.14729496719E+04  0.00000000000E+00 0. -1.
         21    1    1    2  504  506  0.96429765787E+02 -0.83078312284E+02  0.30582562750E+03  0.33125521903E+03  0.00000000000E+00 0. -1.
         21    1    1    2  505  503 -0.43319198494E+02  0.17857890805E+02 -0.35604481249E+02  0.58848418052E+02  0.00000000000E+00 0.  1.
         21    1    1    2  506  501 -0.56257256082E+01  0.37791347979E+02  0.18025572266E+03  0.18426057723E+03  0.00000000000E+00 0. -1.
<scales pt_clust_3="54.95000" pt_clust_4="14000.00000" pt_clust_5="47.55870" pt_clust_6="38.20778"></scales>
<clustering>
<clus scale="   38.208">  1  6  2 -1</clus>
<clus scale="   47.559">  1  5  2 -1</clus>
<clus scale="   54.950">  2  3  1 -1</clus>
<clus scale="   38.208">  1  3  2 -1</clus>
</clustering>
</event>
<event>
 6    0  0.5563122E+002  0.1368241E+03  0.7546771E-02  0.1217667E+00
         21   -1    0    0  502  501  0.00000000000E+00  0.00000000000E+00  0.37203544357E+03  0.37203544357E+03  0.00000000000E+00 0. -1.
         21   -1    0    0  503  502 -0.00000000000E+00 -0.00000000000E+00 -0.16316840169E+03  0.16316840169E+03  0.00000000000E+00 0.  1.
         21    1    1    2  503  504 -0.65141371162E+02  0.49405716026E+02 -0.41546704784E+02  0.91708514824E+02  0.00000000000E+00 0.  1.
         21    1    1    2  504  506 -0.57481608113E+02  0.24313751745E+01 -0.61302044771E+02  0.84071324181E+02  0.00000000000E+00 0.  1.
         21    1    1    2  505  501  0.19231187430E+02 -0.25347671995E+02  0.20861762852E+03  0.21102999307E+03  0.00000000000E+00 0. -1.
         21    1    1    2  506  505  0.10339179184E+03 -0.26489419205E+02  0.10309816292E+03  0.14839401318E+03  0.00000000000E+00 0. -1.
<scales pt_clust_3="43.50492" pt_clust_4="43.50492" pt_clust_5="31.81734" pt_clust_6="126.97886"></scales>
<clustering>
<clus scale="   31.817">  1  5  2 -1</clus>
<clus scale="   43.505">  3  4 -1 -1</clus>
<clus scale="  126.979">  1  6  2 -1</clus>
<clus scale="   31.817">  1  3  2 -1</clus>
</clustering>
</event>
<event>
 6    0  0.5563122E+002  0.8846828E+02  0.7546771E-02  0.1306604E+00
         21   -1    0    0  504  501  0.00000000000E+00  0.00000000000E+00  0.24755237537E+03  0.24755237537E+03  0.00000000000E+00 0.  1.
         21   -1    0    0  506  502 -0.00000000000E+00 -0.00000000000E+00 -0.39678109106E+03  0.39678109106E+03  0.00000000000E+00 0.  1.
         21    1    1    2  503  505  0.67636812461E+02  0.13881541685E+02 -0.13926795842E+02  0.70437143907E+02  0.00000000000E+00 0. -1.
         21    1    1    2  504  503  0.40155636895E+02  0.77903096703E+02  0.18866775134E+03  0.20803097857E+03  0.00000000000E+00 0.  1.
         21    1    1    2  505  502 -0.57721377902E+02  0.59434666743E+01 -0.85535115616E+02  0.10336023542E+03  0.00000000000E+00 0. -1.
         21    1    1    2  506  501 -0.50071071454E+02 -0.97728105062E+02 -0.23843455556E+03  0.26250510853E+03  0.00000000000E+00 0.  1.
<scales pt_clust_3="61.37259" pt_clust_4="88.46828" pt_clust_5="58.02657" pt_clust_6="14000.00000"></scales>
<clustering>
<clus scale="   58.027">  2  5  1 -1</clus>
<clus scale="   61.373">  2  3  1 -1</clus>
<clus scale="   88.468">  1  4  2 -1</clus>
<clus scale="   88.468">  1  3  2 -1</clus>
</clustering>
</event>
<event>
 6    0  0.5563122E+002  0.1227307E+03  0.7546771E-02  0.1238659E+00
         21   -1    0    0  504  501  0.00000000000E+00  0.00000000000E+00  0.18288103148E+03  0.18288103148E+03  0.00000000000E+00 0. -1.
         21   -1    0    0  506  502 -0.00000000000E+00 -0.00000000000E+00 -0.26110874822E+04  0.26110874822E+04  0.00000000000E+00 0. -1.
         21    1    1    2  503  505 -0.29719817242E+02 -0.20379038418E+02 -0.12256645887E+03  0.12775409811E+03  0.00000000000E+00 0. -1.
         21    1    1    2  504  502  0.11267390422E+03  0.27552526905E+02  0.15641431639E+03  0.19473055437E+03  0.00000000000E+00 0. -1.
         21    1    1    2  505  501 -0.55762752506E+02  0.23904042670E+02 -0.19877286143E+03  0.20782574014E+03  0.00000000000E+00 0.  1.
         21    1    1    2  506  503 -0.27191334471E+02 -0.31077531157E+02 -0.22632814468E+04  0.22636581211E+04  0.00000000000E+00 0. -1.
<scales pt_clust_3="34.76796" pt_clust_4="114.13871" pt_clust_5="34.76796" pt_clust_6="41.29384"></scales>
<clustering>
<clus scale="   34.768">  3  5 -1 -1</clus>
<clus scale="   41.294">  2  6  1 -1</clus>
<clus scale="  114.139">  1  4  2 -1</clus>
<clus scale="  114.139">  1  3  2 -1</clus>
</clustering>
</event>
<event>
 6    0  0.5563122E+002  0.1534509E+03  0.7546771E-02  0.1196296E+00
         21   -1    0    0  503  501  0.00000000000E+00  0.00000000000E+00  0.15642734084E+03  0.15642734084E+03  0.00000000000E+00 0.  1.
         21   -1    0    0  505  502 -0.00000000000E+00 -0.00000000000E+00 -0.55521465194E+03  0.55521465194E+03  0.00000000000E+00 0.  1.
         21    1    1    2  503  502  0.10913476089E+03 -0.10862141187E+03  0.60988247380E+02  0.16561574041E+03  0.00000000000E+00 0.  1.
         21    1    1    2  504  501  0.35249835569E+02 -0.22593494752E+02 -0.26311990416E+02  0.49450356443E+02  0.00000000000E+00 0. -1.
         21    1    1    2  505  506 -0.13881682155E+03  0.67470691960E+02 -0.38943167235E+03  0.41890265175E+03  0.00000000000E+00 0.  1.
         21    1    1    2  506  504 -0.55677749156E+01  0.63744214665E+02 -0.44031895708E+02  0.77673244174E+02  0.00000000000E+00 0.  1.
<scales pt_clust_3="153.45087" pt_clust_4="41.86904" pt_clust_5="14000.00000" pt_clust_6="61.13848"></scales>
<clustering>
<clus scale="   41.869">  1  4  2 -1</clus>
<clus scale="   61.138">  1  6  2 -1</clus>
<clus scale="  153.451">  1  3  2 -1</clus>
<clus scale="   41.869">  1  3  2 -1</clus>
</clustering>
</event>
<event>
 6    0  0.5563122E+002  0.1566299E+03  0.7546771E-02  0.1192555E+00
         21   -1    0    0  505  501  0.00000000000E+00  0.00000000000E+00  0.26506557648E+03  0.26506557648E+03  0.00000000000E+00 0. -1.
         21   -1    0    0  504  502 -0.00000000000E+00 -0.00000000000E+00 -0.31964659932E+03  0.31964659932E+03  0.00000000000E+00 0. -1.
         21    1    1    2  503  501 -0.53847974670E+02 -0.12815053391E+03  0.46744439059E+02  0.14665335421E+03  0.00000000000E+00 0. -1.
         21    1    1    2  504  506 -0.34187519030E+02 -0.60330861707E+01 -0.13108561072E+03  0.13560465303E+03  0.00000000000E+00 0. -1.
         21    1    1    2  505  502  0.17630366106E+01  0.19516150199E+03  0.24158846936E+02  0.19665901973E+03  0.00000000000E+00 0. -1.
         21    1    1    2  506  503  0.86272457090E+02 -0.60977881905E+02  0.56013018741E+01  0.10579514883E+03  0.00000000000E+00 0. -1.
<scales pt_clust_3="156.62991" pt_clust_4="34.71577" pt_clust_5="14000.00000" pt_clust_6="99.29758"></scales>
<clustering>
<clus scale="   34.716">  2  4  1 -1</clus>
<clus scale="   99.298">  2  6  1 -1</clus>
<clus scale="  156.630">  1  3  2 -1</clus>
<clus scale="  156.630">  1  3  2 -1</clus>
</clustering>
</event>
<event>
 6    0  0.5563122E+002  0.2634050E+03  0.7546771E-02  0.1105115E+00
         21   -1    0    0  503  501  0.00000000000E+00  0.00000000000E+00  0.28556571220E+03  0.28556571220E+03  0.00000000000E+00 0.  1.
         21   -1    0    0  506  502 -0.00000000000E+00 -0.00000000000E+00 -0.14685166890E+04  0.14685166890E+04  0.00000000000E+00 0. -1.
         21    1    1    2  503  504  0.18740399376E+03  0.20688004052E+03  0.88478624494E+02  0.29282772245E+03  0.00000000000E+00 0.  1.
         21    1    1    2  504  505 -0.71907212759E+02 -0.24209884900E+03 -0.88169650469E+02  0.26750025644E+03  0.00000000000E+00 0.  1.
         21    1    1    2  505  502 -0.69623028546E+02  0.26760922467E+02 -0.10484943762E+04  0.10511441242E+04  0.00000000000E+00 0. -1.
         21    1    1    2  506  501 -0.45873752456E+02  0.84578860153E+01 -0.13476557471E+03  0.14261029811E+03  0.00000000000E+00 0.  1.
<scales pt_clust_3="263.40497" pt_clust_4="14000.00000" pt_clust_5="110.99408" pt_clust_6="46.64694"></scales>
<clustering>
<clus scale="   46.647">  2  6  1 -1</clus>
<clus scale="  110.994">  2  5  1 -1</clus>
<clus scale="  263.405">  1  3  2 -1</clus>
<clus scale="  263.405">  1  3  2 -1</clus>
</clustering>
</event>
<event>
 6    0  0.5563122E+002  0.1078480E+03  0.7546771E-02  0.1264608E+00
         21   -1    0    0  503  501  0.00000000000E+00  0.00000000000E+00  0.53953456052E+03  0.53953456052E+03  0.00000000000E+00 0.  1.
         21   -1    0    0  504  502 -0.00000000000E+00 -0.00000000000E+00 -0.11984558980E+03  0.11984558980E+03  0.00000000000E+00 0.  1.
         21    1    1    2  503  506 -0.64648487958E+02 -0.51052405527E+02  0.15073030474E+03  0.17177135929E+03  0.00000000000E+00 0.  1.
         21    1    1    2  504  505  0.34393449261E+02 -0.10164487302E+02 -0.92975632809E+02  0.99652869755E+02  0.00000000000E+00 0.  1.
         21    1    1    2  505  501  0.71671938787E+02  0.54695201563E+02  0.29929681761E+03  0.31258121651E+03  0.00000000000E+00 0.  1.
         21    1    1    2  506  502 -0.41416900089E+02  0.65216912658E+01  0.62637481180E+02  0.75374704766E+02  0.00000000000E+00 0.  1.
<scales pt_clust_3="34.38170" pt_clust_4="35.86400" pt_clust_5="96.48148" pt_clust_6="34.38170"></scales>
<clustering>
<clus scale="   34.382">  3  6 -1 -1</clus>
<clus scale="   35.864">  2  4  1 -1</clus>
<clus scale="   96.481">  1  5  2 -1</clus>
<clus scale="   96.481">  1  3  2 -1</clus>
</clustering>
</event>
<event>
 6    0  0.5563122E+002  0.1696583E+03  0.7546771E-02  0.1178205E+00
         21   -1    0    0  505  501  0.00000000000E+00  0.00000000000E+00  0.93314534029E+02  0.93314534029E+02  0.00000000000E+00 0. -1.
         21   -1    0    0  503  502 -0.00000000000E+00 -0.00000000000E+00 -0.13740404808E+04  0.13740404808E+04  0.00000000000E+00 0. -1.
         21    1    1    2  503  506 -0.42031567483E+02  0.66448719506E+01 -0.30289168644E+03  0.30586627912E+03  0.00000000000E+00 0. -1.
         21    1    1    2  504  502  0.13940986607E+03  0.94653243131E+02 -0.39820507538E+03  0.43239059801E+03  0.00000000000E+00 0. -1.
         21    1    1    2  505  504  0.77506788753E+01 -0.36540731194E+02  0.63799059561E+02  0.73929818477E+02  0.00000000000E+00 0. -1.
         21    1    1    2  506  501 -0.10512897746E+03 -0.64757383888E+02 -0.64342824449E+03  0.65516831920E+03  0.00000000000E+00 0. -1.
<scales pt_clust_3="32.32983" pt_clust_4="160.47166" pt_clust_5="37.35369" pt_clust_6="32.32983"></scales>
<clustering>
<clus scale="   32.330">  3  6 -1 -1</clus>
<clus scale="   37.354">  1  5  2 -1</clus>
<clus scale="  160.472">  1  4  2 -1</clus>
<clus scale="   37.354">  1  3  2 -1</clus>
</clustering>
</event>
<event>
 6    0  0.5563122E+002  0.1428872E+03  0.7546771E-02  0.1209496E+00
         21   -1    0    0  505  501  0.00000000000E+00  0.00000000000E+00  0.18370709773E+03  0.18370709773E+03  0.00000000000E+00 0. -1.
         21   -1    0    0  504  502 -0.00000000000E+00 -0.00000000000E+00 -0.79890322006E+03  0.79890322006E+03  0.00000000000E+00 0. -1.
         21    1    1    2  503  502 -0.12187940512E+03 -0.11060858507E+03 -0.69013571225E+03  0.70949006322E+03  0.00000000000E+00 0. -1.
         21    1    1    2  504  501  0.32137006073E+02 -0.82757389988E+01 -0.52797977373E+02  0.62361056999E+02  0.00000000000E+00 0.  1.
         21    1    1    2  505  506  0.27295994891E+02  0.37974071774E+02  0.90704504747E+02  0.10205101002E+03  0.00000000000E+00 0. -1.
         21    1    1    2  506  503  0.62446404154E+02  0.80910252296E+02  0.37033062545E+02  0.10870818755E+03  0.00000000000E+00 0. -1.
<scales pt_clust_3="14000.00000" pt_clust_4="33.18546" pt_clust_5="46.85918" pt_clust_6="142.88721"></scales>
<clustering>
<clus scale="   33.185">  2  4  1 -1</clus>
<clus scale="   46.859">  1  5  2 -1</clus>
<clus scale="  142.887">  1  6  2 -1</clus>
<clus scale="   46.859">  1  3  2 -1</clus>
</clustering>
</event>
<event>
 6    0  0.5563122E+002  0.7960258E+02  0.7546771E-02  0.1330183E+00
         21   -1    0    0  506  501  0.00000000000E+00  0.00000000000E+00  0.39631116701E+03  0.39631116701E+03  0.00000000000E+00 0. -1.
         21   -1    0    0  504  502 -0.00000000000E+00 -0.00000000000E+00 -0.54026602754E+03  0.54026602754E+03  0.00000000000E+00 0. -1.
         21    1    1    2  503  502 -0.20367390229E+02  0.72785677477E+02 -0.30033132245E+03  0.30969580022E+03  0.00000000000E+00 0. -1.
         21    1    1    2  504  505  0.88343445028E+02 -0.61784207758E+02 -0.20466174381E+03  0.23131857251E+03  0.00000000000E+00 0. -1.
         21    1    1    2  505  501 -0.35147390509E+02 -0.22909320224E+01  0.35985810897E+03  0.36157771781E+03  0.00000000000E+00 0. -1.
         21    1    1    2  506  503 -0.32828664290E+02 -0.87105376967E+01  0.11800967596E+01  0.33985104008E+02  0.00000000000E+00 0. -1.
<scales pt_clust_3="79.60258" pt_clust_4="14000.00000" pt_clust_5="67.25343" pt_clust_6="33.96461"></scales>
<clustering>
<clus scale="   33.965">  1  6  2 -1</clus>
<clus scale="   67.253">  1  5  2 -1</clus>
<clus scale="   79.603">  2  3  1 -1</clus>
<clus scale="   33.965">  1  3  2 -1</clus>
</clustering>
</event>
<event>
 6    0  0.5563122E+002  0.2741048E+03  0.7546771E-02  0.1098953E+00
         21   -1    0    0  505  501  0.00000000000E+00  0.00000000000E+00  0.15328721151E+03  0.15328721151E+03  0.00000000000E+00 0.  1.
         21   -1    0    0  506  502 -0.00000000000E+00 -0.00000000000E+00 -0.82010203384E+03  0.82010203384E+03  0.00000000000E+00 0. -1.
         21    1    1    2  503  504 -0.18550461548E+03  0.81444341119E+02 -0.19370228009E+03  0.28029576589E+03  0.00000000000E+00 0.  1.
         21    1    1    2  504  501  0.57442552154E+02  0.11353114977E+02  0.23352584048E+02  0.63038743637E+02  0.00000000000E+00 0.  1.
         21    1    1    2  505  502  0.21357639827E+03 -0.12628680312E+03 -0.47475973152E+03  0.53568651021E+03  0.00000000000E+00 0. -1.
         21    1    1    2  506  503 -0.85514334943E+02  0.33489347028E+02 -0.21705394761E+02  0.94368225621E+02  0.00000000000E+00 0. -1.
<scales pt_clust_3="57.57086" pt_clust_4="58.55374" pt_clust_5="260.42627" pt_clust_6="57.57086"></scales>
<clustering>
<clus scale="   57.571">  3  6 -1 -1</clus>
<clus scale="   58.554">  1  4  2 -1</clus>
<clus scale="  260.426">  2  5  1 -1</clus>
<clus scale="   58.554">  1  3  2 -1</clus>
</clustering>
</event>
<event>
 6    0  0.5563122E+002  0.1460586E+03  0.7546771E-02  0.1205402E+00
         21   -1    0    0  506  501  0.00000000000E+00  0.00000000000E+00  0.64786887051E+03  0.64786887051E+03  0.00000000000E+00 0. -1.
         21   -1    0    0  501  502 -0.00000000000E+00 -0.00000000000E+00 -0.18783774889E+03  0.18783774889E+03  0.00000000000E+00 0.  1.
         21    1    1    2  503  502  0.82980114290E+02 -0.10855015362E+03 -0.14632592824E+03  0.20020018105E+03  0.00000000000E+00 0.  1.
         21    1    1    2  504  503 -0.66723664838E+01  0.87422322873E+02  0.40721200557E+03  0.41654387583E+03  0.00000000000E+00 0. -1.
         21    1    1    2  505  504 -0.32564324609E+02  0.18506469654E+02  0.14252865827E+03  0.14736805313E+03  0.00000000000E+00 0. -1.
         21    1    1    2  506  505 -0.43743423197E+02  0.26213610885E+01  0.56616386030E+02  0.71594509385E+02  0.00000000000E+00 0. -1.
<scales pt_clust_3="135.32063" pt_clust_4="35.92723" pt_clust_5="35.92723" pt_clust_6="43.82190"></scales>
<clustering>
<clus scale="   35.927">  4  5 -1 -1</clus>
<clus scale="   43.822">  1  6  2 -1</clus>
<clus scale="  135.321">  2  3  1 -1</clus>
<clus scale="   43.822">  1  3  2 -1</clus>
</clustering>
</event>
<event>
 6    0  0.5563122E+002  0.1120482E+03  0.7546771E-02  0.1256823E+00
         21   -1    0    0  506  501  0.00000000000E+00  0.00000000000E+00  0.59245459693E+03  0.59245459693E+03  0.00000000000E+00 0.  1.
         21   -1    0    0  503  502 -0.00000000000E+00 -0.00000000000E+00 -0.14894974709E+03  0.14894974709E+03  0.00000000000E+00 0.  1.
         21    1    1    2  503  504 -0.61657992260E+02 -0.22341104339E+02 -0.24347054390E+02  0.69954356620E+02  0.00000000000E+00 0.  1.
         21    1    1    2  504  501  0.69309937362E+02 -0.34123842175E+02  0.39311977446E+03  0.40063881626E+03  0.00000000000E+00 0.  1.
         21    1    1    2  505  502  0.65766622261E+02 -0.75670183389E+02 -0.40771089832E+01  0.10033866690E+03  0.00000000000E+00 0.  1.
         21    1    1    2  506  505 -0.73418567362E+02  0.13213512990E+03  0.78809238756E+02  0.17047250424E+03  0.00000000000E+00 0.  1.
<scales pt_clust_3="65.58074" pt_clust_4="75.59650" pt_clust_5="112.04822" pt_clust_6="14000.00000"></scales>
<clustering>
<clus scale="   65.581">  2  3  1 -1</clus>
<clus scale="   75.597">  1  4  2 -1</clus>
<clus scale="  112.048">  2  5  1 -1</clus>
<clus scale="   75.597">  1  3  2 -1</clus>
</clustering>
</event>
<event>
 6    0  0.5563122E+002  0.8788709E+02  0.7546771E-02  0.1308051E+00
         21   -1    0    0  503  501  0.00000000000E+00  0.00000000000E+00  0.37555309433E+02  0.37555309433E+02  0.00000000000E+00 0. -1.
         21   -1    0    0  505  502 -0.00000000000E+00 -0.00000000000E+00 -0.95766200611E+03  0.95766200611E+03  0.00000000000E+00 0. -1.
         21    1    1    2  503  504 -0.59743150060E+02 -0.35548562257E+02 -0.71730460196E+02  0.99890956435E+02  0.00000000000E+00 0. -1.
         21    1    1    2  504  502 -0.15276525985E+02 -0.31966042983E+02 -0.14909221405E+03  0.15324388549E+03  0.00000000000E+00 0.  1.
         21    1    1    2  505  506 -0.32492931125E+02 -0.18317241740E+02 -0.49131546439E+03  0.49272933489E+03  0.00000000000E+00 0. -1.
         21    1    1    2  506  501  0.10751260717E+03  0.85831846980E+02 -0.20796855805E+03  0.24935313873E+03  0.00000000000E+00 0. -1.
<scales pt_clust_3="87.88709" pt_clust_4="35.42880" pt_clust_5="56.37890" pt_clust_6="14000.00000"></scales>
<clustering>
<clus scale="   35.429">  2  4  1 -1</clus>
<clus scale="   56.379">  2  5  1 -1</clus>
<clus scale="   87.887">  1  3  2 -1</clus>
<clus scale="   87.887">  1  3  2 -1</clus>
</clustering>
</event>
<event>
 6    0  0.5563122E+002  0.9019880E+02  0.7546771E-02  0.1302371E+00
         21   -1    0    0  504  501  0.00000000000E+00  0.00000000000E+00  0.14289007196E+04  0.14289007196E+04  0.00000000000E+00 0.  1.
         21   -1    0    0  505  502 -0.00000000000E+00 -0.00000000000E+00 -0.19858778322E+02  0.19858778322E+02  0.00000000000E+00 0.  1.
         21    1    1    2  503  502 -0.38636531913E+02  0.14254061017E+02  0.49623912654E+02  0.64486375002E+02  0.00000000000E+00 0.  1.
         21    1    1    2  504  506  0.66910911360E+02  0.82145581754E+02  0.50178143828E+03  0.51284459485E+03  0.00000000000E+00 0.  1.
         21    1    1    2  505  501  0.17123690502E+02 -0.88558470282E+02  0.73338389445E+03  0.73890984570E+03  0.00000000000E+00 0.  1.
         21    1    1    2  506  503 -0.45398069949E+02 -0.78411724890E+01  0.12425269588E+03  0.13251868236E+03  0.00000000000E+00 0.  1.
<scales pt_clust_3="36.31085" pt_clust_4="81.31102" pt_clust_5="90.19880" pt_clust_6="36.31085"></scales>
<clustering>
<clus scale="   36.311">  3  6 -1 -1</clus>
<clus scale="   90.199">  1  5  2 -1</clus>
<clus scale="   81.311">  1  4  2 -1</clus>
<clus scale="   90.199">  1  3  2 -1</clus>
</clustering>
</event>
<event>
 6    0  0.5563122E+002  0.7313042E+02  0.7546771E-02  0.1349760E+00
         21   -1    0    0  504  501  0.00000000000E+00  0.00000000000E+00  0.18437157338E+03  0.18437157338E+03  0.00000000000E+00 0. -1.
         21   -1    0    0  505  502 -0.00000000000E+00 -0.00000000000E+00 -0.38243600634E+03  0.38243600634E+03  0.00000000000E+00 0. -1.
         21    1    1    2  503  501 -0.32702340337E+01  0.45563212820E+02  0.98080775075E+02  0.10819676165E+03  0.00000000000E+00 0. -1.
         21    1    1    2  504  506 -0.41022456706E+02 -0.22981012499E+02  0.20866365316E+02  0.51442920710E+02  0.00000000000E+00 0. -1.
         21    1    1    2  505  503  0.11267650936E+03 -0.29688564556E+02 -0.42266280291E+02  0.12395097852E+03  0.00000000000E+00 0. -1.
         21    1    1    2  506  502 -0.68383818615E+02  0.71063642355E+01 -0.27474529305E+03  0.28321691884E+03  0.00000000000E+00 0. -1.
<scales pt_clust_3="45.68042" pt_clust_4="42.56380" pt_clust_5="73.13042" pt_clust_6="14000.00000"></scales>
<clustering>
<clus scale="   45.680">  1  3  2 -1</clus>
<clus scale="   42.564">  1  4  2 -1</clus>
<clus scale="   73.130">  1  5  2 -1</clus>
<clus scale="   45.680">  1  3  2 -1</clus>
</clustering>
</event>
<event>
 6    0  0.5563122E+002  0.1243835E+03  0.7546771E-02  0.1236036E+00
         21   -1    0    0  506  501  0.00000000000E+00  0.00000000000E+00  0.10584834759E+04  0.10584834759E+04  0.00000000000E+00 0. -1.
         21   -1    0    0  504  502 -0.00000000000E+00 -0.00000000000E+00 -0.51114640199E+03  0.51114640199E+03  0.00000000000E+00 0.  1.
         21    1    1    2  503  501 -0.12498623444E+02  0.45248325736E+02  0.99889258143E+03  0.99999500789E+03  0.00000000000E+00 0. -1.
         21    1    1    2  504  503  0.55792553195E+02 -0.96820376610E+02 -0.22143285764E+03  0.24803125763E+03  0.00000000000E+00 0.  1.
         21    1    1    2  505  502  0.17707935488E+02 -0.32763515148E+02 -0.21286386853E+03  0.21609730547E+03  0.00000000000E+00 0.  1.
         21    1    1    2  506  505 -0.61001865238E+02  0.84335566022E+02 -0.17258781372E+02  0.10550630689E+03  0.00000000000E+00 0.  1.
<scales pt_clust_3="46.87537" pt_clust_4="124.38350" pt_clust_5="37.24270" pt_clust_6="14000.00000"></scales>
<clustering>
<clus scale="   37.243">  2  5  1 -1</clus>
<clus scale="   46.875">  1  3  2 -1</clus>
<clus scale="  124.383">  2  4  1 -1</clus>
<clus scale="   46.875">  1  3  2 -1</clus>
</clustering>
</event>
<event>
 6    0  0.5563122E+002  0.6744372E+02  0.7546771E-02  0.1369008E+00
         21   -1    0    0  504  501  0.00000000000E+00  0.00000000000E+00  0.25327189793E+03  0.25327189793E+03  0.00000000000E+00 0.  1.
         21   -1    0    0  505  502 -0.00000000000E+00 -0.00000000000E+00 -0.23000457560E+03  0.23000457560E+03  0.00000000000E+00 0.  1.
         21    1    1    2  503  501  0.48498026242E+02 -0.38628042679E+02  0.15416485985E+03  0.16616554469E+03  0.00000000000E+00 0.  1.
         21    1    1    2  504  502 -0.25454330464E+02 -0.41122040976E+02 -0.69363416042E+01  0.48857527857E+02  0.00000000000E+00 0.  1.
         21    1    1    2  505  506  0.53230440073E+02  0.89100908677E+01 -0.15129075746E+03  0.16062927119E+03  0.00000000000E+00 0.  1.
         21    1    1    2  506  503 -0.76274135851E+02  0.70839992788E+02  0.27329561542E+02  0.10762412978E+03  0.00000000000E+00 0.  1.
<scales pt_clust_3="14000.00000" pt_clust_4="48.36264" pt_clust_5="40.60824" pt_clust_6="67.44372"></scales>
<clustering>
<clus scale="   48.363">  2  4  1 -1</clus>
<clus scale="   40.608">  2  5  1 -1</clus>
<clus scale="   67.444">  2  6  1 -1</clus>
<clus scale="   67.444">  1  3  2 -1</clus>
</clustering>
</event>
<event>
 6    0  0.5563122E+002  0.6436721E+02  0.7546771E-02  0.1380368E+00
         21   -1    0    0  505  501  0.00000000000E+00  0.00000000000E+00  0.17674710352E+04  0.17674710352E+04  0.00000000000E+00 0. -1.
         21   -1    0    0  506  502 -0.00000000000E+00 -0.00000000000E+00 -0.36989743120E+02  0.36989743120E+02  0.00000000000E+00 0. -1.
         21    1    1    2  503  501  0.21778205490E+02  0.36552467745E+02  0.58168833999E+03  0.58324240074E+03  0.00000000000E+00 0. -1.
         21    1    1    2  504  502 -0.82292254847E+01  0.61701996120E+02  0.20118605376E+01  0.62280848261E+02  0.00000000000E+00 0. -1.
         21    1    1    2  505  504 -0.52084731318E+02 -0.51410172200E+01  0.64606604725E+03  0.64818252576E+03  0.00000000000E+00 0. -1.
         21    1    1    2  506  503  0.38535751313E+02 -0.93113446645E+02  0.50071504432E+03  0.51075500358E+03  0.00000000000E+00 0. -1.
<scales pt_clust_3="42.54848" pt_clust_4="14000.00000" pt_clust_5="42.83706" pt_clust_6="64.36721"></scales>
<clustering>
<clus scale="   42.548">  1  3  2 -1</clus>
<clus scale="   42.837">  1  5  2 -1</clus>
<clus scale="   64.367">  1  6  2 -1</clus>
<clus scale="   42.548">  1  3  2 -1</clus>
</clustering>
</event>
<event>
 6    0  0.5563122E+002  0.8353832E+02  0.7546771E-02  0.1319300E+00
         21   -1    0    0  506  501  0.00000000000E+00  0.00000000000E+00  0.23961812641E+03  0.23961812641E+03  0.00000000000E+00 0. -1.
         21   -1    0    0  505  502 -0.00000000000E+00 -0.00000000000E+00 -0.72086474261E+03  0.72086474261E+03  0.00000000000E+00 0.  1.
         21    1    1    2  503  502 -0.96017093555E+02 -0.46634193697E+01 -0.39524341172E+03  0.40676576090E+03  0.00000000000E+00 0.  1.
         21    1    1    2  504  501  0.31154219225E+02 -0.27284800901E+02  0.21801019380E+03  0.22190874327E+03  0.00000000000E+00 0. -1.
         21    1    1    2  505  504  0.15158580894E+02 -0.40527015068E+02 -0.76137344449E+02  0.87573493391E+02  0.00000000000E+00 0.  1.
         21    1    1    2  506  503  0.49704293436E+02  0.72475235339E+02 -0.22787605384E+03  0.24423487146E+03  0.00000000000E+00 0.  1.
<scales pt_clust_3="14000.00000" pt_clust_4="41.41311" pt_clust_5="54.17855" pt_clust_6="83.53832"></scales>
<clustering>
<clus scale="   41.413">  1  4  2 -1</clus>
<clus scale="   54.179">  1  5  2 -1</clus>
<clus scale="   83.538">  1  6  2 -1</clus>
<clus scale="   41.413">  1  3  2 -1</clus>
</clustering>
</event>
<event>
 6    0  0.5563122E+002  0.1297362E+03  0.7546771E-02  0.1227848E+00
         21   -1    0    0  505  501  0.00000000000E+00  0.00000000000E+00  0.14877606435E+04  0.14877606435E+04  0.00000000000E+00 0.  1.
         21   -1    0    0  504  502 -0.00000000000E+00 -0.00000000000E+00 -0.40159627827E+02  0.40159627827E+02  0.00000000000E+00 0.  1.
         21    1    1    2  503  501 -0.88683038816E+02 -0.78226884265E+02  0.38491979405E+03  0.40267527196E+03  0.00000000000E+00 0.  1.
         21    1    1    2  504  506  0.52980611005E+02  0.23140775317E+00  0.85781164463E+02  0.10082364241E+03  0.00000000000E+00 0. -1.
         21    1    1    2  505  502 -0.25401007528E+02 -0.31361584062E+02  0.83158807524E+03  0.83256680635E+03  0.00000000000E+00 0.  1.
         21    1    1    2  506  503  0.61103435340E+02  0.10935706057E+03  0.14531198196E+03  0.19185455066E+03  0.00000000000E+00 0.  1.
<scales pt_clust_3="129.73617" pt_clust_4="49.54710" pt_clust_5="40.35790" pt_clust_6="14000.00000"></scales>
<clustering>
<clus scale="   40.358">  1  5  2 -1</clus>
<clus scale="   49.547">  2  4  1 -1</clus>
<clus scale="  129.736">  1  3  2 -1</clus>
<clus scale="   40.358">  1  3  2 -1</clus>
</clustering>
</event>
<event>
 6    0  0.5563122E+002  0.1240332E+03  0.7546771E-02  0.1236588E+00
         21   -1    0    0  503  501  0.00000000000E+00  0.00000000000E+00  0.41056763780E+03  0.41056763780E+03  0.00000000000E+00 0.  1.
         21   -1    0    0  505  502 -0.00000000000E+00 -0.00000000000E+00 -0.24137097640E+03  0.24137097640E+03  0.00000000000E+00 0.  1.
         21    1    1    2  503  504  0.66769738275E+01 -0.36430644881E+02  0.22842621201E+03  0.23140939522E+03  0.00000000000E+00 0.  1.
         21    1    1    2  504  502  0.75269419075E+02 -0.11069274557E+03 -0.75325273911E+02  0.15359774172E+03  0.00000000000E+00 0.  1.
         21    1    1    2  505  506 -0.78592667380E+02  0.86939437105E+02 -0.88058040681E+02  0.14659294532E+03  0.00000000000E+00 0.  1.
         21    1    1    2  506  501 -0.33537255224E+01  0.60183953351E+02  0.10415376399E+03  0.12033853194E+03  0.00000000000E+00 0.  1.
<scales pt_clust_3="37.03747" pt_clust_4="14000.00000" pt_clust_5="124.03324" pt_clust_6="37.55631"></scales>
<clustering>
<clus scale="   37.037">  1  3  2 -1</clus>
<clus scale="   37.556">  1  6  2 -1</clus>
<clus scale="  124.033">  2  5  1 -1</clus>
<clus scale="   37.037">  1  3  2 -1</clus>
</clustering>
</event>
<event>
 6    0  0.5563122E+002  0.8381379E+02  0.7546771E-02  0.1318564E+00
         21   -1    0    0  505  501  0.00000000000E+00  0.00000000000E+00  0.14557362709E+03  0.14557362709E+03  0.00000000000E+00 0. -1.
         21   -1    0    0  504  502 -0.00000000000E+00 -0.00000000000E+00 -0.14187768150E+04  0.14187768150E+04  0.00000000000E+00 0. -1.
         21    1    1    2  503  506 -0.75575532441E+02  0.63267031314E+02 -0.33667597100E+03  0.35080633945E+03  0.00000000000E+00 0. -1.
         21    1    1    2  504  503  0.23948065508E+02  0.37488172685E+02 -0.27654044133E+03  0.28009549911E+03  0.00000000000E+00 0. -1.
         21    1    1    2  505  502  0.22233971886E+01 -0.10331232480E+03 -0.78875979629E+03  0.79550009189E+03  0.00000000000E+00 0. -1.
         21    1    1    2  506  501  0.49404069745E+02  0.25571207993E+01  0.12877302076E+03  0.13794851159E+03  0.00000000000E+00 0. -1.
<scales pt_clust_3="14000.00000" pt_clust_4="44.48452" pt_clust_5="83.81379" pt_clust_6="49.57442"></scales>
<clustering>
<clus scale="   44.485">  2  4  1 -1</clus>
<clus scale="   49.574">  1  6  2 -1</clus>
<clus scale="   83.814">  2  5  1 -1</clus>
<clus scale="   49.574">  1  3  2 -1</clus>
</clustering>
</event>
<event>
 6    0  0.5563122E+002  0.1129013E+03  0.7546771E-02  0.1255290E+00
         21   -1    0    0  502  501  0.00000000000E+00  0.00000000000E+00  0.62807542679E+02  0.62807542679E+02  0.00000000000E+00 0. -1.
         21   -1    0    0  504  502 -0.00000000000E+00 -0.00000000000E+00 -0.48453550168E+03  0.48453550168E+03  0.00000000000E+00 0. -1.
         21    1    1    2  503  501  0.31291200645E+02 -0.34407028520E+02  0.71945692518E+01  0.47061073895E+02  0.00000000000E+00 0. -1.
         21    1    1    2  504  506 -0.51040307982E+02 -0.86303216796E+02 -0.30328701988E+03  0.31943133018E+03  0.00000000000E+00 0. -1.
         21    1    1    2  505  503 -0.10962952751E+02  0.46512269413E+02 -0.32073121169E+02  0.57552260082E+02  0.00000000000E+00 0. -1.
         21    1    1    2  506  505  0.30712060087E+02  0.74197975903E+02 -0.93562387200E+02  0.12329838021E+03  0.00000000000E+00 0. -1.
<scales pt_clust_3="46.50788" pt_clust_4="103.85093" pt_clust_5="34.16665" pt_clust_6="34.16665"></scales>
<clustering>
<clus scale="   34.167">  5  6 -1 -1</clus>
<clus scale="   46.508">  1  3  2 -1</clus>
<clus scale="  103.851">  2  4  1 -1</clus>
<clus scale="   46.508">  1  3  2 -1</clus>
</clustering>
</event>
<event>
 6    0  0.5686767E+002  0.1024617E+03  0.7546771E-02  0.1275203E+00
         21   -1    0    0  506  501  0.00000000000E+00  0.00000000000E+00  0.10205835391E+04  0.10205835391E+04  0.00000000000E+00 0.  1.
         21   -1    0    0  504  502 -0.00000000000E+00 -0.00000000000E+00 -0.52335476842E+03  0.52335476842E+03  0.00000000000E+00 0. -1.
         21    1    1    2  503  501 -0.78389952198E+02 -0.59020105402E+02  0.78952920306E+03  0.79560336848E+03  0.00000000000E+00 0.  1.
         21    1    1    2  504  505  0.25428465251E+02 -0.29970548024E+02 -0.46167222130E+03  0.46334229304E+03  0.00000000000E+00 0. -1.
         21    1    1    2  505  503 -0.69809292889E+02 -0.11092922622E+02  0.48008950285E+02  0.85447349949E+02  0.00000000000E+00 0.  1.
         21    1    1    2  506  502  0.12277077984E+03  0.10008357605E+03  0.12136283866E+03  0.19954529607E+03  0.00000000000E+00 0.  1.
<scales pt_clust_3="14000.00000" pt_clust_4="39.30446" pt_clust_5="65.22992" pt_clust_6="102.46173"></scales>
<clustering>
<clus scale="   39.304">  2  4  1 -1</clus>
<clus scale="   65.230">  2  5  1 -1</clus>
<clus scale="  102.462">  2  6  1 -1</clus>
<clus scale="  102.462">  1  3  2 -1</clus>
</clustering>
</event>
<event>
 6    0  0.5563122E+002  0.1577752E+03  0.7546771E-02  0.1191232E+00
         21   -1    0    0  504  501  0.00000000000E+00  0.00000000000E+00  0.48125078360E+02  0.48125078360E+02  0.00000000000E+00 0. -1.
         21   -1    0    0  503  502 -0.00000000000E+00 -0.00000000000E+00 -0.25958136922E+04  0.25958136922E+04  0.00000000000E+00 0. -1.
         21    1    1    2  503  505  0.23380199495E+02 -0.15612743361E+03 -0.22705676638E+04  0.22760491922E+04  0.00000000000E+00 0. -1.
         21    1    1    2  504  506 -0.55350989409E+01 -0.29868580044E+02 -0.76306299821E+02  0.82130510691E+02  0.00000000000E+00 0. -1.
         21    1    1    2  505  501  0.26601254253E+02  0.34295777669E+02 -0.28520815306E+02  0.51935190376E+02  0.00000000000E+00 0. -1.
         21    1    1    2  506  502 -0.44446354806E+02  0.15170023598E+03 -0.17229383486E+03  0.23382387728E+03  0.00000000000E+00 0. -1.
<scales pt_clust_3="14000.00000" pt_clust_4="30.37712" pt_clust_5="36.59177" pt_clust_6="157.77518"></scales>
<clustering>
<clus scale="   30.377">  1  4  2 -1</clus>
<clus scale="   36.592">  1  5  2 -1</clus>
<clus scale="  157.775">  1  6  2 -1</clus>
<clus scale="   30.377">  1  3  2 -1</clus>
</clustering>
</event>
<event>
 6    0  0.5563122E+002  0.1064645E+03  0.7546771E-02  0.1267261E+00
         21   -1    0    0  504  501  0.00000000000E+00  0.00000000000E+00  0.13580275405E+04  0.13580275405E+04  0.00000000000E+00 0.  1.
         21   -1    0    0  506  502 -0.00000000000E+00 -0.00000000000E+00 -0.39485538680E+02  0.39485538680E+02  0.00000000000E+00 0. -1.
         21    1    1    2  503  502  0.27148098575E+02  0.20306320265E+02  0.25680903439E+02  0.42530867618E+02  0.00000000000E+00 0. -1.
         21    1    1    2  504  503  0.59358913932E+02 -0.90818852398E+02  0.93257339698E+02  0.14306808177E+03  0.00000000000E+00 0. -1.
         21    1    1    2  505  501 -0.33476261166E+02 -0.13300561992E+02  0.77673940069E+03  0.77757421614E+03  0.00000000000E+00 0.  1.
         21    1    1    2  506  505 -0.53030751340E+02  0.83813094125E+02  0.42286435794E+03  0.43433991361E+03  0.00000000000E+00 0. -1.
<scales pt_clust_3="33.90230" pt_clust_4="14000.00000" pt_clust_5="35.58212" pt_clust_6="106.46448"></scales>
<clustering>
<clus scale="   33.902">  2  3  1 -1</clus>
<clus scale="   35.582">  1  5  2 -1</clus>
<clus scale="  106.464">  1  6  2 -1</clus>
<clus scale="   35.582">  1  3  2 -1</clus>
</clustering>
</event>
<event>
 6    0  0.5563122E+002  0.1666343E+03  0.7546771E-02  0.1181404E+00
         21   -1    0    0  503  501  0.00000000000E+00  0.00000000000E+00  0.45612804160E+03  0.45612804160E+03  0.00000000000E+00 0. -1.
         21   -1    0    0  506  502 -0.00000000000E+00 -0.00000000000E+00 -0.43928308056E+03  0.43928308056E+03  0.00000000000E+00 0. -1.
         21    1    1    2  503  505 -0.15077108577E+03  0.30969036205E+02  0.36019370214E+03  0.39170206097E+03  0.00000000000E+00 0. -1.
         21    1    1    2  504  502  0.11418298108E+03 -0.10982040398E+03 -0.13374244988E+03  0.20732900713E+03  0.00000000000E+00 0. -1.
         21    1    1    2  505  504  0.84615389082E+02 -0.30397083416E+02 -0.97814386972E+02  0.13285857537E+03  0.00000000000E+00 0. -1.
         21    1    1    2  506  501 -0.48027284394E+02  0.10924845119E+03 -0.11179190426E+03  0.16352147869E+03  0.00000000000E+00 0. -1.
<scales pt_clust_3="157.60615" pt_clust_4="40.75912" pt_clust_5="40.75912" pt_clust_6="119.33920"></scales>
<clustering>
<clus scale="   40.759">  4  5 -1 -1</clus>
<clus scale="  119.339">  2  6  1 -1</clus>
<clus scale="  157.606">  1  3  2 -1</clus>
<clus scale="  157.606">  1  3  2 -1</clus>
</clustering>
</event>
<event>
 6    0  0.5563122E+002  0.1554846E+03  0.7546771E-02  0.1193891E+00
         21   -1    0    0  504  501  0.00000000000E+00  0.00000000000E+00  0.23026596498E+03  0.23026596498E+03  0.00000000000E+00 0. -1.
         21   -1    0    0  505  502 -0.00000000000E+00 -0.00000000000E+00 -0.17825940773E+04  0.17825940773E+04  0.00000000000E+00 0.  1.
         21    1    1    2  503  502 -0.55789141235E+02 -0.14031341237E+03 -0.14529717210E+04  0.14607967361E+04  0.00000000000E+00 0.  1.
         21    1    1    2  504  503  0.11602456405E+02 -0.38470324186E+02 -0.20923524715E+03  0.21305861045E+03  0.00000000000E+00 0. -1.
         21    1    1    2  505  506 -0.16096576097E+02  0.54504342333E+02 -0.83716383657E+02  0.10118426749E+03  0.00000000000E+00 0.  1.
         21    1    1    2  506  501  0.60283260926E+02  0.12427939423E+03  0.19359523947E+03  0.23782042831E+03  0.00000000000E+00 0. -1.
<scales pt_clust_3="36.27045" pt_clust_4="36.27045" pt_clust_5="56.83153" pt_clust_6="138.67894"></scales>
<clustering>
<clus scale="   36.270">  3  4 -1 -1</clus>
<clus scale="   56.832">  2  5  1 -1</clus>
<clus scale="  138.679">  1  6  2 -1</clus>
<clus scale="  138.679">  1  3  2 -1</clus>
</clustering>
</event>
<event>
 6    0  0.5563122E+002  0.1027259E+03  0.7546771E-02  0.1274666E+00
         21   -1    0    0  504  501  0.00000000000E+00  0.00000000000E+00  0.15481985149E+04  0.15481985149E+04  0.00000000000E+00 0.  1.
         21   -1    0    0  505  502 -0.00000000000E+00 -0.00000000000E+00 -0.19609572701E+03  0.19609572701E+03  0.00000000000E+00 0. -1.
         21    1    1    2  503  502 -0.68743761125E+02  0.81192518562E+02 -0.14494054389E+03  0.17979346770E+03  0.00000000000E+00 0. -1.
         21    1    1    2  504  506  0.30665252646E+02  0.15090263740E+02  0.13876725124E+04  0.13880933237E+04  0.00000000000E+00 0.  1.
         21    1    1    2  505  501 -0.15447015877E+02 -0.40273165733E+02  0.94098036351E+00  0.43144218867E+02  0.00000000000E+00 0. -1.
         21    1    1    2  506  503  0.53525524356E+02 -0.56009616570E+02  0.10842983907E+03  0.13326323164E+03  0.00000000000E+00 0.  1.
<scales pt_clust_3="102.72591" pt_clust_4="34.17709" pt_clust_5="39.81508" pt_clust_6="14000.00000"></scales>
<clustering>
<clus scale="   34.177">  1  4  2 -1</clus>
<clus scale="   39.815">  1  5  2 -1</clus>
<clus scale="  102.726">  2  3  1 -1</clus>
<clus scale="   34.177">  1  3  2 -1</clus>
</clustering>
</event>
<event>
 6    0  0.5563122E+002  0.6538404E+02  0.7546771E-02  0.1376533E+00
         21   -1    0    0  503  501  0.00000000000E+00  0.00000000000E+00  0.33846805109E+03  0.33846805109E+03  0.00000000000E+00 0. -1.
         21   -1    0    0  504  502 -0.00000000000E+00 -0.00000000000E+00 -0.22040552984E+03  0.22040552984E+03  0.00000000000E+00 0. -1.
         21    1    1    2  503  506  0.39272603897E+02  0.24741327670E+02  0.21749927402E+03  0.22239695346E+03  0.00000000000E+00 0. -1.
         21    1    1    2  504  505  0.82352657117E+02  0.90799424600E+01  0.40052727410E+02  0.92025140382E+02  0.00000000000E+00 0. -1.
         21    1    1    2  505  501 -0.57862911996E+02 -0.31475099125E+02  0.23090332924E+02  0.69799440715E+02  0.00000000000E+00 0. -1.
         21    1    1    2  506  502 -0.63762349018E+02 -0.23461710054E+01 -0.16257981310E+03  0.17465204637E+03  0.00000000000E+00 0. -1.
<scales pt_clust_3="46.41628" pt_clust_4="14000.00000" pt_clust_5="47.73162" pt_clust_6="65.38404"></scales>
<clustering>
<clus scale="   46.416">  1  3  2 -1</clus>
<clus scale="   47.732">  1  5  2 -1</clus>
<clus scale="   65.384">  2  6  1 -1</clus>
<clus scale="   46.416">  1  3  2 -1</clus>
</clustering>
</event>
<event>
 6    0  0.5563122E+002  0.7808591E+02  0.7546771E-02  0.1334573E+00
         21   -1    0    0  505  501  0.00000000000E+00  0.00000000000E+00  0.68803196622E+03  0.68803196622E+03  0.00000000000E+00 0. -1.
         21   -1    0    0  506  502 -0.00000000000E+00 -0.00000000000E+00 -0.52828227511E+02  0.52828227511E+02  0.00000000000E+00 0.  1.
         21    1    1    2  503  501 -0.95377561655E+02  0.17129706730E+02  0.46858926811E+03  0.47850413615E+03  0.00000000000E+00 0. -1.
         21    1    1    2  504  502  0.10576407720E+03 -0.25092502508E+02  0.44582418209E+02  0.11748730026E+03  0.00000000000E+00 0.  1.
         21    1    1    2  505  504  0.30095128360E+02 -0.98058833403E+01  0.68367128868E+02  0.75338810773E+02  0.00000000000E+00 0. -1.
         21    1    1    2  506  503 -0.40481643908E+02  0.17768679119E+02  0.53664923521E+02  0.69529946553E+02  0.00000000000E+00 0.  1.
<scales pt_clust_3="78.08591" pt_clust_4="14000.00000" pt_clust_5="31.65236" pt_clust_6="41.06198"></scales>
<clustering>
<clus scale="   31.652">  1  5  2 -1</clus>
<clus scale="   41.062">  2  6  1 -1</clus>
<clus scale="   78.086">  1  3  2 -1</clus>
<clus scale="   31.652">  1  3  2 -1</clus>
</clustering>
</event>
<event>
 6    0  0.5563122E+002  0.9607405E+02  0.7546771E-02  0.1288775E+00
         21   -1    0    0  504  501  0.00000000000E+00  0.00000000000E+00  0.31714250543E+03  0.31714250543E+03  0.00000000000E+00 0.  1.
         21   -1    0    0  506  502 -0.00000000000E+00 -0.00000000000E+00 -0.10287940783E+04  0.10287940783E+04  0.00000000000E+00 0. -1.
         21    1    1    2  503  502 -0.49396343066E+02  0.86840476473E+02 -0.91169672023E+03  0.91715439090E+03  0.00000000000E+00 0. -1.
         21    1    1    2  504  505  0.32444051007E+02 -0.31864049260E+02 -0.27922685188E+02  0.53363006185E+02  0.00000000000E+00 0.  1.
         21    1    1    2  505  503 -0.47409484067E+02 -0.82010358011E+02 -0.36783641413E+02  0.10161886772E+03  0.00000000000E+00 0.  1.
         21    1    1    2  506  501  0.64361776126E+02  0.27033930799E+02  0.26475147400E+03  0.27380031889E+03  0.00000000000E+00 0.  1.
<scales pt_clust_3="14000.00000" pt_clust_4="45.47454" pt_clust_5="96.07405" pt_clust_6="93.06719"></scales>
<clustering>
<clus scale="   45.475">  1  4  2 -1</clus>
<clus scale="   93.067">  1  6  2 -1</clus>
<clus scale="   96.074">  1  5  2 -1</clus>
<clus scale="   45.475">  1  3  2 -1</clus>
</clustering>
</event>
<event>
 6    0  0.5563122E+002  0.1184455E+03  0.7546771E-02  0.1245684E+00
         21   -1    0    0  503  501  0.00000000000E+00  0.00000000000E+00  0.15720286910E+04  0.15720286910E+04  0.00000000000E+00 0.  1.
         21   -1    0    0  506  502 -0.00000000000E+00 -0.00000000000E+00 -0.11621472140E+03  0.11621472140E+03  0.00000000000E+00 0.  1.
         21    1    1    2  503  504 -0.23616440651E+02 -0.73855230483E+02  0.13312648421E+04  0.13335210576E+04  0.00000000000E+00 0.  1.
         21    1    1    2  504  505  0.92914309574E+02 -0.42250482961E+02  0.16674977728E+03  0.19550872220E+03  0.00000000000E+00 0. -1.
         21    1    1    2  505  502  0.88404443062E+01  0.30039765728E+02 -0.28178779406E+02  0.42125818560E+02  0.00000000000E+00 0.  1.
         21    1    1    2  506  501 -0.78138313229E+02  0.86065947717E+02 -0.14021870326E+02  0.11708781405E+03  0.00000000000E+00 0.  1.
<scales pt_clust_3="77.10357" pt_clust_4="14000.00000" pt_clust_5="31.31359" pt_clust_6="118.44547"></scales>
<clustering>
<clus scale="   31.314">  2  5  1 -1</clus>
<clus scale="   77.104">  1  3  2 -1</clus>
<clus scale="  118.445">  2  6  1 -1</clus>
<clus scale="   77.104">  1  3  2 -1</clus>
</clustering>
</event>
<event>
 6    0  0.5563122E+002  0.1084372E+03  0.7546771E-02  0.1263492E+00
         21   -1    0    0  505  501  0.00000000000E+00  0.00000000000E+00  0.18876267776E+04  0.18876267776E+04  0.00000000000E+00 0. -1.
         21   -1    0    0  504  502 -0.00000000000E+00 -0.00000000000E+00 -0.55483661152E+02  0.55483661152E+02  0.00000000000E+00 0.  1.
         21    1    1    2  503  506  0.10122389856E+03 -0.42004551965E+02  0.32686883644E+02  0.11436385962E+03  0.00000000000E+00 0.  1.
         21    1    1    2  504  501 -0.46949251201E+02 -0.36378227423E+01  0.99119391055E+02  0.10973659201E+03  0.00000000000E+00 0. -1.
         21    1    1    2  505  503 -0.70647937628E+02  0.82860545438E+02  0.16531043679E+04  0.16566867695E+04  0.00000000000E+00 0. -1.
         21    1    1    2  506  502  0.16373290273E+02 -0.37218170731E+02  0.47232473796E+02  0.62323217566E+02  0.00000000000E+00 0. -1.
<scales pt_clust_3="14000.00000" pt_clust_4="45.79819" pt_clust_5="108.43725" pt_clust_6="40.66051"></scales>
<clustering>
<clus scale="   40.661">  2  6  1 -1</clus>
<clus scale="   45.798">  2  4  1 -1</clus>
<clus scale="  108.437">  1  5  2 -1</clus>
<clus scale="  108.437">  1  3  2 -1</clus>
</clustering>
</event>
<event>
 6    0  0.5563122E+002  0.1373853E+03  0.7546771E-02  0.1216891E+00
         21   -1    0    0  504  501  0.00000000000E+00  0.00000000000E+00  0.17926932318E+03  0.17926932318E+03  0.00000000000E+00 0. -1.
         21   -1    0    0  503  502 -0.00000000000E+00 -0.00000000000E+00 -0.61948959925E+03  0.61948959925E+03  0.00000000000E+00 0. -1.
         21    1    1    2  503  501 -0.85610901246E+02 -0.12532270856E+03 -0.17891140043E+03  0.23461521029E+03  0.00000000000E+00 0. -1.
         21    1    1    2  504  505 -0.45042279869E+02 -0.31852777701E+02  0.81005183673E+02  0.98006357983E+02  0.00000000000E+00 0. -1.
         21    1    1    2  505  506 -0.13112977864E+02  0.13098513959E+03 -0.52801180316E+02  0.14183448673E+03  0.00000000000E+00 0. -1.
         21    1    1    2  506  502  0.14376615898E+03  0.26190346668E+02 -0.28951287899E+03  0.32430286744E+03  0.00000000000E+00 0. -1.
<scales pt_clust_3="137.38529" pt_clust_4="55.16708" pt_clust_5="120.52018" pt_clust_6="14000.00000"></scales>
<clustering>
<clus scale="   55.167">  1  4  2 -1</clus>
<clus scale="  120.520">  1  5  2 -1</clus>
<clus scale="  137.385">  1  3  2 -1</clus>
<clus scale="   55.167">  1  3  2 -1</clus>
</clustering>
</event>
<event>
 6    0  0.5563122E+002  0.3096864E+03  0.7546771E-02  0.1080496E+00
         21   -1    0    0  503  501  0.00000000000E+00  0.00000000000E+00  0.44589810725E+03  0.44589810725E+03  0.00000000000E+00 0.  1.
         21   -1    0    0  506  502 -0.00000000000E+00 -0.00000000000E+00 -0.66137063492E+03  0.66137063492E+03  0.00000000000E+00 0. -1.
         21    1    1    2  503  502  0.53953970803E+02 -0.22128659148E+02 -0.47935747425E+00  0.58317564290E+02  0.00000000000E+00 0.  1.
         21    1    1    2  504  505 -0.10016536857E+03 -0.30161733207E+03  0.52019767804E+02  0.32204374285E+03  0.00000000000E+00 0.  1.
         21    1    1    2  505  501 -0.27796686031E+02  0.24973994439E+02  0.18018497980E+03  0.18401897483E+03  0.00000000000E+00 0.  1.
         21    1    1    2  506  504  0.74008083800E+02  0.29877199678E+03 -0.44719791781E+03  0.54288846020E+03  0.00000000000E+00 0. -1.
<scales pt_clust_3="54.47475" pt_clust_4="14000.00000" pt_clust_5="37.36785" pt_clust_6="309.68637"></scales>
<clustering>
<clus scale="   37.368">  1  5  2 -1</clus>
<clus scale="   54.475">  1  3  2 -1</clus>
<clus scale="  309.686">  2  6  1 -1</clus>
<clus scale="   37.368">  1  3  2 -1</clus>
</clustering>
</event>
<event>
 6    0  0.5563122E+002  0.8604122E+02  0.7546771E-02  0.1312732E+00
         21   -1    0    0  506  501  0.00000000000E+00  0.00000000000E+00  0.24039717365E+03  0.24039717365E+03  0.00000000000E+00 0.  1.
         21   -1    0    0  505  502 -0.00000000000E+00 -0.00000000000E+00 -0.43765479728E+03  0.43765479728E+03  0.00000000000E+00 0. -1.
         21    1    1    2  503  502  0.54524279739E+02 -0.80726548914E+02  0.11834606858E+03  0.15328230403E+03  0.00000000000E+00 0.  1.
         21    1    1    2  504  501  0.24312152453E+01 -0.40089947126E+02  0.19524486849E+01  0.40211027393E+02  0.00000000000E+00 0. -1.
         21    1    1    2  505  504  0.34226355307E+01  0.86217695816E+02 -0.38084327617E+03  0.39049559090E+03  0.00000000000E+00 0. -1.
         21    1    1    2  506  503 -0.60378130515E+02  0.34598800224E+02  0.63287135280E+02  0.94063048608E+02  0.00000000000E+00 0. -1.
<scales pt_clust_3="86.04122" pt_clust_4="40.16360" pt_clust_5="14000.00000" pt_clust_6="62.84665"></scales>
<clustering>
<clus scale="   40.164">  1  4  2 -1</clus>
<clus scale="   62.847">  1  6  2 -1</clus>
<clus scale="   86.041">  1  3  2 -1</clus>
<clus scale="   40.164">  1  3  2 -1</clus>
</clustering>
</event>
<event>
 6    0  0.5563122E+002  0.1328819E+03  0.7546771E-02  0.1223241E+00
         21   -1    0    0  506  501  0.00000000000E+00  0.00000000000E+00  0.30267994727E+03  0.30267994727E+03  0.00000000000E+00 0.  1.
         21   -1    0    0  505  502 -0.00000000000E+00 -0.00000000000E+00 -0.59809672654E+02  0.59809672654E+02  0.00000000000E+00 0.  1.
         21    1    1    2  503  502 -0.50639133055E+02 -0.68353725652E+02  0.75013183971E+02  0.11341750913E+03  0.00000000000E+00 0.  1.
         21    1    1    2  504  501  0.75044442990E+01  0.50767968456E+02  0.34147647406E+02  0.61642234943E+02  0.00000000000E+00 0.  1.
         21    1    1    2  505  504  0.53294031738E+02  0.55840012940E+02  0.42763621536E+02  0.88244479663E+02  0.00000000000E+00 0.  1.
         21    1    1    2  506  503 -0.10159342982E+02 -0.38254255745E+02  0.90945821699E+02  0.99185396188E+02  0.00000000000E+00 0.  1.
<scales pt_clust_3="34.75358" pt_clust_4="31.46318" pt_clust_5="128.64946" pt_clust_6="34.75358"></scales>
<clustering>
<clus scale="   31.463">  4  5 -1 -1</clus>
<clus scale="   34.754">  3  6 -1 -1</clus>
<clus scale="  128.649">  2  4  1 -1</clus>
<clus scale="  132.882">  1  3  2 -1</clus>
</clustering>
</event>
<event>
 6    0  0.5563122E+002  0.7697134E+02  0.7546771E-02  0.1337873E+00
         21   -1    0    0  506  501  0.00000000000E+00  0.00000000000E+00  0.17507824810E+04  0.17507824810E+04  0.00000000000E+00 0. -1.
         21   -1    0    0  503  502 -0.00000000000E+00 -0.00000000000E+00 -0.37434182510E+02  0.37434182510E+02  0.00000000000E+00 0. -1.
         21    1    1    2  503  505  0.86181246401E+02  0.51606203740E+02  0.10297648996E+03  0.14385605646E+03  0.00000000000E+00 0. -1.
         21    1    1    2  504  502 -0.64577615702E+02  0.24602830422E+02  0.72193240094E+02  0.99937138391E+02  0.00000000000E+00 0. -1.
         21    1    1    2  505  501  0.36056001914E+02 -0.32871298102E+02  0.28308196036E+03  0.28725590298E+03  0.00000000000E+00 0. -1.
         21    1    1    2  506  504 -0.57659632613E+02 -0.43337736059E+02  0.12550966081E+04  0.12571675657E+04  0.00000000000E+00 0. -1.
<scales pt_clust_3="76.97134" pt_clust_4="66.44797" pt_clust_5="48.79096" pt_clust_6="14000.00000"></scales>
<clustering>
<clus scale="   48.791">  1  5  2 -1</clus>
<clus scale="   66.448">  2  4  1 -1</clus>
<clus scale="   76.971">  2  3  1 -1</clus>
<clus scale="   48.791">  1  3  2 -1</clus>
</clustering>
</event>
<event>
 6    0  0.5563122E+002  0.1309237E+03  0.7546771E-02  0.1226091E+00
         21   -1    0    0  506  501  0.00000000000E+00  0.00000000000E+00  0.13034237176E+04  0.13034237176E+04  0.00000000000E+00 0.  1.
         21   -1    0    0  504  502 -0.00000000000E+00 -0.00000000000E+00 -0.31461750040E+03  0.31461750040E+03  0.00000000000E+00 0.  1.
         21    1    1    2  503  505 -0.84273782702E+02 -0.38118848919E+02  0.71543959568E+01  0.92770159401E+02  0.00000000000E+00 0.  1.
         21    1    1    2  504  503 -0.34934539939E+02 -0.37270144442E+02 -0.27056970318E+02  0.57806274662E+02  0.00000000000E+00 0.  1.
         21    1    1    2  505  501  0.31524604407E+02 -0.25606269633E+01  0.12228668572E+04  0.12232758103E+04  0.00000000000E+00 0.  1.
         21    1    1    2  506  502  0.87683718234E+02  0.77949620324E+02 -0.21415806568E+03  0.24418897365E+03  0.00000000000E+00 0.  1.
<scales pt_clust_3="38.64143" pt_clust_4="38.64143" pt_clust_5="31.62843" pt_clust_6="121.48252"></scales>
<clustering>
<clus scale="   31.628">  1  5  2 -1</clus>
<clus scale="   38.641">  3  4 -1 -1</clus>
<clus scale="  121.483">  2  6  1 -1</clus>
<clus scale="   31.628">  1  3  2 -1</clus>
</clustering>
</event>
<event>
 6    0  0.5563122E+002  0.1623047E+03  0.7546771E-02  0.1186119E+00
         21   -1    0    0  504  501  0.00000000000E+00  0.00000000000E+00  0.87106219649E+03  0.87106219649E+03  0.00000000000E+00 0.  1.
         21   -1    0    0  506  502 -0.00000000000E+00 -0.00000000000E+00 -0.32334557149E+04  0.32334557149E+04  0.00000000000E+00 0.  1.
         21    1    1    2  503  502 -0.37571675198E+02 -0.20487506931E+02 -0.31619620424E+04  0.31622516228E+04  0.00000000000E+00 0.  1.
         21    1    1    2  504  505  0.19422937488E+02  0.33483170158E+02  0.76907485309E+02  0.86099561445E+02  0.00000000000E+00 0.  1.
         21    1    1    2  505  503 -0.86846214284E+02  0.12707048728E+03  0.51111806183E+02  0.16217765075E+03  0.00000000000E+00 0.  1.
         21    1    1    2  506  501  0.10499495199E+03 -0.14006615050E+03  0.67154923247E+03  0.69398907635E+03  0.00000000000E+00 0.  1.
<scales pt_clust_3="42.78843" pt_clust_4="38.70883" pt_clust_5="162.30469" pt_clust_6="14000.00000"></scales>
<clustering>
<clus scale="   38.709">  1  4  2 -1</clus>
<clus scale="   42.788">  2  3  1 -1</clus>
<clus scale="  162.305">  2  5  1 -1</clus>
<clus scale="   38.709">  1  3  2 -1</clus>
</clustering>
</event>
<event>
 6    0  0.5563122E+002  0.1423384E+03  0.7546771E-02  0.1210217E+00
         21   -1    0    0  505  501  0.00000000000E+00  0.00000000000E+00  0.31443437821E+04  0.31443437821E+04  0.00000000000E+00 0. -1.
         21   -1    0    0  506  502 -0.00000000000E+00 -0.00000000000E+00 -0.10214193799E+02  0.10214193799E+02  0.00000000000E+00 0. -1.
         21    1    1    2  503  504  0.45030717672E+02  0.39633863058E+01  0.38519160719E+03  0.38783507863E+03  0.00000000000E+00 0. -1.
         21    1    1    2  504  502  0.70303691040E+02  0.42535503881E+02  0.39652149000E+03  0.40494588539E+03  0.00000000000E+00 0. -1.
         21    1    1    2  505  503  0.34938974614E+02 -0.75881711956E+01  0.97249091173E+03  0.97314792590E+03  0.00000000000E+00 0. -1.
         21    1    1    2  506  501 -0.15027338333E+03 -0.38910718992E+02  0.13799255794E+04  0.13886290860E+04  0.00000000000E+00 0. -1.
<scales pt_clust_3="32.85479" pt_clust_4="32.85479" pt_clust_5="35.75349" pt_clust_6="135.27052"></scales>
<clustering>
<clus scale="   32.855">  3  4 -1 -1</clus>
<clus scale="   35.753">  1  5  2 -1</clus>
<clus scale="  135.271">  1  6  2 -1</clus>
<clus scale="   35.753">  1  3  2 -1</clus>
</clustering>
</event>
<event>
 6    0  0.5563122E+002  0.8859471E+02  0.7546771E-02  0.1306291E+00
         21   -1    0    0  505  501  0.00000000000E+00  0.00000000000E+00  0.12949430954E+03  0.12949430954E+03  0.00000000000E+00 0. -1.
         21   -1    0    0  501  502 -0.00000000000E+00 -0.00000000000E+00 -0.35943086600E+03  0.35943086600E+03  0.00000000000E+00 0. -1.
         21    1    1    2  503  504 -0.11648567521E+02  0.94398818780E+02 -0.44070767872E+02  0.10482871121E+03  0.00000000000E+00 0. -1.
         21    1    1    2  504  502 -0.21125145174E+02 -0.85584590602E+02 -0.22960565363E+03  0.24594664073E+03  0.00000000000E+00 0. -1.
         21    1    1    2  505  506 -0.48912718518E+01  0.45711076098E+02  0.54187933821E+02  0.71061657666E+02  0.00000000000E+00 0. -1.
         21    1    1    2  506  503  0.37664984546E+02 -0.54525304275E+02 -0.10448068784E+02  0.67088165935E+02  0.00000000000E+00 0. -1.
<scales pt_clust_3="14000.00000" pt_clust_4="88.59471" pt_clust_5="45.97202" pt_clust_6="50.03549"></scales>
<clustering>
<clus scale="   45.972">  1  5  2 -1</clus>
<clus scale="   50.035">  1  6  2 -1</clus>
<clus scale="   88.595">  2  4  1 -1</clus>
<clus scale="   45.972">  1  3  2 -1</clus>
</clustering>
</event>
<event>
 6    0  0.5563122E+002  0.1375750E+03  0.7546771E-02  0.1216630E+00
         21   -1    0    0  502  501  0.00000000000E+00  0.00000000000E+00  0.47390696692E+03  0.47390696692E+03  0.00000000000E+00 0.  1.
         21   -1    0    0  503  502 -0.00000000000E+00 -0.00000000000E+00 -0.31592450678E+03  0.31592450678E+03  0.00000000000E+00 0.  1.
         21    1    1    2  503  505  0.40674193788E+02  0.78085649590E+01 -0.78425890065E+02  0.88690382564E+02  0.00000000000E+00 0.  1.
         21    1    1    2  504  501  0.12923377811E+02 -0.28603378243E+02  0.85543089494E+01  0.32532186255E+02  0.00000000000E+00 0. -1.
         21    1    1    2  505  506 -0.73256686370E+02 -0.13776928847E+03 -0.17545658584E+03  0.23480190045E+03  0.00000000000E+00 0.  1.
         21    1    1    2  506  504  0.19659114771E+02  0.15856410176E+03  0.40331062709E+03  0.43380700442E+03  0.00000000000E+00 0.  1.
<scales pt_clust_3="41.50101" pt_clust_4="31.38737" pt_clust_5="14000.00000" pt_clust_6="137.57504"></scales>
<clustering>
<clus scale="   31.387">  1  4  2 -1</clus>
<clus scale="   41.501">  2  3  1 -1</clus>
<clus scale="  137.575">  1  6  2 -1</clus>
<clus scale="   31.387">  1  3  2 -1</clus>
</clustering>
</event>
<event>
 6    0  0.5563122E+002  0.1858120E+03  0.7546771E-02  0.1162294E+00
         21   -1    0    0  503  501  0.00000000000E+00  0.00000000000E+00  0.38075556109E+04  0.38075556109E+04  0.00000000000E+00 0.  1.
         21   -1    0    0  505  502 -0.00000000000E+00 -0.00000000000E+00 -0.11551176081E+04  0.11551176081E+04  0.00000000000E+00 0. -1.
         21    1    1    2  503  504 -0.71685439613E+02  0.15263105296E+03  0.37883337871E+04  0.37920849045E+04  0.00000000000E+00 0.  1.
         21    1    1    2  504  506  0.39573197971E+02 -0.66281636836E+02 -0.29080050867E+03  0.30087244677E+03  0.00000000000E+00 0.  1.
         21    1    1    2  505  501  0.44411268933E+02  0.32161475868E+02 -0.90830660453E+02  0.10609868150E+03  0.00000000000E+00 0.  1.
         21    1    1    2  506  502 -0.12299027292E+02 -0.11851089200E+03 -0.75426461506E+03  0.76361718625E+03  0.00000000000E+00 0. -1.
<scales pt_clust_3="168.64511" pt_clust_4="69.52073" pt_clust_5="54.83358" pt_clust_6="69.52073"></scales>
<clustering>
<clus scale="   54.834">  2  5  1 -1</clus>
<clus scale="   69.521">  4  6 -1 -1</clus>
<clus scale="  168.645">  1  3  2 -1</clus>
<clus scale="  168.645">  1  3  2 -1</clus>
</clustering>
</event>
<event>
 6    0  0.5563122E+002  0.1623882E+03  0.7546771E-02  0.1186027E+00
         21   -1    0    0  506  501  0.00000000000E+00  0.00000000000E+00  0.43763549557E+03  0.43763549557E+03  0.00000000000E+00 0. -1.
         21   -1    0    0  505  502 -0.00000000000E+00 -0.00000000000E+00 -0.51068133143E+03  0.51068133143E+03  0.00000000000E+00 0.  1.
         21    1    1    2  503  502 -0.31247326335E+02 -0.14422228870E+03 -0.47389066709E+03  0.49633539902E+03  0.00000000000E+00 0.  1.
         21    1    1    2  504  501  0.42386212321E+02  0.23795796806E+02  0.20322089201E+03  0.20895349217E+03  0.00000000000E+00 0. -1.
         21    1    1    2  505  504  0.15448791352E+02  0.81773108026E+02  0.16816812772E+03  0.18763268780E+03  0.00000000000E+00 0. -1.
         21    1    1    2  506  503 -0.26587677338E+02  0.38653383866E+02  0.29455811509E+02  0.55395248010E+02  0.00000000000E+00 0. -1.
<scales pt_clust_3="146.65887" pt_clust_4="50.66229" pt_clust_5="50.66229" pt_clust_6="46.91470"></scales>
<clustering>
<clus scale="   46.915">  1  6  2 -1</clus>
<clus scale="   50.662">  4  5 -1 -1</clus>
<clus scale="  146.659">  2  3  1 -1</clus>
<clus scale="   46.915">  1  3  2 -1</clus>
</clustering>
</event>
<event>
 6    0  0.5563122E+002  0.1209318E+03  0.7546771E-02  0.1241568E+00
         21   -1    0    0  503  501  0.00000000000E+00  0.00000000000E+00  0.97107540257E+03  0.97107540257E+03  0.00000000000E+00 0. -1.
         21   -1    0    0  504  502 -0.00000000000E+00 -0.00000000000E+00 -0.52330927183E+02  0.52330927183E+02  0.00000000000E+00 0.  1.
         21    1    1    2  503  502  0.14727362278E+03 -0.39935727660E+02  0.78066765792E+03  0.79544099369E+03  0.00000000000E+00 0. -1.
         21    1    1    2  504  506 -0.44926895592E+02  0.25356390577E+02  0.93609195186E+01  0.52430900286E+02  0.00000000000E+00 0.  1.
         21    1    1    2  505  501 -0.38570466289E+02  0.17140454507E+02  0.93619187791E+02  0.10269385752E+03  0.00000000000E+00 0.  1.
         21    1    1    2  506  505 -0.63776260902E+02 -0.25611174238E+01  0.35096710157E+02  0.72840578258E+02  0.00000000000E+00 0.  1.
<scales pt_clust_3="115.08275" pt_clust_4="33.40290" pt_clust_5="42.20754" pt_clust_6="33.40290"></scales>
<clustering>
<clus scale="   33.403">  4  6 -1 -1</clus>
<clus scale="   42.208">  1  5  2 -1</clus>
<clus scale="  115.083">  1  3  2 -1</clus>
<clus scale="   42.208">  1  3  2 -1</clus>
</clustering>
</event>
<event>
 6    0  0.5563122E+002  0.1408005E+03  0.7546771E-02  0.1212256E+00
         21   -1    0    0  505  501  0.00000000000E+00  0.00000000000E+00  0.13573671662E+03  0.13573671662E+03  0.00000000000E+00 0.  1.
         21   -1    0    0  503  502 -0.00000000000E+00 -0.00000000000E+00 -0.17149409258E+04  0.17149409258E+04  0.00000000000E+00 0.  1.
         21    1    1    2  503  506 -0.28166348274E+02 -0.13665335131E+02 -0.21810123139E+03  0.22033663266E+03  0.00000000000E+00 0.  1.
         21    1    1    2  504  501  0.52549338902E+02 -0.12752225011E+03  0.79549931645E+02  0.15922169738E+03  0.00000000000E+00 0.  1.
         21    1    1    2  505  502 -0.63799777975E+01 -0.59617767519E+02 -0.72893848340E+03  0.73140022894E+03  0.00000000000E+00 0.  1.
         21    1    1    2  506  504 -0.18003012831E+02  0.20080535276E+03 -0.71171442603E+03  0.73971908343E+03  0.00000000000E+00 0.  1.
<scales pt_clust_3="31.30630" pt_clust_4="140.80045" pt_clust_5="69.27786" pt_clust_6="14000.00000"></scales>
<clustering>
<clus scale="   31.306">  2  3  1 -1</clus>
<clus scale="   69.278">  2  5  1 -1</clus>
<clus scale="  140.800">  1  4  2 -1</clus>
<clus scale="  140.800">  1  3  2 -1</clus>
</clustering>
</event>
<event>
 6    0  0.5563122E+002  0.1709332E+03  0.7546771E-02  0.1176878E+00
         21   -1    0    0  506  501  0.00000000000E+00  0.00000000000E+00  0.17198420198E+03  0.17198420198E+03  0.00000000000E+00 0.  1.
         21   -1    0    0  503  502 -0.00000000000E+00 -0.00000000000E+00 -0.12201843536E+04  0.12201843536E+04  0.00000000000E+00 0.  1.
         21    1    1    2  503  501 -0.60629099451E+02  0.15222738923E+03 -0.94015697118E+02  0.18891272333E+03  0.00000000000E+00 0.  1.
         21    1    1    2  504  505  0.21145773439E+03 -0.36193227931E+02 -0.38668324125E+03  0.44220838102E+03  0.00000000000E+00 0.  1.
         21    1    1    2  505  502 -0.30364344402E+02 -0.22461910420E+02 -0.60320641537E+03  0.60438771527E+03  0.00000000000E+00 0.  1.
         21    1    1    2  506  504 -0.12046429054E+03 -0.93572250878E+02  0.35705202076E+02  0.15665973600E+03  0.00000000000E+00 0.  1.
<scales pt_clust_3="170.93324" pt_clust_4="14000.00000" pt_clust_5="37.76944" pt_clust_6="156.24137"></scales>
<clustering>
<clus scale="   37.769">  2  5  1 -1</clus>
<clus scale="  156.241">  1  6  2 -1</clus>
<clus scale="  170.933">  1  3  2 -1</clus>
<clus scale="  156.241">  1  3  2 -1</clus>
</clustering>
</event>
<event>
 6    0  0.5563122E+002  0.2031655E+03  0.7546771E-02  0.1147095E+00
         21   -1    0    0  505  501  0.00000000000E+00  0.00000000000E+00  0.10131609625E+03  0.10131609625E+03  0.00000000000E+00 0. -1.
         21   -1    0    0  503  502 -0.00000000000E+00 -0.00000000000E+00 -0.73129507071E+03  0.73129507071E+03  0.00000000000E+00 0. -1.
         21    1    1    2  503  501 -0.77255761152E+02  0.14705866564E+02 -0.30986896401E+02  0.84527527417E+02  0.00000000000E+00 0. -1.
         21    1    1    2  504  502 -0.15082377453E+03 -0.74970317559E+02 -0.37667006817E+03  0.41261204507E+03  0.00000000000E+00 0. -1.
         21    1    1    2  505  506  0.39715257075E+02  0.83324128319E+01 -0.14896386174E+01  0.40607262544E+02  0.00000000000E+00 0.  1.
         21    1    1    2  506  504  0.18836427860E+03  0.51932038163E+02 -0.22083237127E+03  0.29486433193E+03  0.00000000000E+00 0. -1.
<scales pt_clust_3="78.64296" pt_clust_4="183.88637" pt_clust_5="39.36687" pt_clust_6="39.36687"></scales>
<clustering>
<clus scale="   39.367">  5  6 -1 -1</clus>
<clus scale="   78.643">  1  3  2 -1</clus>
<clus scale="  183.886">  2  4  1 -1</clus>
<clus scale="   78.643">  1  3  2 -1</clus>
</clustering>
</event>
<event>
 6    0  0.5563122E+002  0.1218370E+03  0.7546771E-02  0.1240097E+00
         21   -1    0    0  503  501  0.00000000000E+00  0.00000000000E+00  0.37166023835E+03  0.37166023835E+03  0.00000000000E+00 0. -1.
         21   -1    0    0  506  502 -0.00000000000E+00 -0.00000000000E+00 -0.11149585573E+03  0.11149585573E+03  0.00000000000E+00 0. -1.
         21    1    1    2  503  505  0.29357813912E+02  0.46001736514E+02  0.22952122410E+03  0.23591954839E+03  0.00000000000E+00 0. -1.
         21    1    1    2  504  501 -0.67162213322E+02  0.23760143769E+02  0.17873053231E+02  0.73448984758E+02  0.00000000000E+00 0. -1.
         21    1    1    2  505  502  0.73601355188E+02 -0.92133314100E+02  0.38863227828E+02  0.12416141724E+03  0.00000000000E+00 0. -1.
         21    1    1    2  506  504 -0.35796955779E+02  0.22371433817E+02 -0.26093122546E+02  0.49626143697E+02  0.00000000000E+00 0. -1.
<scales pt_clust_3="54.57143" pt_clust_4="37.32507" pt_clust_5="111.77235" pt_clust_6="37.32507"></scales>
<clustering>
<clus scale="   37.325">  4  6 -1 -1</clus>
<clus scale="   54.571">  1  3  2 -1</clus>
<clus scale="  111.772">  1  5  2 -1</clus>
<clus scale="   54.571">  1  3  2 -1</clus>
</clustering>
</event>
<event>
 6    0  0.5563122E+002  0.2240337E+03  0.7546771E-02  0.1130911E+00
         21   -1    0    0  503  501  0.00000000000E+00  0.00000000000E+00  0.82295025589E+03  0.82295025589E+03  0.00000000000E+00 0. -1.
         21   -1    0    0  504  502 -0.00000000000E+00 -0.00000000000E+00 -0.12726248278E+03  0.12726248278E+03  0.00000000000E+00 0. -1.
         21    1    1    2  503  506 -0.21313116587E+03 -0.10964551857E+03  0.47655552251E+03  0.53343434427E+03  0.00000000000E+00 0. -1.
         21    1    1    2  504  501  0.55516512640E+02 -0.48262096614E+02 -0.23074862913E+02  0.77095800428E+02  0.00000000000E+00 0. -1.
         21    1    1    2  505  502 -0.25075248398E+01  0.30104023594E+02  0.14930993182E+02  0.33696802144E+02  0.00000000000E+00 0. -1.
         21    1    1    2  506  505  0.16012217807E+03  0.12780359159E+03  0.22727612033E+03  0.30598579183E+03  0.00000000000E+00 0. -1.
<scales pt_clust_3="14000.00000" pt_clust_4="64.98567" pt_clust_5="30.20828" pt_clust_6="224.03374"></scales>
<clustering>
<clus scale="   30.208">  2  5  1 -1</clus>
<clus scale="   64.986">  2  4  1 -1</clus>
<clus scale="  224.034">  2  6  1 -1</clus>
<clus scale="  224.034">  1  3  2 -1</clus>
</clustering>
</event>
<event>
 6    0  0.5563122E+002  0.5369359E+03  0.7546771E-02  0.1004564E+00
         21   -1    0    0  506  501  0.00000000000E+00  0.00000000000E+00  0.12063312071E+04  0.12063312071E+04  0.00000000000E+00 0. -1.
         21   -1    0    0  503  502 -0.00000000000E+00 -0.00000000000E+00 -0.11931522828E+04  0.11931522828E+04  0.00000000000E+00 0.  1.
         21    1    1    2  503  505  0.26939934338E+00 -0.10509342719E+03 -0.27389013244E+03  0.29336070913E+03  0.00000000000E+00 0. -1.
         21    1    1    2  504  501 -0.92003639702E+02 -0.14276957587E+03 -0.34825227251E+03  0.38746285864E+03  0.00000000000E+00 0.  1.
         21    1    1    2  505  504 -0.10870209401E+03 -0.23285347806E+03 -0.44809719715E+03  0.51655395225E+03  0.00000000000E+00 0.  1.
         21    1    1    2  506  502  0.20043633437E+03  0.48071648112E+03  0.10834185265E+04  0.12021059699E+04  0.00000000000E+00 0. -1.
<scales pt_clust_3="60.40655" pt_clust_4="33.50484" pt_clust_5="60.40655" pt_clust_6="520.82920"></scales>
<clustering>
<clus scale="   33.505">  4  5 -1 -1</clus>
<clus scale="   60.407">  3  4 -1 -1</clus>
<clus scale="  520.829">  1  6  2 -1</clus>
<clus scale="  520.829">  1  3  2 -1</clus>
</clustering>
</event>
<event>
 6    0  0.5563122E+002  0.7314480E+02  0.7546771E-02  0.1349714E+00
         21   -1    0    0  503  501  0.00000000000E+00  0.00000000000E+00  0.10578731653E+03  0.10578731653E+03  0.00000000000E+00 0. -1.
         21   -1    0    0  505  502 -0.00000000000E+00 -0.00000000000E+00 -0.13424732324E+04  0.13424732324E+04  0.00000000000E+00 0.  1.
         21    1    1    2  503  502 -0.66878224157E+02  0.39154875431E+02 -0.10371088741E+03  0.12946717462E+03  0.00000000000E+00 0. -1.
         21    1    1    2  504  501  0.55219510581E+02  0.23598603839E+02  0.59501629788E+02  0.84537165787E+02  0.00000000000E+00 0. -1.
         21    1    1    2  505  506 -0.51021088076E+02 -0.55404567053E+02 -0.11615271436E+04  0.11639665471E+04  0.00000000000E+00 0.  1.
         21    1    1    2  506  504  0.62679801652E+02 -0.73489122173E+01 -0.30949514668E+02  0.70289661432E+02  0.00000000000E+00 0. -1.
<scales pt_clust_3="66.47001" pt_clust_4="60.05072" pt_clust_5="14000.00000" pt_clust_6="73.14480"></scales>
<clustering>
<clus scale="   60.051">  1  4  2 -1</clus>
<clus scale="   66.470">  1  3  2 -1</clus>
<clus scale="   73.145">  1  6  2 -1</clus>
<clus scale="   60.051">  1  3  2 -1</clus>
</clustering>
</event>
<event>
 6    0  0.5563122E+002  0.1110906E+03  0.7546771E-02  0.1258564E+00
         21   -1    0    0  504  501  0.00000000000E+00  0.00000000000E+00  0.65256974936E+02  0.65256974936E+02  0.00000000000E+00 0.  1.
         21   -1    0    0  503  502 -0.00000000000E+00 -0.00000000000E+00 -0.55420325547E+03  0.55420325547E+03  0.00000000000E+00 0.  1.
         21    1    1    2  503  506  0.39099209264E+02  0.22578176773E+02 -0.35498018494E+03  0.35783998370E+03  0.00000000000E+00 0.  1.
         21    1    1    2  504  502  0.72150031153E+02 -0.51741508672E+02 -0.23007890078E+02  0.91717902947E+02  0.00000000000E+00 0.  1.
         21    1    1    2  505  501 -0.21484606474E+02  0.31694322791E+02 -0.40727895321E+02  0.55900624950E+02  0.00000000000E+00 0.  1.
         21    1    1    2  506  505 -0.89764633943E+02 -0.25309908907E+01 -0.70230310193E+02  0.11400171881E+03  0.00000000000E+00 0.  1.
<scales pt_clust_3="45.15000" pt_clust_4="94.93644" pt_clust_5="37.67102" pt_clust_6="37.67102"></scales>
<clustering>
<clus scale="   37.671">  5  6 -1 -1</clus>
<clus scale="   45.150">  2  3  1 -1</clus>
<clus scale="   94.936">  1  4  2 -1</clus>
<clus scale="   94.936">  1  3  2 -1</clus>
</clustering>
</event>
<event>
 6    0  0.5563122E+002  0.1592839E+03  0.7546771E-02  0.1189508E+00
         21   -1    0    0  505  501  0.00000000000E+00  0.00000000000E+00  0.24967086199E+04  0.24967086199E+04  0.00000000000E+00 0. -1.
         21   -1    0    0  506  502 -0.00000000000E+00 -0.00000000000E+00 -0.72391197233E+02  0.72391197233E+02  0.00000000000E+00 0.  1.
         21    1    1    2  503  501  0.75364648628E+02 -0.27029040981E+02  0.75657503908E+03  0.76079970365E+03  0.00000000000E+00 0. -1.
         21    1    1    2  504  502  0.10117311934E+02  0.80041528504E+02  0.14099117174E+03  0.16244234914E+03  0.00000000000E+00 0. -1.
         21    1    1    2  505  504 -0.78002129726E+02 -0.14388540344E+03  0.15443467961E+04  0.15529952892E+04  0.00000000000E+00 0. -1.
         21    1    1    2  506  503 -0.74798308357E+01  0.90872915915E+02 -0.17595584221E+02  0.92862475200E+02  0.00000000000E+00 0.  1.
<scales pt_clust_3="80.06497" pt_clust_4="79.45607" pt_clust_5="14000.00000" pt_clust_6="159.28390"></scales>
<clustering>
<clus scale="   80.065">  1  3  2 -1</clus>
<clus scale="   79.456">  2  4  1 -1</clus>
<clus scale="  159.284">  2  6  1 -1</clus>
<clus scale="   80.065">  1  3  2 -1</clus>
</clustering>
</event>
<event>
 6    0  0.5563122E+002  0.2835885E+03  0.7546771E-02  0.1093745E+00
         21   -1    0    0  503  501  0.00000000000E+00  0.00000000000E+00  0.25712465401E+04  0.25712465401E+04  0.00000000000E+00 0. -1.
         21   -1    0    0  506  502 -0.00000000000E+00 -0.00000000000E+00 -0.62684414709E+02  0.62684414709E+02  0.00000000000E+00 0. -1.
         21    1    1    2  503  504 -0.81264124774E+02  0.82929864815E+02  0.11551522657E+03  0.16378335698E+03  0.00000000000E+00 0.  1.
         21    1    1    2  504  502 -0.16313565070E+03 -0.93759023121E+01  0.25890503575E+03  0.30615839954E+03  0.00000000000E+00 0. -1.
         21    1    1    2  505  501  0.11875697154E+02  0.31592394810E+02  0.10374154539E+04  0.10379643229E+04  0.00000000000E+00 0. -1.
         21    1    1    2  506  505  0.23252407832E+03 -0.10514635731E+03  0.10967264091E+04  0.11260248754E+04  0.00000000000E+00 0. -1.
<scales pt_clust_3="106.38093" pt_clust_4="106.38093" pt_clust_5="33.75073" pt_clust_6="254.77275"></scales>
<clustering>
<clus scale="   33.751">  1  5  2 -1</clus>
<clus scale="  106.381">  3  4 -1 -1</clus>
<clus scale="  254.773">  1  6  2 -1</clus>
<clus scale="   33.751">  1  3  2 -1</clus>
</clustering>
</event>
<event>
 6    0  0.5563122E+002  0.2503886E+03  0.7546771E-02  0.1113060E+00
         21   -1    0    0  504  501  0.00000000000E+00  0.00000000000E+00  0.93091660001E+03  0.93091660001E+03  0.00000000000E+00 0. -1.
         21   -1    0    0  503  502 -0.00000000000E+00 -0.00000000000E+00 -0.34844185168E+03  0.34844185168E+03  0.00000000000E+00 0. -1.
         21    1    1    2  503  505  0.95317348603E+02  0.75716023993E+02  0.40177298352E+01  0.12179677905E+03  0.00000000000E+00 0. -1.
         21    1    1    2  504  506 -0.31323286586E+03 -0.54913943069E+02  0.43349405688E+03  0.53763134837E+03  0.00000000000E+00 0. -1.
         21    1    1    2  505  501  0.17544437256E+03  0.12919197010E+03  0.31898561183E+03  0.38629407652E+03  0.00000000000E+00 0. -1.
         21    1    1    2  506  502  0.42471144699E+02 -0.14999405102E+03 -0.17402265022E+03  0.23363624775E+03  0.00000000000E+00 0. -1.
<scales pt_clust_3="121.73049" pt_clust_4="250.38857" pt_clust_5="14000.00000" pt_clust_6="146.13419"></scales>
<clustering>
<clus scale="  121.730">  2  3  1 -1</clus>
<clus scale="  146.134">  2  6  1 -1</clus>
<clus scale="  250.389">  2  4  1 -1</clus>
<clus scale="  250.389">  1  3  2 -1</clus>
</clustering>
</event>
<event>
 6    0  0.5563122E+002  0.1272423E+03  0.7546771E-02  0.1231606E+00
         21   -1    0    0  503  501  0.00000000000E+00  0.00000000000E+00  0.66703659956E+03  0.66703659956E+03  0.00000000000E+00 0.  1.
         21   -1    0    0  505  502 -0.00000000000E+00 -0.00000000000E+00 -0.79303037245E+02  0.79303037245E+02  0.00000000000E+00 0.  1.
         21    1    1    2  503  506 -0.51767568308E+02  0.11837166451E+03  0.50581926186E+03  0.52205828962E+03  0.00000000000E+00 0.  1.
         21    1    1    2  504  502  0.25449864062E+02 -0.19304344580E+02  0.30902165142E+02  0.44444314720E+02  0.00000000000E+00 0.  1.
         21    1    1    2  505  501  0.31160795591E+02  0.25773144227E+02  0.35747748798E+02  0.53973620310E+02  0.00000000000E+00 0. -1.
         21    1    1    2  506  504 -0.48430913445E+01 -0.12484046416E+03  0.15264386512E+02  0.12586341216E+03  0.00000000000E+00 0.  1.
<scales pt_clust_3="127.24234" pt_clust_4="31.94297" pt_clust_5="41.54048" pt_clust_6="14000.00000"></scales>
<clustering>
<clus scale="   31.943">  2  4  1 -1</clus>
<clus scale="   41.540">  2  5  1 -1</clus>
<clus scale="  127.242">  1  3  2 -1</clus>
<clus scale="  127.242">  1  3  2 -1</clus>
</clustering>
</event>
<event>
 6    0  0.5563122E+002  0.1029254E+03  0.7546771E-02  0.1274262E+00
         21   -1    0    0  504  501  0.00000000000E+00  0.00000000000E+00  0.55593852242E+02  0.55593852242E+02  0.00000000000E+00 0. -1.
         21   -1    0    0  505  502 -0.00000000000E+00 -0.00000000000E+00 -0.93118403520E+03  0.93118403520E+03  0.00000000000E+00 0.  1.
         21    1    1    2  503  506 -0.45391756444E+02  0.83845512275E+02 -0.22122312935E+03  0.24089448819E+03  0.00000000000E+00 0.  1.
         21    1    1    2  504  503 -0.22282557549E+02 -0.11944332295E+03 -0.19629911215E+03  0.23086047995E+03  0.00000000000E+00 0. -1.
         21    1    1    2  505  501  0.10523810811E+03  0.14693407702E+01 -0.76546593576E+02  0.13014069060E+03  0.00000000000E+00 0. -1.
         21    1    1    2  506  502 -0.37563794120E+02  0.34128469906E+02 -0.38152134788E+03  0.38488222870E+03  0.00000000000E+00 0.  1.
<scales pt_clust_3="102.92544" pt_clust_4="14000.00000" pt_clust_5="98.47183" pt_clust_6="50.75225"></scales>
<clustering>
<clus scale="   50.752">  2  6  1 -1</clus>
<clus scale="   98.472">  1  5  2 -1</clus>
<clus scale="  102.925">  2  3  1 -1</clus>
<clus scale="   98.472">  1  3  2 -1</clus>
</clustering>
</event>
<event>
 6    0  0.5563122E+002  0.9071034E+02  0.7546771E-02  0.1301141E+00
         21   -1    0    0  504  501  0.00000000000E+00  0.00000000000E+00  0.11120477102E+03  0.11120477102E+03  0.00000000000E+00 0.  1.
         21   -1    0    0  503  502 -0.00000000000E+00 -0.00000000000E+00 -0.72820205153E+03  0.72820205153E+03  0.00000000000E+00 0. -1.
         21    1    1    2  503  505 -0.26858445142E+02  0.26919655437E+02 -0.70724131855E+02  0.80299108033E+02  0.00000000000E+00 0.  1.
         21    1    1    2  504  506 -0.15436948450E+01 -0.91599463949E+02  0.72999676173E+02  0.11714007645E+03  0.00000000000E+00 0.  1.
         21    1    1    2  505  501 -0.37275050345E+02 -0.16247213890E+00 -0.37338354405E+02  0.52759913619E+02  0.00000000000E+00 0.  1.
         21    1    1    2  506  502  0.65677190332E+02  0.64842280652E+02 -0.58193447042E+03  0.58920772445E+03  0.00000000000E+00 0. -1.
<scales pt_clust_3="77.63506" pt_clust_4="90.71034" pt_clust_5="34.27058" pt_clust_6="14000.00000"></scales>
<clustering>
<clus scale="   34.271">  3  5 -1 -1</clus>
<clus scale="   77.635">  2  3  1 -1</clus>
<clus scale="   90.710">  1  4  2 -1</clus>
<clus scale="   90.710">  1  3  2 -1</clus>
</clustering>
</event>
<event>
 6    0  0.5563122E+002  0.2330462E+03  0.7546771E-02  0.1124514E+00
         21   -1    0    0  502  501  0.00000000000E+00  0.00000000000E+00  0.30933345823E+03  0.30933345823E+03  0.00000000000E+00 0.  1.
         21   -1    0    0  505  502 -0.00000000000E+00 -0.00000000000E+00 -0.40599758536E+03  0.40599758536E+03  0.00000000000E+00 0.  1.
         21    1    1    2  503  506  0.10268401955E+02 -0.39771324700E+02 -0.45630645511E+02  0.61395066226E+02  0.00000000000E+00 0.  1.
         21    1    1    2  504  501  0.86272676029E+02  0.20784923319E+03  0.18562528555E+03  0.29172079974E+03  0.00000000000E+00 0.  1.
         21    1    1    2  505  503 -0.30139647305E+02 -0.85657224514E+01 -0.17650151089E+03  0.17926113156E+03  0.00000000000E+00 0.  1.
         21    1    1    2  506  504 -0.66401430679E+02 -0.15951218604E+03 -0.60157256280E+02  0.18295404607E+03  0.00000000000E+00 0.  1.
<scales pt_clust_3="35.90816" pt_clust_4="220.59006" pt_clust_5="31.33321" pt_clust_6="35.90816"></scales>
<clustering>
<clus scale="   31.333">  2  5  1 -1</clus>
<clus scale="   35.908">  3  6 -1 -1</clus>
<clus scale="  220.590">  1  4  2 -1</clus>
<clus scale="  220.590">  1  3  2 -1</clus>
</clustering>
</event>
<event>
 6    0  0.5563122E+002  0.4116105E+03  0.7546771E-02  0.1039832E+00
         21   -1    0    0  506  501  0.00000000000E+00  0.00000000000E+00  0.93664222326E+03  0.93664222326E+03  0.00000000000E+00 0. -1.
         21   -1    0    0  503  502 -0.00000000000E+00 -0.00000000000E+00 -0.29393899296E+03  0.29393899296E+03  0.00000000000E+00 0. -1.
         21    1    1    2  503  504 -0.16787241753E+03  0.13694474076E+03  0.67962546119E+01  0.21675146981E+03  0.00000000000E+00 0. -1.
         21    1    1    2  504  505 -0.17914192815E+03  0.78871203340E+02  0.24565705261E+02  0.19727131320E+03  0.00000000000E+00 0. -1.
         21    1    1    2  505  501 -0.15683374556E+02 -0.32904292975E+02  0.30656628816E+03  0.30872568692E+03  0.00000000000E+00 0. -1.
         21    1    1    2  506  502  0.36269772023E+03 -0.18291165112E+03  0.30477498227E+03  0.50783274628E+03  0.00000000000E+00 0. -1.
<scales pt_clust_3="55.94474" pt_clust_4="55.94474" pt_clust_5="36.45080" pt_clust_6="407.41547"></scales>
<clustering>
<clus scale="   36.451">  1  5  2 -1</clus>
<clus scale="   55.945">  3  4 -1 -1</clus>
<clus scale="  407.415">  1  6  2 -1</clus>
<clus scale="   36.451">  1  3  2 -1</clus>
</clustering>
</event>
<event>
 6    0  0.5563122E+002  0.3420224E+03  0.7546771E-02  0.1065938E+00
         21   -1    0    0  504  501  0.00000000000E+00  0.00000000000E+00  0.13343270511E+04  0.13343270511E+04  0.00000000000E+00 0.  1.
         21   -1    0    0  506  502 -0.00000000000E+00 -0.00000000000E+00 -0.10794378538E+03  0.10794378538E+03  0.00000000000E+00 0.  1.
         21    1    1    2  503  505  0.14439200174E+03  0.15364187912E+03  0.26545277233E+03  0.33899860106E+03  0.00000000000E+00 0.  1.
         21    1    1    2  504  503  0.40523599906E+01  0.29911733138E+02  0.15417202828E+03  0.15709916520E+03  0.00000000000E+00 0.  1.
         21    1    1    2  505  502  0.52366212300E+02  0.10523442856E+03  0.90987288278E+02  0.14864451478E+03  0.00000000000E+00 0.  1.
         21    1    1    2  506  501 -0.20081057403E+03 -0.28878804082E+03  0.71577117686E+03  0.79752855547E+03  0.00000000000E+00 0.  1.
<scales pt_clust_3="52.74105" pt_clust_4="30.18499" pt_clust_5="52.74105" pt_clust_6="334.60986"></scales>
<clustering>
<clus scale="   30.185">  1  4  2 -1</clus>
<clus scale="   52.741">  3  5 -1 -1</clus>
<clus scale="  334.610">  1  6  2 -1</clus>
<clus scale="   30.185">  1  3  2 -1</clus>
</clustering>
</event>
<event>
 6    0  0.5563122E+002  0.1041146E+03  0.7546771E-02  0.1271874E+00
         21   -1    0    0  503  501  0.00000000000E+00  0.00000000000E+00  0.36632338015E+03  0.36632338015E+03  0.00000000000E+00 0.  1.
         21   -1    0    0  506  502 -0.00000000000E+00 -0.00000000000E+00 -0.16952303254E+04  0.16952303254E+04  0.00000000000E+00 0.  1.
         21    1    1    2  503  505 -0.83662656508E+00 -0.77353870524E+02 -0.37810372150E+03  0.38593619348E+03  0.00000000000E+00 0.  1.
         21    1    1    2  504  501  0.29755166826E+02  0.10039056126E+03  0.35150143497E+03  0.36676544756E+03  0.00000000000E+00 0.  1.
         21    1    1    2  505  502 -0.52429982956E+02 -0.62733734789E+02 -0.69375319324E+03  0.69855416234E+03  0.00000000000E+00 0.  1.
         21    1    1    2  506  504  0.23511442695E+02  0.39697044057E+02 -0.60855146545E+03  0.61029790213E+03  0.00000000000E+00 0.  1.
<scales pt_clust_3="14000.00000" pt_clust_4="104.11463" pt_clust_5="52.77721" pt_clust_6="46.13722"></scales>
<clustering>
<clus scale="   46.137">  2  6  1 -1</clus>
<clus scale="   52.777">  2  5  1 -1</clus>
<clus scale="  104.115">  1  4  2 -1</clus>
<clus scale="  104.115">  1  3  2 -1</clus>
</clustering>
</event>
<event>
 6    0  0.5563122E+002  0.1406325E+03  0.7546771E-02  0.1212480E+00
         21   -1    0    0  505  501  0.00000000000E+00  0.00000000000E+00  0.11773578784E+04  0.11773578784E+04  0.00000000000E+00 0.  1.
         21   -1    0    0  506  502 -0.00000000000E+00 -0.00000000000E+00 -0.47475782513E+02  0.47475782513E+02  0.00000000000E+00 0. -1.
         21    1    1    2  503  501 -0.16013503459E+02 -0.13756244503E+03  0.61860556162E+03  0.63391852745E+03  0.00000000000E+00 0. -1.
         21    1    1    2  504  503  0.51192519122E+02 -0.34071028327E+02  0.73067084038E+02  0.95500302383E+02  0.00000000000E+00 0. -1.
         21    1    1    2  505  502 -0.88230503556E+02  0.14640496018E+03  0.34880356075E+03  0.38843655610E+03  0.00000000000E+00 0.  1.
         21    1    1    2  506  504  0.53051487893E+02  0.25228513179E+02  0.89405889496E+02  0.10697827500E+03  0.00000000000E+00 0.  1.
<scales pt_clust_3="140.63249" pt_clust_4="71.74870" pt_clust_5="14000.00000" pt_clust_6="58.74469"></scales>
<clustering>
<clus scale="   58.745">  2  6  1 -1</clus>
<clus scale="   71.749">  2  4  1 -1</clus>
<clus scale="  140.632">  1  3  2 -1</clus>
<clus scale="  140.632">  1  3  2 -1</clus>
</clustering>
</event>
<event>
 6    0  0.5563122E+002  0.2704984E+03  0.7546771E-02  0.1100995E+00
         21   -1    0    0  503  501  0.00000000000E+00  0.00000000000E+00  0.21354005913E+04  0.21354005913E+04  0.00000000000E+00 0. -1.
         21   -1    0    0  501  502 -0.00000000000E+00 -0.00000000000E+00 -0.73131208426E+03  0.73131208426E+03  0.00000000000E+00 0. -1.
         21    1    1    2  503  504  0.15663209059E+03  0.22658738431E+03  0.14345561350E+04  0.14607623897E+04  0.00000000000E+00 0. -1.
         21    1    1    2  504  506 -0.73129171408E+02 -0.25787476463E+03  0.49017172888E+03  0.55867306516E+03  0.00000000000E+00 0. -1.
         21    1    1    2  505  502  0.26405574265E+02  0.22075468476E+02 -0.66484112104E+03  0.66573139995E+03  0.00000000000E+00 0. -1.
         21    1    1    2  506  505 -0.10990849344E+03  0.92119118471E+01  0.14420176421E+03  0.18154582080E+03  0.00000000000E+00 0. -1.
<scales pt_clust_3="270.49840" pt_clust_4="14000.00000" pt_clust_5="34.41774" pt_clust_6="103.60027"></scales>
<clustering>
<clus scale="   34.418">  2  5  1 -1</clus>
<clus scale="  103.600">  2  6  1 -1</clus>
<clus scale="  270.498">  1  3  2 -1</clus>
<clus scale="  270.498">  1  3  2 -1</clus>
</clustering>
</event>
<event>
 6    0  0.5563122E+002  0.2825299E+03  0.7546771E-02  0.1094315E+00
         21   -1    0    0  503  501  0.00000000000E+00  0.00000000000E+00  0.10136498844E+04  0.10136498844E+04  0.00000000000E+00 0. -1.
         21   -1    0    0  506  502 -0.00000000000E+00 -0.00000000000E+00 -0.26461249759E+04  0.26461249759E+04  0.00000000000E+00 0.  1.
         21    1    1    2  503  505 -0.33205307705E+02 -0.94720223194E+01  0.33758153816E+03  0.33934290412E+03  0.00000000000E+00 0.  1.
         21    1    1    2  504  502 -0.70336275683E+02  0.27428545246E+03 -0.25897623521E+04  0.26051964881E+04  0.00000000000E+00 0.  1.
         21    1    1    2  505  504  0.93600582019E+02 -0.21352462267E+03  0.62063973053E+03  0.66298379207E+03  0.00000000000E+00 0. -1.
         21    1    1    2  506  501  0.99410013695E+01 -0.51288807471E+02 -0.93400805191E+00  0.52251676060E+02  0.00000000000E+00 0.  1.
<scales pt_clust_3="34.52987" pt_clust_4="282.52994" pt_clust_5="14000.00000" pt_clust_6="52.37292"></scales>
<clustering>
<clus scale="   34.530">  1  3  2 -1</clus>
<clus scale="   52.373">  1  6  2 -1</clus>
<clus scale="  282.530">  2  4  1 -1</clus>
<clus scale="   34.530">  1  3  2 -1</clus>
</clustering>
</event>
<event>
 6    0  0.5563122E+002  0.1809595E+03  0.7546771E-02  0.1166878E+00
         21   -1    0    0  503  501  0.00000000000E+00  0.00000000000E+00  0.10862087505E+04  0.10862087505E+04  0.00000000000E+00 0.  1.
         21   -1    0    0  506  502 -0.00000000000E+00 -0.00000000000E+00 -0.17790202593E+03  0.17790202593E+03  0.00000000000E+00 0.  1.
         21    1    1    2  503  505 -0.58754770526E+02 -0.31987605003E+02  0.26917630435E+03  0.27736476480E+03  0.00000000000E+00 0.  1.
         21    1    1    2  504  501  0.15499070025E+03 -0.11224936808E+03  0.36798669373E+03  0.41477252146E+03  0.00000000000E+00 0.  1.
         21    1    1    2  505  502 -0.12245290236E+03  0.11877474666E+03  0.40168695261E+03  0.43641100082E+03  0.00000000000E+00 0.  1.
         21    1    1    2  506  504  0.26216972629E+02  0.25462226428E+02 -0.13054322612E+03  0.13556248934E+03  0.00000000000E+00 0.  1.
<scales pt_clust_3="63.69080" pt_clust_4="180.95951" pt_clust_5="14000.00000" pt_clust_6="36.54661"></scales>
<clustering>
<clus scale="   36.547">  2  6  1 -1</clus>
<clus scale="   63.691">  1  3  2 -1</clus>
<clus scale="  180.960">  2  4  1 -1</clus>
<clus scale="   63.691">  1  3  2 -1</clus>
</clustering>
</event>
<event>
 6    0  0.5563122E+002  0.2472640E+03  0.7546771E-02  0.1115046E+00
         21   -1    0    0  506  501  0.00000000000E+00  0.00000000000E+00  0.38977457904E+03  0.38977457904E+03  0.00000000000E+00 0. -1.
         21   -1    0    0  504  502 -0.00000000000E+00 -0.00000000000E+00 -0.51105334688E+03  0.51105334688E+03  0.00000000000E+00 0. -1.
         21    1    1    2  503  501 -0.95054772039E+02 -0.20513688342E+03  0.29046555853E+03  0.36808530440E+03  0.00000000000E+00 0. -1.
         21    1    1    2  504  505  0.47578816393E+02  0.17217867285E+03 -0.22638077493E+03  0.28837041182E+03  0.00000000000E+00 0. -1.
         21    1    1    2  505  503  0.62482449109E+02  0.67531702283E+02 -0.51779952212E+02  0.10557343753E+03  0.00000000000E+00 0. -1.
         21    1    1    2  506  502 -0.15006493464E+02 -0.34573491722E+02 -0.13358359922E+03  0.13879877217E+03  0.00000000000E+00 0. -1.
<scales pt_clust_3="229.99062" pt_clust_4="67.49598" pt_clust_5="67.49598" pt_clust_6="37.68980"></scales>
<clustering>
<clus scale="   37.690">  2  6  1 -1</clus>
<clus scale="   67.496">  4  5 -1 -1</clus>
<clus scale="  229.991">  1  3  2 -1</clus>
<clus scale="  229.991">  1  3  2 -1</clus>
</clustering>
</event>
<event>
 6    0  0.5563122E+002  0.1209283E+03  0.7546771E-02  0.1241573E+00
         21   -1    0    0  506  501  0.00000000000E+00  0.00000000000E+00  0.85184278117E+03  0.85184278117E+03  0.00000000000E+00 0.  1.
         21   -1    0    0  503  502 -0.00000000000E+00 -0.00000000000E+00 -0.80199441982E+02  0.80199441982E+02  0.00000000000E+00 0.  1.
         21    1    1    2  503  504 -0.68847927672E+02 -0.90163219705E+02  0.30251609452E+02  0.11740784985E+03  0.00000000000E+00 0.  1.
         21    1    1    2  504  501  0.16758098455E+03  0.24807432667E+02  0.56297348160E+03  0.58790980268E+03  0.00000000000E+00 0.  1.
         21    1    1    2  505  502 -0.43589706822E+02  0.59997120134E+02  0.57914065615E+02  0.94094399202E+02  0.00000000000E+00 0.  1.
         21    1    1    2  506  505 -0.55143350057E+02  0.53586669045E+01  0.12050418252E+03  0.13263017142E+03  0.00000000000E+00 0.  1.
<scales pt_clust_3="14000.00000" pt_clust_4="120.92829" pt_clust_5="78.13187" pt_clust_6="55.40311"></scales>
<clustering>
<clus scale="   55.403">  1  6  2 -1</clus>
<clus scale="   78.132">  2  5  1 -1</clus>
<clus scale="  120.928">  1  4  2 -1</clus>
<clus scale="   55.403">  1  3  2 -1</clus>
</clustering>
</event>
<event>
 6    0  0.5563122E+002  0.1118168E+03  0.7546771E-02  0.1257242E+00
         21   -1    0    0  505  501  0.00000000000E+00  0.00000000000E+00  0.12402856450E+03  0.12402856450E+03  0.00000000000E+00 0.  1.
         21   -1    0    0  506  502 -0.00000000000E+00 -0.00000000000E+00 -0.14643522786E+04  0.14643522786E+04  0.00000000000E+00 0. -1.
         21    1    1    2  503  502  0.15971347751E+02 -0.27038255217E+02 -0.50971331866E+03  0.51067976112E+03  0.00000000000E+00 0.  1.
         21    1    1    2  504  501 -0.83701137058E+02 -0.13551240638E+02 -0.78356414322E+03  0.78813849228E+03  0.00000000000E+00 0. -1.
         21    1    1    2  505  503  0.88812691295E+02  0.70024577876E+02  0.92055217919E+02  0.14582626234E+03  0.00000000000E+00 0.  1.
         21    1    1    2  506  504 -0.21082901988E+02 -0.29435082020E+02 -0.13910147018E+03  0.14373632740E+03  0.00000000000E+00 0. -1.
<scales pt_clust_3="31.40304" pt_clust_4="14000.00000" pt_clust_5="111.81675" pt_clust_6="38.32337"></scales>
<clustering>
<clus scale="   31.403">  2  3  1 -1</clus>
<clus scale="   38.323">  2  6  1 -1</clus>
<clus scale="  111.817">  1  5  2 -1</clus>
<clus scale="  111.817">  1  3  2 -1</clus>
</clustering>
</event>
<event>
 6    0  0.5563122E+002  0.2221395E+03  0.7546771E-02  0.1132298E+00
         21   -1    0    0  505  501  0.00000000000E+00  0.00000000000E+00  0.93231472214E+02  0.93231472214E+02  0.00000000000E+00 0.  1.
         21   -1    0    0  504  502 -0.00000000000E+00 -0.00000000000E+00 -0.60535215117E+03  0.60535215117E+03  0.00000000000E+00 0.  1.
         21    1    1    2  503  502  0.85701863397E+02 -0.75451680177E+02 -0.14668645427E+03  0.18588889503E+03  0.00000000000E+00 0.  1.
         21    1    1    2  504  501 -0.12240368942E+03  0.15695544295E+03 -0.14214205995E+03  0.24458544409E+03  0.00000000000E+00 0.  1.
         21    1    1    2  505  506  0.14393771562E+02  0.29580214925E+02 -0.32707237243E+02  0.46388933409E+02  0.00000000000E+00 0. -1.
         21    1    1    2  506  503  0.22308054456E+02 -0.11108397769E+03 -0.19058492750E+03  0.22172035086E+03  0.00000000000E+00 0.  1.
<scales pt_clust_3="75.70986" pt_clust_4="208.36110" pt_clust_5="32.89635" pt_clust_6="75.70986"></scales>
<clustering>
<clus scale="   32.896">  1  5  2 -1</clus>
<clus scale="   75.710">  3  6 -1 -1</clus>
<clus scale="  208.361">  1  4  2 -1</clus>
<clus scale="   32.896">  1  3  2 -1</clus>
</clustering>
</event>
<event>
 6    0  0.5563122E+002  0.9306037E+02  0.7546771E-02  0.1295605E+00
         21   -1    0    0  504  501  0.00000000000E+00  0.00000000000E+00  0.65015391878E+03  0.65015391878E+03  0.00000000000E+00 0. -1.
         21   -1    0    0  506  502 -0.00000000000E+00 -0.00000000000E+00 -0.50931942633E+02  0.50931942633E+02  0.00000000000E+00 0. -1.
         21    1    1    2  503  505  0.84778898761E+02  0.33300314157E+02  0.13397128323E+03  0.16200209051E+03  0.00000000000E+00 0. -1.
         21    1    1    2  504  502 -0.57087124146E+02 -0.65599813712E+02  0.34753015306E+02  0.93648531090E+02  0.00000000000E+00 0. -1.
         21    1    1    2  505  501  0.14568402731E+02  0.42279145380E+02  0.35907338866E+03  0.36184729229E+03  0.00000000000E+00 0. -1.
         21    1    1    2  506  503 -0.42260177346E+02 -0.99796458248E+01  0.71424288949E+02  0.83587947528E+02  0.00000000000E+00 0. -1.
<scales pt_clust_3="14000.00000" pt_clust_4="93.06037" pt_clust_5="44.01584" pt_clust_6="43.42253"></scales>
<clustering>
<clus scale="   43.423">  2  6  1 -1</clus>
<clus scale="   44.016">  1  5  2 -1</clus>
<clus scale="   93.060">  2  4  1 -1</clus>
<clus scale="   44.016">  1  3  2 -1</clus>
</clustering>
</event>
<event>
 6    0  0.5563122E+002  0.1033450E+03  0.7546771E-02  0.1273415E+00
         21   -1    0    0  504  501  0.00000000000E+00  0.00000000000E+00  0.30455778286E+03  0.30455778286E+03  0.00000000000E+00 0. -1.
         21   -1    0    0  503  502 -0.00000000000E+00 -0.00000000000E+00 -0.26108308679E+03  0.26108308679E+03  0.00000000000E+00 0. -1.
         21    1    1    2  503  505 -0.33384069035E+02  0.12583291311E+01 -0.11161578850E+03  0.11650821302E+03  0.00000000000E+00 0. -1.
         21    1    1    2  504  506  0.91358952567E+02 -0.47268503047E+02  0.24056842185E+03  0.26163702946E+03  0.00000000000E+00 0. -1.
         21    1    1    2  505  501 -0.81939005829E+02  0.77684224880E+02 -0.93947917362E+02  0.14688448062E+03  0.00000000000E+00 0. -1.
         21    1    1    2  506  502  0.23964122296E+02 -0.31674050964E+02  0.84699800843E+01  0.40611146555E+02  0.00000000000E+00 0. -1.
<scales pt_clust_3="33.40778" pt_clust_4="103.34496" pt_clust_5="14000.00000" pt_clust_6="37.51332"></scales>
<clustering>
<clus scale="   33.408">  2  3  1 -1</clus>
<clus scale="   37.513">  2  6  1 -1</clus>
<clus scale="  103.345">  1  4  2 -1</clus>
<clus scale="  103.345">  1  3  2 -1</clus>
</clustering>
</event>
<event>
 6    0  0.5563122E+002  0.2059396E+03  0.7546771E-02  0.1144822E+00
         21   -1    0    0  504  501  0.00000000000E+00  0.00000000000E+00  0.69101474524E+03  0.69101474524E+03  0.00000000000E+00 0.  1.
         21   -1    0    0  505  502 -0.00000000000E+00 -0.00000000000E+00 -0.15700941994E+03  0.15700941994E+03  0.00000000000E+00 0. -1.
         21    1    1    2  503  501 -0.22822089488E+03  0.69946891416E+02  0.39891122660E+03  0.46487365077E+03  0.00000000000E+00 0.  1.
         21    1    1    2  504  506  0.15028272215E+03 -0.74797916638E+02  0.13736489569E+03  0.21690721399E+03  0.00000000000E+00 0.  1.
         21    1    1    2  505  503 -0.40377027822E+02 -0.20010870902E+02 -0.47926760739E+01  0.45317867050E+02  0.00000000000E+00 0.  1.
         21    1    1    2  506  502  0.11831520055E+03  0.24861896125E+02  0.25218790795E+01  0.12092543337E+03  0.00000000000E+00 0. -1.
<scales pt_clust_3="205.93963" pt_clust_4="14000.00000" pt_clust_5="45.06373" pt_clust_6="101.45105"></scales>
<clustering>
<clus scale="   45.064">  2  5  1 -1</clus>
<clus scale="  101.451">  2  6  1 -1</clus>
<clus scale="  205.940">  1  3  2 -1</clus>
<clus scale="  205.940">  1  3  2 -1</clus>
</clustering>
</event>
<event>
 6    0  0.5563122E+002  0.9479507E+02  0.7546771E-02  0.1291638E+00
         21   -1    0    0  506  501  0.00000000000E+00  0.00000000000E+00  0.17953941463E+03  0.17953941463E+03  0.00000000000E+00 0.  1.
         21   -1    0    0  504  502 -0.00000000000E+00 -0.00000000000E+00 -0.33758703521E+03  0.33758703521E+03  0.00000000000E+00 0.  1.
         21    1    1    2  503  505 -0.31634523041E+02  0.10030370390E+03 -0.10191994585E+03  0.14645562955E+03  0.00000000000E+00 0. -1.
         21    1    1    2  504  501  0.73344647084E+02 -0.61105549813E+02 -0.13215694952E+03  0.16303001190E+03  0.00000000000E+00 0.  1.
         21    1    1    2  505  502  0.24295816056E+02  0.25959664630E+02 -0.43605822177E+02  0.56264185707E+02  0.00000000000E+00 0.  1.
         21    1    1    2  506  503 -0.66005940100E+02 -0.65157818721E+02  0.11963509697E+03  0.15137662268E+03  0.00000000000E+00 0.  1.
<scales pt_clust_3="14000.00000" pt_clust_4="94.79507" pt_clust_5="35.55546" pt_clust_6="90.78857"></scales>
<clustering>
<clus scale="   35.555">  2  5  1 -1</clus>
<clus scale="   90.789">  1  6  2 -1</clus>
<clus scale="   94.795">  2  4  1 -1</clus>
<clus scale="   90.789">  1  3  2 -1</clus>
</clustering>
</event>
<event>
 6    0  0.5563122E+002  0.1011958E+03  0.7546771E-02  0.1277801E+00
         21   -1    0    0  503  501  0.00000000000E+00  0.00000000000E+00  0.85560739924E+03  0.85560739924E+03  0.00000000000E+00 0.  1.
         21   -1    0    0  506  502 -0.00000000000E+00 -0.00000000000E+00 -0.40350265720E+02  0.40350265720E+02  0.00000000000E+00 0.  1.
         21    1    1    2  503  505  0.11133698463E+03  0.74126917596E+02  0.24526947032E+03  0.27937042994E+03  0.00000000000E+00 0.  1.
         21    1    1    2  504  501 -0.91758667440E+02 -0.20903508966E+02  0.47566747014E+03  0.48488777247E+03  0.00000000000E+00 0.  1.
         21    1    1    2  505  502  0.24929137553E+02 -0.20851693483E+02  0.55622087465E+02  0.64421049620E+02  0.00000000000E+00 0. -1.
         21    1    1    2  506  504 -0.44507454742E+02 -0.32371715147E+02  0.38698105600E+02  0.67278412929E+02  0.00000000000E+00 0.  1.
<scales pt_clust_3="14000.00000" pt_clust_4="101.19578" pt_clust_5="32.50008" pt_clust_6="53.38808"></scales>
<clustering>
<clus scale="   32.500">  2  5  1 -1</clus>
<clus scale="   53.388">  2  6  1 -1</clus>
<clus scale="  101.196">  1  4  2 -1</clus>
<clus scale="  101.196">  1  3  2 -1</clus>
</clustering>
</event>
<event>
 6    0  0.5563122E+002  0.1419701E+03  0.7546771E-02  0.1210702E+00
         21   -1    0    0  503  501  0.00000000000E+00  0.00000000000E+00  0.48236805504E+03  0.48236805504E+03  0.00000000000E+00 0. -1.
         21   -1    0    0  506  502 -0.00000000000E+00 -0.00000000000E+00 -0.33773386722E+03  0.33773386722E+03  0.00000000000E+00 0. -1.
         21    1    1    2  503  504  0.33910751155E+02 -0.11828439584E+03 -0.31211242442E+02  0.12694596881E+03  0.00000000000E+00 0. -1.
         21    1    1    2  504  505 -0.22061657629E+02 -0.34879013441E+02 -0.20702952336E+02  0.46172227057E+02  0.00000000000E+00 0. -1.
         21    1    1    2  505  502  0.10553298029E+03  0.87095761383E+02 -0.19198926213E+03  0.23575995918E+03  0.00000000000E+00 0. -1.
         21    1    1    2  506  501 -0.11738207381E+03  0.66067647894E+02  0.38853764473E+03  0.41122376722E+03  0.00000000000E+00 0. -1.
<scales pt_clust_3="35.11016" pt_clust_4="35.11016" pt_clust_5="128.37489" pt_clust_6="134.69776"></scales>
<clustering>
<clus scale="   35.110">  3  4 -1 -1</clus>
<clus scale="  134.698">  1  6  2 -1</clus>
<clus scale="  128.375">  2  5  1 -1</clus>
<clus scale="  134.698">  1  3  2 -1</clus>
</clustering>
</event>
<event>
 6    0  0.5563122E+002  0.1011025E+03  0.7546771E-02  0.1277994E+00
         21   -1    0    0  506  501  0.00000000000E+00  0.00000000000E+00  0.86164460160E+03  0.86164460160E+03  0.00000000000E+00 0.  1.
         21   -1    0    0  505  502 -0.00000000000E+00 -0.00000000000E+00 -0.30167766583E+03  0.30167766583E+03  0.00000000000E+00 0. -1.
         21    1    1    2  503  501 -0.33926574260E+02 -0.95910829038E+02  0.79461744360E+03  0.80110347723E+03  0.00000000000E+00 0.  1.
         21    1    1    2  504  502 -0.37902781142E+02  0.93535952620E+02 -0.15113844498E+03  0.18173724110E+03  0.00000000000E+00 0. -1.
         21    1    1    2  505  503 -0.11632063005E+02 -0.56368259557E+02 -0.24195158931E+02  0.62434696210E+02  0.00000000000E+00 0. -1.
         21    1    1    2  506  504  0.83461418406E+02  0.58743135974E+02 -0.59316903917E+02  0.11804685289E+03  0.00000000000E+00 0. -1.
<scales pt_clust_3="14000.00000" pt_clust_4="73.04335" pt_clust_5="57.55593" pt_clust_6="101.10255"></scales>
<clustering>
<clus scale="   57.556">  2  5  1 -1</clus>
<clus scale="   73.043">  2  4  1 -1</clus>
<clus scale="  101.103">  2  6  1 -1</clus>
<clus scale="  101.103">  1  3  2 -1</clus>
</clustering>
</event>
<event>
 6    0  0.5563122E+002  0.1121663E+03  0.7546771E-02  0.1256610E+00
         21   -1    0    0  504  501  0.00000000000E+00  0.00000000000E+00  0.76309202029E+02  0.76309202029E+02  0.00000000000E+00 0. -1.
         21   -1    0    0  505  502 -0.00000000000E+00 -0.00000000000E+00 -0.11777671935E+04  0.11777671935E+04  0.00000000000E+00 0. -1.
         21    1    1    2  503  506 -0.35472213147E+01  0.68170525648E+02 -0.27873913221E+03  0.28697614391E+03  0.00000000000E+00 0. -1.
         21    1    1    2  504  502  0.50449667266E+02 -0.84330209709E+02 -0.47933862168E+03  0.48930794744E+03  0.00000000000E+00 0.  1.
         21    1    1    2  505  503 -0.91254208139E+01  0.44699053802E+02 -0.40078996813E+03  0.40337808229E+03  0.00000000000E+00 0. -1.
         21    1    1    2  506  501 -0.37777025138E+02 -0.28539369741E+02  0.57409730568E+02  0.74414221875E+02  0.00000000000E+00 0. -1.
<scales pt_clust_3="35.90535" pt_clust_4="103.20976" pt_clust_5="35.90535" pt_clust_6="47.34553"></scales>
<clustering>
<clus scale="   35.905">  3  5 -1 -1</clus>
<clus scale="   47.346">  1  6  2 -1</clus>
<clus scale="  103.210">  1  4  2 -1</clus>
<clus scale="   47.346">  1  3  2 -1</clus>
</clustering>
</event>
<event>
 6    0  0.5563122E+002  0.9655391E+02  0.7546771E-02  0.1287714E+00
         21   -1    0    0  503  501  0.00000000000E+00  0.00000000000E+00  0.25376507556E+04  0.25376507556E+04  0.00000000000E+00 0. -1.
         21   -1    0    0  504  502 -0.00000000000E+00 -0.00000000000E+00 -0.15289676376E+02  0.15289676376E+02  0.00000000000E+00 0. -1.
         21    1    1    2  503  506 -0.97254785574E+02  0.36671810706E+02  0.68199131311E+03  0.68986626688E+03  0.00000000000E+00 0. -1.
         21    1    1    2  504  505  0.59128641077E+02  0.77021908235E+02  0.41985372918E+03  0.43093587047E+03  0.00000000000E+00 0. -1.
         21    1    1    2  505  501  0.67992848495E+02 -0.67701103617E+02  0.12340730062E+04  0.12377975002E+04  0.00000000000E+00 0.  1.
         21    1    1    2  506  502 -0.29866703998E+02 -0.45992615324E+02  0.18644303074E+03  0.19434079444E+03  0.00000000000E+00 0. -1.
<scales pt_clust_3="14000.00000" pt_clust_4="70.42128" pt_clust_5="96.55391" pt_clust_6="54.83923"></scales>
<clustering>
<clus scale="   54.839">  2  6  1 -1</clus>
<clus scale="   70.421">  2  4  1 -1</clus>
<clus scale="   96.554">  1  5  2 -1</clus>
<clus scale="   96.554">  1  3  2 -1</clus>
</clustering>
</event>
<event>
 6    0  0.5563122E+002  0.6533583E+02  0.7546771E-02  0.1376713E+00
         21   -1    0    0  504  501  0.00000000000E+00  0.00000000000E+00  0.52458826353E+03  0.52458826353E+03  0.00000000000E+00 0. -1.
         21   -1    0    0  503  502 -0.00000000000E+00 -0.00000000000E+00 -0.83024983890E+03  0.83024983890E+03  0.00000000000E+00 0. -1.
         21    1    1    2  503  506  0.57336134508E+02 -0.10535573641E+02 -0.44195846889E+03  0.44578662930E+03  0.00000000000E+00 0.  1.
         21    1    1    2  504  502  0.59321244445E+02 -0.28098529346E+02 -0.98257912409E+02  0.11816579346E+03  0.00000000000E+00 0. -1.
         21    1    1    2  505  501 -0.19607430982E+02  0.33140049791E+02  0.50347042780E+03  0.50494077466E+03  0.00000000000E+00 0. -1.
         21    1    1    2  506  505 -0.97049947972E+02  0.54940531955E+01 -0.26891562186E+03  0.28594490502E+03  0.00000000000E+00 0. -1.
<scales pt_clust_3="14000.00000" pt_clust_4="51.15279" pt_clust_5="38.50603" pt_clust_6="65.33583"></scales>
<clustering>
<clus scale="   38.506">  1  5  2 -1</clus>
<clus scale="   51.153">  1  4  2 -1</clus>
<clus scale="   65.336">  1  6  2 -1</clus>
<clus scale="   38.506">  1  3  2 -1</clus>
</clustering>
</event>
<event>
 6    0  0.5563122E+002  0.8862747E+02  0.7546771E-02  0.1306210E+00
         21   -1    0    0  505  501  0.00000000000E+00  0.00000000000E+00  0.12661446947E+04  0.12661446947E+04  0.00000000000E+00 0. -1.
         21   -1    0    0  503  502 -0.00000000000E+00 -0.00000000000E+00 -0.29922768956E+02  0.29922768956E+02  0.00000000000E+00 0.  1.
         21    1    1    2  503  506 -0.37935228757E+02  0.35673677476E+02  0.31758971137E+02  0.60994467726E+02  0.00000000000E+00 0.  1.
         21    1    1    2  504  501  0.75446458513E+02 -0.52616637726E+02  0.69649243964E+03  0.70253996124E+03  0.00000000000E+00 0. -1.
         21    1    1    2  505  502 -0.35068665091E+01 -0.68134277445E+02  0.21253178961E+03  0.22321366327E+03  0.00000000000E+00 0.  1.
         21    1    1    2  506  504 -0.34004363247E+02  0.85077237696E+02  0.29543872538E+03  0.30931937144E+03  0.00000000000E+00 0.  1.
<scales pt_clust_3="52.07392" pt_clust_4="14000.00000" pt_clust_5="58.14855" pt_clust_6="88.62747"></scales>
<clustering>
<clus scale="   52.074">  2  3  1 -1</clus>
<clus scale="   58.149">  2  5  1 -1</clus>
<clus scale="   88.627">  2  6  1 -1</clus>
<clus scale="   88.627">  1  3  2 -1</clus>
</clustering>
</event>
<event>
 6    0  0.5563122E+002  0.1307338E+03  0.7546771E-02  0.1226371E+00
         21   -1    0    0  505  501  0.00000000000E+00  0.00000000000E+00  0.32207153917E+04  0.32207153917E+04  0.00000000000E+00 0. -1.
         21   -1    0    0  506  502 -0.00000000000E+00 -0.00000000000E+00 -0.62141209263E+02  0.62141209263E+02  0.00000000000E+00 0. -1.
         21    1    1    2  503  502  0.45407814605E+02  0.12288865260E+02 -0.39636729783E+02  0.61513869855E+02  0.00000000000E+00 0. -1.
         21    1    1    2  504  503 -0.15256287086E+03  0.21607584509E+02  0.74014304666E+03  0.75601193561E+03  0.00000000000E+00 0. -1.
         21    1    1    2  505  504 -0.35886887629E+02 -0.25787731816E+02  0.72843454394E+03  0.72977377359E+03  0.00000000000E+00 0. -1.
         21    1    1    2  506  501  0.14304194388E+03 -0.81087179523E+01  0.17296333216E+04  0.17355570219E+04  0.00000000000E+00 0. -1.
<scales pt_clust_3="46.85972" pt_clust_4="130.73383" pt_clust_5="44.19135" pt_clust_6="14000.00000"></scales>
<clustering>
<clus scale="   44.191">  1  5  2 -1</clus>
<clus scale="   46.860">  2  3  1 -1</clus>
<clus scale="  130.734">  2  4  1 -1</clus>
<clus scale="   44.191">  1  3  2 -1</clus>
</clustering>
</event>
<event>
 6    0  0.5563122E+002  0.1182354E+03  0.7546771E-02  0.1246037E+00
         21   -1    0    0  505  501  0.00000000000E+00  0.00000000000E+00  0.32038369435E+03  0.32038369435E+03  0.00000000000E+00 0. -1.
         21   -1    0    0  503  502 -0.00000000000E+00 -0.00000000000E+00 -0.14041283658E+03  0.14041283658E+03  0.00000000000E+00 0.  1.
         21    1    1    2  503  506  0.38928576485E+02 -0.32102994063E+02 -0.85168666499E+02  0.98993626301E+02  0.00000000000E+00 0.  1.
         21    1    1    2  504  501 -0.92678508150E+02  0.19224103448E+02  0.16751016518E+03  0.19240199444E+03  0.00000000000E+00 0. -1.
         21    1    1    2  505  502  0.70428650432E+02 -0.20849673337E+02  0.10118562896E+02  0.74143705026E+02  0.00000000000E+00 0.  1.
         21    1    1    2  506  504 -0.16678718768E+02  0.33728563952E+02  0.87510796190E+02  0.95257205165E+02  0.00000000000E+00 0. -1.
<scales pt_clust_3="50.45826" pt_clust_4="34.24004" pt_clust_5="105.02604" pt_clust_6="34.24004"></scales>
<clustering>
<clus scale="   34.240">  4  6 -1 -1</clus>
<clus scale="   50.458">  2  3  1 -1</clus>
<clus scale="  105.026">  2  5  1 -1</clus>
<clus scale="  118.235">  1  3  2 -1</clus>
</clustering>
</event>
<event>
 6    0  0.5563122E+002  0.9462405E+02  0.7546771E-02  0.1292025E+00
         21   -1    0    0  502  501  0.00000000000E+00  0.00000000000E+00  0.25961700328E+04  0.25961700328E+04  0.00000000000E+00 0.  1.
         21   -1    0    0  503  502 -0.00000000000E+00 -0.00000000000E+00 -0.23162512484E+02  0.23162512484E+02  0.00000000000E+00 0. -1.
         21    1    1    2  503  504  0.39940214502E+02  0.14449555603E+02  0.20598579738E+03  0.21031918389E+03  0.00000000000E+00 0.  1.
         21    1    1    2  504  505 -0.46340617267E+02 -0.25643061620E+02  0.22810603136E+03  0.23417382638E+03  0.00000000000E+00 0. -1.
         21    1    1    2  505  506 -0.87988959367E+02  0.21397625700E+02  0.10477141314E+03  0.13848091698E+03  0.00000000000E+00 0. -1.
         21    1    1    2  506  501  0.94389362132E+02 -0.10204119683E+02  0.20341442785E+04  0.20363586181E+04  0.00000000000E+00 0.  1.
<scales pt_clust_3="42.47364" pt_clust_4="46.91169" pt_clust_5="94.62405" pt_clust_6="14000.00000"></scales>
<clustering>
<clus scale="   42.474">  2  3  1 -1</clus>
<clus scale="   46.912">  2  4  1 -1</clus>
<clus scale="   94.624">  2  5  1 -1</clus>
<clus scale="   94.624">  1  3  2 -1</clus>
</clustering>
</event>
<event>
 6    0  0.5563122E+002  0.2116003E+03  0.7546771E-02  0.1140305E+00
         21   -1    0    0  506  501  0.00000000000E+00  0.00000000000E+00  0.97681507551E+02  0.97681507551E+02  0.00000000000E+00 0. -1.
         21   -1    0    0  504  502 -0.00000000000E+00 -0.00000000000E+00 -0.92130315461E+03  0.92130315461E+03  0.00000000000E+00 0.  1.
         21    1    1    2  503  501 -0.45250851362E+02 -0.21955824146E+02  0.12724265594E+02  0.51880677500E+02  0.00000000000E+00 0. -1.
         21    1    1    2  504  503 -0.53599185814E+02 -0.16596126231E+03 -0.10620659974E+03  0.20419562957E+03  0.00000000000E+00 0. -1.
         21    1    1    2  505  502  0.57514904260E+00  0.42670113345E+02 -0.20047854681E+03  0.20497003952E+03  0.00000000000E+00 0.  1.
         21    1    1    2  506  505  0.98274888133E+02  0.14524697311E+03 -0.52966076610E+03  0.55793831557E+03  0.00000000000E+00 0.  1.
<scales pt_clust_3="50.29610" pt_clust_4="202.31934" pt_clust_5="30.57447" pt_clust_6="30.57447"></scales>
<clustering>
<clus scale="   30.574">  5  6 -1 -1</clus>
<clus scale="   50.296">  1  3  2 -1</clus>
<clus scale="  202.319">  1  4  2 -1</clus>
<clus scale="   50.296">  1  3  2 -1</clus>
</clustering>
</event>
<event>
 6    0  0.5563122E+002  0.6919064E+02  0.7546771E-02  0.1362867E+00
         21   -1    0    0  505  501  0.00000000000E+00  0.00000000000E+00  0.91170137574E+03  0.91170137574E+03  0.00000000000E+00 0.  1.
         21   -1    0    0  506  502 -0.00000000000E+00 -0.00000000000E+00 -0.33525343270E+03  0.33525343270E+03  0.00000000000E+00 0. -1.
         21    1    1    2  503  502 -0.47663885306E+02  0.62412653137E+02 -0.50156276268E+02  0.93181743293E+02  0.00000000000E+00 0. -1.
         21    1    1    2  504  501 -0.12896923077E+02 -0.86724550537E+02 -0.67201461540E+02  0.11046951943E+03  0.00000000000E+00 0. -1.
         21    1    1    2  505  503  0.33611743434E+02  0.60248977420E+02  0.86427051253E+03  0.86701972723E+03  0.00000000000E+00 0.  1.
         21    1    1    2  506  504  0.26949064949E+02 -0.35937080020E+02 -0.17046483168E+03  0.17628381849E+03  0.00000000000E+00 0. -1.
<scales pt_clust_3="58.64534" pt_clust_4="14000.00000" pt_clust_5="69.19064" pt_clust_6="44.91910"></scales>
<clustering>
<clus scale="   44.919">  2  6  1 -1</clus>
<clus scale="   58.645">  2  3  1 -1</clus>
<clus scale="   69.191">  1  5  2 -1</clus>
<clus scale="   69.191">  1  3  2 -1</clus>
</clustering>
</event>
<event>
 6    0  0.5563122E+002  0.1152383E+03  0.7546771E-02  0.1251166E+00
         21   -1    0    0  505  501  0.00000000000E+00  0.00000000000E+00  0.50490901130E+03  0.50490901130E+03  0.00000000000E+00 0. -1.
         21   -1    0    0  506  502 -0.00000000000E+00 -0.00000000000E+00 -0.61737145342E+02  0.61737145342E+02  0.00000000000E+00 0.  1.
         21    1    1    2  503  501 -0.34720670580E+02  0.20753715150E+01  0.29799291197E+03  0.30001601244E+03  0.00000000000E+00 0. -1.
         21    1    1    2  504  503  0.90267629489E+01  0.46028292226E+02  0.46352136853E+02  0.65943966558E+02  0.00000000000E+00 0.  1.
         21    1    1    2  505  502 -0.23259714880E+02 -0.98541237111E+02  0.76623557875E+02  0.12697464065E+03  0.00000000000E+00 0. -1.
         21    1    1    2  506  504  0.48953622511E+02  0.50437573370E+02  0.22203259258E+02  0.73711536995E+02  0.00000000000E+00 0.  1.
<scales pt_clust_3="34.78264" pt_clust_4="39.04723" pt_clust_5="105.56248" pt_clust_6="39.04723"></scales>
<clustering>
<clus scale="   34.783">  1  3  2 -1</clus>
<clus scale="   39.047">  4  6 -1 -1</clus>
<clus scale="  105.562">  1  5  2 -1</clus>
<clus scale="   34.783">  1  3  2 -1</clus>
</clustering>
</event>
<event>
 6    0  0.5563122E+002  0.1469186E+03  0.7546771E-02  0.1204311E+00
         21   -1    0    0  502  501  0.00000000000E+00  0.00000000000E+00  0.12093666251E+03  0.12093666251E+03  0.00000000000E+00 0. -1.
         21   -1    0    0  506  502 -0.00000000000E+00 -0.00000000000E+00 -0.13696629455E+04  0.13696629455E+04  0.00000000000E+00 0. -1.
         21    1    1    2  503  504 -0.12336121695E+03  0.14357515845E+03 -0.17612804198E+03  0.25855928361E+03  0.00000000000E+00 0. -1.
         21    1    1    2  504  505  0.58616297425E+02 -0.33167065003E+02 -0.43858471007E+01  0.67491926773E+02  0.00000000000E+00 0. -1.
         21    1    1    2  505  501  0.38622432406E+02 -0.51490871688E+02  0.25284263443E+02  0.69154147598E+02  0.00000000000E+00 0. -1.
         21    1    1    2  506  503  0.26122487114E+02 -0.58917221754E+02 -0.10934966574E+04  0.10953942500E+04  0.00000000000E+00 0. -1.
<scales pt_clust_3="141.32237" pt_clust_4="39.26348" pt_clust_5="39.26348" pt_clust_6="64.44861"></scales>
<clustering>
<clus scale="   39.263">  4  5 -1 -1</clus>
<clus scale="   64.449">  2  6  1 -1</clus>
<clus scale="  141.322">  2  3  1 -1</clus>
<clus scale="  146.919">  1  3  2 -1</clus>
</clustering>
</event>
<event>
 6    0  0.5563122E+002  0.8114860E+02  0.7546771E-02  0.1325823E+00
         21   -1    0    0  505  501  0.00000000000E+00  0.00000000000E+00  0.25875121354E+03  0.25875121354E+03  0.00000000000E+00 0. -1.
         21   -1    0    0  504  502 -0.00000000000E+00 -0.00000000000E+00 -0.21667575699E+04  0.21667575699E+04  0.00000000000E+00 0. -1.
         21    1    1    2  503  502 -0.24861733188E+02 -0.60520634899E+02 -0.21145293942E+04  0.21155413992E+04  0.00000000000E+00 0. -1.
         21    1    1    2  504  501  0.79798909640E+02 -0.36178474566E+02  0.94517278619E+02  0.12888081300E+03  0.00000000000E+00 0. -1.
         21    1    1    2  505  506 -0.34983381897E+02 -0.71736516306E+01  0.36976479893E+02  0.51405820215E+02  0.00000000000E+00 0. -1.
         21    1    1    2  506  503 -0.19953794555E+02  0.10387276110E+03  0.75029279335E+02  0.12968075097E+03  0.00000000000E+00 0. -1.
<scales pt_clust_3="65.47526" pt_clust_4="14000.00000" pt_clust_5="35.71132" pt_clust_6="81.14860"></scales>
<clustering>
<clus scale="   35.711">  1  5  2 -1</clus>
<clus scale="   65.475">  2  3  1 -1</clus>
<clus scale="   81.149">  2  6  1 -1</clus>
<clus scale="   35.711">  1  3  2 -1</clus>
</clustering>
</event>
<event>
 6    0  0.5563122E+002  0.1626801E+03  0.7546771E-02  0.1185704E+00
         21   -1    0    0  505  501  0.00000000000E+00  0.00000000000E+00  0.29151352272E+03  0.29151352272E+03  0.00000000000E+00 0.  1.
         21   -1    0    0  506  502 -0.00000000000E+00 -0.00000000000E+00 -0.39634080883E+03  0.39634080883E+03  0.00000000000E+00 0. -1.
         21    1    1    2  503  501  0.72825546053E+02  0.93246622329E+02  0.12861681007E+03  0.17475919594E+03  0.00000000000E+00 0.  1.
         21    1    1    2  504  502 -0.82306066751E+02 -0.29286508075E+02 -0.27274250226E+03  0.28639214500E+03  0.00000000000E+00 0. -1.
         21    1    1    2  505  504 -0.52927498254E+02 -0.83253730563E+02 -0.54264879168E+02  0.11259298750E+03  0.00000000000E+00 0. -1.
         21    1    1    2  506  503  0.62408018952E+02  0.19293616310E+02  0.93563285247E+02  0.11411000309E+03  0.00000000000E+00 0.  1.
<scales pt_clust_3="41.55695" pt_clust_4="87.36125" pt_clust_5="152.76388" pt_clust_6="41.55695"></scales>
<clustering>
<clus scale="   41.557">  3  6 -1 -1</clus>
<clus scale="   87.361">  2  4  1 -1</clus>
<clus scale="  152.764">  2  5  1 -1</clus>
<clus scale="  162.680">  1  3  2 -1</clus>
</clustering>
</event>
<event>
 6    0  0.5563122E+002  0.1282940E+03  0.7546771E-02  0.1230009E+00
         21   -1    0    0  504  501  0.00000000000E+00  0.00000000000E+00  0.10661050612E+03  0.10661050612E+03  0.00000000000E+00 0.  1.
         21   -1    0    0  505  502 -0.00000000000E+00 -0.00000000000E+00 -0.26829410489E+04  0.26829410489E+04  0.00000000000E+00 0.  1.
         21    1    1    2  503  502 -0.70329798065E+02 -0.54764123960E+02 -0.20684629559E+04  0.20703826674E+04  0.00000000000E+00 0.  1.
         21    1    1    2  504  503 -0.10538487703E+03  0.31594893954E+02  0.40071671200E+02  0.11708948913E+03  0.00000000000E+00 0.  1.
         21    1    1    2  505  506  0.21029880303E+02 -0.64793737025E+02 -0.19989233646E+03  0.21118103703E+03  0.00000000000E+00 0.  1.
         21    1    1    2  506  501  0.15468479479E+03  0.87962967031E+02 -0.34804692160E+03  0.39089836140E+03  0.00000000000E+00 0.  1.
<scales pt_clust_3="14000.00000" pt_clust_4="109.42025" pt_clust_5="68.12110" pt_clust_6="128.29403"></scales>
<clustering>
<clus scale="   68.121">  2  5  1 -1</clus>
<clus scale="  109.420">  1  4  2 -1</clus>
<clus scale="  128.294">  1  6  2 -1</clus>
<clus scale="  109.420">  1  3  2 -1</clus>
</clustering>
</event>
<event>
 6    0  0.5563122E+002  0.1233886E+03  0.7546771E-02  0.1237609E+00
         21   -1    0    0  503  501  0.00000000000E+00  0.00000000000E+00  0.31557971000E+03  0.31557971000E+03  0.00000000000E+00 0.  1.
         21   -1    0    0  506  502 -0.00000000000E+00 -0.00000000000E+00 -0.26128901848E+03  0.26128901848E+03  0.00000000000E+00 0.  1.
         21    1    1    2  503  505 -0.35042450577E+02 -0.35953678128E+01  0.13387542692E+02  0.37684563305E+02  0.00000000000E+00 0.  1.
         21    1    1    2  504  501  0.48487927418E+02 -0.69833704567E+02  0.22432767418E+03  0.23989733388E+03  0.00000000000E+00 0.  1.
         21    1    1    2  505  502 -0.29225276490E+02  0.10818393015E+03 -0.21970007400E+03  0.24662928059E+03  0.00000000000E+00 0.  1.
         21    1    1    2  506  504  0.15779799650E+02 -0.34754857768E+02  0.36275548648E+02  0.52657550695E+02  0.00000000000E+00 0.  1.
<scales pt_clust_3="35.22641" pt_clust_4="34.20009" pt_clust_5="112.33666" pt_clust_6="34.20009"></scales>
<clustering>
<clus scale="   34.200">  4  6 -1 -1</clus>
<clus scale="   35.226">  1  3  2 -1</clus>
<clus scale="  112.337">  2  5  1 -1</clus>
<clus scale="   35.226">  1  3  2 -1</clus>
</clustering>
</event>
<event>
 6    0  0.5563122E+002  0.6187890E+02  0.7546771E-02  0.1390112E+00
         21   -1    0    0  505  501  0.00000000000E+00  0.00000000000E+00  0.33039821838E+03  0.33039821838E+03  0.00000000000E+00 0.  1.
         21   -1    0    0  504  502 -0.00000000000E+00 -0.00000000000E+00 -0.27631979822E+03  0.27631979822E+03  0.00000000000E+00 0.  1.
         21    1    1    2  503  502  0.31187275538E+02  0.49025274848E+02 -0.16822021345E+03  0.17797236848E+03  0.00000000000E+00 0.  1.
         21    1    1    2  504  501 -0.60920958417E+02 -0.35174340373E+02  0.12222419122E+02  0.71400174540E+02  0.00000000000E+00 0.  1.
         21    1    1    2  505  506 -0.20515523227E+02 -0.58524605256E+02  0.26398151952E+03  0.27116832182E+03  0.00000000000E+00 0.  1.
         21    1    1    2  506  503  0.50249206106E+02  0.44673670781E+02 -0.53905305029E+02  0.86177151761E+02  0.00000000000E+00 0.  1.
<scales pt_clust_3="58.10442" pt_clust_4="56.10839" pt_clust_5="14000.00000" pt_clust_6="61.87890"></scales>
<clustering>
<clus scale="   58.104">  2  3  1 -1</clus>
<clus scale="   56.108">  2  4  1 -1</clus>
<clus scale="   61.879">  2  6  1 -1</clus>
<clus scale="   61.879">  1  3  2 -1</clus>
</clustering>
</event>
<event>
 6    0  0.5563122E+002  0.1474512E+03  0.7546771E-02  0.1203640E+00
         21   -1    0    0  503  501  0.00000000000E+00  0.00000000000E+00  0.45090378753E+03  0.45090378753E+03  0.00000000000E+00 0.  1.
         21   -1    0    0  504  502 -0.00000000000E+00 -0.00000000000E+00 -0.81082612685E+03  0.81082612685E+03  0.00000000000E+00 0.  1.
         21    1    1    2  503  502 -0.13413435455E+03  0.62169085970E+01 -0.57846231466E+03  0.59384284495E+03  0.00000000000E+00 0.  1.
         21    1    1    2  504  506 -0.26905949515E+02 -0.36910678264E+02 -0.38722064783E+02  0.59880936785E+02  0.00000000000E+00 0.  1.
         21    1    1    2  505  501  0.10731464415E+03  0.10288675147E+03  0.40700255754E+03  0.43330497149E+03  0.00000000000E+00 0.  1.
         21    1    1    2  506  505  0.53725659912E+02 -0.72192981803E+02 -0.14974051741E+03  0.17470116115E+03  0.00000000000E+00 0. -1.
<scales pt_clust_3="14000.00000" pt_clust_4="45.67634" pt_clust_5="147.45118" pt_clust_6="93.34001"></scales>
<clustering>
<clus scale="   45.676">  2  4  1 -1</clus>
<clus scale="   93.340">  2  6  1 -1</clus>
<clus scale="  147.451">  1  5  2 -1</clus>
<clus scale="  147.451">  1  3  2 -1</clus>
</clustering>
</event>
<event>
 6    0  0.5563122E+002  0.2429217E+03  0.7546771E-02  0.1117862E+00
         21   -1    0    0  506  501  0.00000000000E+00  0.00000000000E+00  0.64473904527E+03  0.64473904527E+03  0.00000000000E+00 0. -1.
         21   -1    0    0  503  502 -0.00000000000E+00 -0.00000000000E+00 -0.24562998558E+03  0.24562998558E+03  0.00000000000E+00 0.  1.
         21    1    1    2  503  504  0.85868985154E+02  0.11721250747E+01 -0.14636221748E+03  0.16969606712E+03  0.00000000000E+00 0.  1.
         21    1    1    2  504  501  0.62626750644E+02 -0.18803874387E+03  0.16311216985E+03  0.25668318809E+03  0.00000000000E+00 0. -1.
         21    1    1    2  505  502 -0.85752480238E+01  0.83304129908E+02  0.16912604371E+03  0.18872395608E+03  0.00000000000E+00 0. -1.
         21    1    1    2  506  505 -0.13992048777E+03  0.10356248889E+03  0.21323306361E+03  0.27526581957E+03  0.00000000000E+00 0. -1.
<scales pt_clust_3="85.87698" pt_clust_4="216.54799" pt_clust_5="76.35199" pt_clust_6="76.35199"></scales>
<clustering>
<clus scale="   76.352">  5  6 -1 -1</clus>
<clus scale="   85.877">  2  3  1 -1</clus>
<clus scale="  216.548">  2  4  1 -1</clus>
<clus scale="  242.922">  1  3  2 -1</clus>
</clustering>
</event>
<event>
 6    0  0.5563122E+002  0.1218933E+03  0.7546771E-02  0.1240006E+00
         21   -1    0    0  504  501  0.00000000000E+00  0.00000000000E+00  0.16355862216E+04  0.16355862216E+04  0.00000000000E+00 0. -1.
         21   -1    0    0  503  502 -0.00000000000E+00 -0.00000000000E+00 -0.41329685299E+02  0.41329685299E+02  0.00000000000E+00 0. -1.
         21    1    1    2  503  506 -0.12558421361E+03  0.44155475128E+00  0.85069565451E+02  0.15168526838E+03  0.00000000000E+00 0. -1.
         21    1    1    2  504  505  0.32517439002E+02  0.27996417050E+02  0.51975131422E+03  0.52151952201E+03  0.00000000000E+00 0.  1.
         21    1    1    2  505  502  0.92544216518E+02 -0.70972616864E+02  0.84904684464E+03  0.85701930477E+03  0.00000000000E+00 0. -1.
         21    1    1    2  506  501  0.52255809164E+00  0.42534645063E+02  0.14038881203E+03  0.14669181178E+03  0.00000000000E+00 0.  1.
<scales pt_clust_3="121.89334" pt_clust_4="53.89259" pt_clust_5="14000.00000" pt_clust_6="42.53785"></scales>
<clustering>
<clus scale="   42.538">  1  6  2 -1</clus>
<clus scale="   53.893">  1  4  2 -1</clus>
<clus scale="  121.893">  2  3  1 -1</clus>
<clus scale="   42.538">  1  3  2 -1</clus>
</clustering>
</event>
<event>
 6    0  0.5563122E+002  0.1566887E+03  0.7546771E-02  0.1192487E+00
         21   -1    0    0  504  501  0.00000000000E+00  0.00000000000E+00  0.29439219475E+03  0.29439219475E+03  0.00000000000E+00 0.  1.
         21   -1    0    0  505  502 -0.00000000000E+00 -0.00000000000E+00 -0.19973703881E+04  0.19973703881E+04  0.00000000000E+00 0.  1.
         21    1    1    2  503  502 -0.15714522989E+02  0.34481952434E+02 -0.18772774106E+04  0.18776598275E+04  0.00000000000E+00 0.  1.
         21    1    1    2  504  506  0.79847290032E+02  0.10593463672E+03  0.14017327052E+03  0.19299296036E+03  0.00000000000E+00 0.  1.
         21    1    1    2  505  501 -0.34137176522E+01  0.33766793154E+02  0.34572536653E+01  0.34114548085E+02  0.00000000000E+00 0.  1.
         21    1    1    2  506  503 -0.60719049391E+02 -0.17418338230E+03  0.30668693120E+02  0.18699524691E+03  0.00000000000E+00 0.  1.
<scales pt_clust_3="37.91625" pt_clust_4="156.68868" pt_clust_5="33.93891" pt_clust_6="14000.00000"></scales>
<clustering>
<clus scale="   33.939">  1  5  2 -1</clus>
<clus scale="   37.916">  2  3  1 -1</clus>
<clus scale="  156.689">  1  4  2 -1</clus>
<clus scale="   33.939">  1  3  2 -1</clus>
</clustering>
</event>
<event>
 6    0  0.5563122E+002  0.1007687E+03  0.7546771E-02  0.1278688E+00
         21   -1    0    0  504  501  0.00000000000E+00  0.00000000000E+00  0.16846856988E+03  0.16846856988E+03  0.00000000000E+00 0.  1.
         21   -1    0    0  505  502 -0.00000000000E+00 -0.00000000000E+00 -0.13809841446E+03  0.13809841446E+03  0.00000000000E+00 0.  1.
         21    1    1    2  503  506 -0.43385908244E+02 -0.14884860898E+02  0.47714923122E+02  0.66186176855E+02  0.00000000000E+00 0. -1.
         21    1    1    2  504  503 -0.29431654831E+02 -0.50783032875E+02  0.33991601908E+02  0.67827485095E+02  0.00000000000E+00 0.  1.
         21    1    1    2  505  501 -0.18151189463E+02  0.63413823636E+02  0.39491025739E+01  0.66078545068E+02  0.00000000000E+00 0.  1.
         21    1    1    2  506  502  0.90968752538E+02  0.22540701360E+01 -0.55285472191E+02  0.10647477732E+03  0.00000000000E+00 0.  1.
<scales pt_clust_3="36.11496" pt_clust_4="36.11496" pt_clust_5="65.96043" pt_clust_6="92.11570"></scales>
<clustering>
<clus scale="   36.115">  3  4 -1 -1</clus>
<clus scale="   65.960">  2  5  1 -1</clus>
<clus scale="   92.116">  2  6  1 -1</clus>
<clus scale="  100.769">  1  3  2 -1</clus>
</clustering>
</event>
<event>
 6    0  0.5563122E+002  0.3073906E+03  0.7546771E-02  0.1081603E+00
         21   -1    0    0  503  501  0.00000000000E+00  0.00000000000E+00  0.13961396939E+04  0.13961396939E+04  0.00000000000E+00 0. -1.
         21   -1    0    0  505  502 -0.00000000000E+00 -0.00000000000E+00 -0.20894387123E+03  0.20894387123E+03  0.00000000000E+00 0.  1.
         21    1    1    2  503  504  0.17828407665E+02 -0.62697156979E+02  0.31644066580E+02  0.72457798496E+02  0.00000000000E+00 0. -1.
         21    1    1    2  504  502  0.12128057365E+03 -0.19171205807E+03 -0.76549274008E+02  0.23942072197E+03  0.00000000000E+00 0.  1.
         21    1    1    2  505  506 -0.10630866633E+03  0.26295775452E+03  0.63881237502E+03  0.69894889919E+03  0.00000000000E+00 0. -1.
         21    1    1    2  506  501 -0.32800314985E+02 -0.85485394652E+01  0.59328865504E+03  0.59425614544E+03  0.00000000000E+00 0. -1.
<scales pt_clust_3="56.79197" pt_clust_4="56.79197" pt_clust_5="288.63921" pt_clust_6="33.89599"></scales>
<clustering>
<clus scale="   33.896">  1  6  2 -1</clus>
<clus scale="   56.792">  3  4 -1 -1</clus>
<clus scale="  288.639">  1  5  2 -1</clus>
<clus scale="   33.896">  1  3  2 -1</clus>
</clustering>
</event>
<event>
 6    0  0.5563122E+002  0.8875754E+02  0.7546771E-02  0.1305889E+00
         21   -1    0    0  505  501  0.00000000000E+00  0.00000000000E+00  0.28880799036E+03  0.28880799036E+03  0.00000000000E+00 0. -1.
         21   -1    0    0  504  502 -0.00000000000E+00 -0.00000000000E+00 -0.33718093490E+03  0.33718093490E+03  0.00000000000E+00 0. -1.
         21    1    1    2  503  501  0.66024750469E+01 -0.39989215468E+02  0.78696334450E+02  0.88520297595E+02  0.00000000000E+00 0. -1.
         21    1    1    2  504  503  0.43318634713E+02 -0.91560354985E+02 -0.36926231015E+01  0.10135797050E+03  0.00000000000E+00 0. -1.
         21    1    1    2  505  506 -0.16421508357E+02  0.11320995114E+03  0.13384456144E+03  0.17606966122E+03  0.00000000000E+00 0. -1.
         21    1    1    2  506  502 -0.33499601403E+02  0.18339619311E+02 -0.25722121732E+03  0.26004099594E+03  0.00000000000E+00 0. -1.
<scales pt_clust_3="39.10306" pt_clust_4="14000.00000" pt_clust_5="88.75754" pt_clust_6="38.19116"></scales>
<clustering>
<clus scale="   38.191">  2  6  1 -1</clus>
<clus scale="   39.103">  1  3  2 -1</clus>
<clus scale="   88.758">  1  5  2 -1</clus>
<clus scale="   39.103">  1  3  2 -1</clus>
</clustering>
</event>
<event>
 6    0  0.5563122E+002  0.9091193E+02  0.7546771E-02  0.1300658E+00
         21   -1    0    0  505  501  0.00000000000E+00  0.00000000000E+00  0.38083507013E+03  0.38083507013E+03  0.00000000000E+00 0. -1.
         21   -1    0    0  504  502 -0.00000000000E+00 -0.00000000000E+00 -0.86193829816E+02  0.86193829816E+02  0.00000000000E+00 0. -1.
         21    1    1    2  503  501 -0.39244687050E+02  0.92083706147E+01  0.14464151411E+03  0.15015361187E+03  0.00000000000E+00 0. -1.
         21    1    1    2  504  506 -0.96918249522E+02  0.88827298008E+01  0.22223520240E+02  0.99829528852E+02  0.00000000000E+00 0. -1.
         21    1    1    2  505  502  0.40683816594E+02  0.38107782581E+02  0.12434953410E+02  0.57113957070E+02  0.00000000000E+00 0. -1.
         21    1    1    2  506  503  0.95479119977E+02 -0.56198882996E+02  0.11534125255E+03  0.15993180216E+03  0.00000000000E+00 0. -1.
<scales pt_clust_3="40.31054" pt_clust_4="90.91193" pt_clust_5="52.65259" pt_clust_6="14000.00000"></scales>
<clustering>
<clus scale="   40.311">  1  3  2 -1</clus>
<clus scale="   52.653">  2  5  1 -1</clus>
<clus scale="   90.912">  2  4  1 -1</clus>
<clus scale="   40.311">  1  3  2 -1</clus>
</clustering>
</event>
<event>
 6    0  0.5563122E+002  0.7942577E+02  0.7546771E-02  0.1330689E+00
         21   -1    0    0  504  501  0.00000000000E+00  0.00000000000E+00  0.61969585719E+02  0.61969585719E+02  0.00000000000E+00 0. -1.
         21   -1    0    0  505  502 -0.00000000000E+00 -0.00000000000E+00 -0.44151423012E+03  0.44151423012E+03  0.00000000000E+00 0. -1.
         21    1    1    2  503  502 -0.32289857980E+02  0.73810976550E+02 -0.23697480764E+03  0.25029533484E+03  0.00000000000E+00 0. -1.
         21    1    1    2  504  506 -0.18311598228E+02  0.30909180292E+02  0.39959559021E+01  0.36147748471E+02  0.00000000000E+00 0.  1.
         21    1    1    2  505  501  0.69229331576E+02 -0.18231326614E+02 -0.63992750540E+02  0.96021631637E+02  0.00000000000E+00 0. -1.
         21    1    1    2  506  503 -0.18627875368E+02 -0.86488830227E+02 -0.82573042131E+02  0.12101910090E+03  0.00000000000E+00 0. -1.
<scales pt_clust_3="79.42577" pt_clust_4="35.92620" pt_clust_5="62.56012" pt_clust_6="14000.00000"></scales>
<clustering>
<clus scale="   35.926">  1  4  2 -1</clus>
<clus scale="   62.560">  1  5  2 -1</clus>
<clus scale="   79.426">  2  3  1 -1</clus>
<clus scale="   35.926">  1  3  2 -1</clus>
</clustering>
</event>
<event>
 6    0  0.5563122E+002  0.1140197E+03  0.7546771E-02  0.1253302E+00
         21   -1    0    0  504  501  0.00000000000E+00  0.00000000000E+00  0.11517917263E+03  0.11517917263E+03  0.00000000000E+00 0.  1.
         21   -1    0    0  503  502 -0.00000000000E+00 -0.00000000000E+00 -0.34250220614E+03  0.34250220614E+03  0.00000000000E+00 0. -1.
         21    1    1    2  503  506 -0.11444707393E+03 -0.32190578933E+02 -0.26045551823E+03  0.28630655438E+03  0.00000000000E+00 0. -1.
         21    1    1    2  504  505  0.18331214104E+02 -0.29143832844E+02 -0.59412068262E+00  0.34434711887E+02  0.00000000000E+00 0.  1.
         21    1    1    2  505  502  0.79075300191E+02  0.34142585783E+02  0.51402663556E+02  0.10030380394E+03  0.00000000000E+00 0.  1.
         21    1    1    2  506  501  0.17040559638E+02  0.27191825994E+02 -0.17676058142E+02  0.36636308563E+02  0.00000000000E+00 0.  1.
<scales pt_clust_3="114.01970" pt_clust_4="32.52808" pt_clust_5="14000.00000" pt_clust_6="32.09012"></scales>
<clustering>
<clus scale="   32.090">  1  6  2 -1</clus>
<clus scale="   32.528">  1  4  2 -1</clus>
<clus scale="  114.020">  2  3  1 -1</clus>
<clus scale="   32.090">  1  3  2 -1</clus>
</clustering>
</event>
<event>
 6    0  0.5563122E+002  0.6829168E+02  0.7546771E-02  0.1366001E+00
         21   -1    0    0  506  501  0.00000000000E+00  0.00000000000E+00  0.17702648385E+03  0.17702648385E+03  0.00000000000E+00 0. -1.
         21   -1    0    0  501  502 -0.00000000000E+00 -0.00000000000E+00 -0.30513053745E+03  0.30513053745E+03  0.00000000000E+00 0. -1.
         21    1    1    2  503  505 -0.45336635671E+02 -0.40113362934E+02 -0.43068914265E+02  0.74292824659E+02  0.00000000000E+00 0. -1.
         21    1    1    2  504  503  0.71538624255E+02  0.47227954287E+02 -0.85232606993E+02  0.12088362884E+03  0.00000000000E+00 0. -1.
         21    1    1    2  505  502  0.33396260813E+02  0.23448581213E+02 -0.13233581133E+03  0.13848434264E+03  0.00000000000E+00 0. -1.
         21    1    1    2  506  504 -0.59598249397E+02 -0.30563172566E+02  0.13253327898E+03  0.14849622516E+03  0.00000000000E+00 0. -1.
<scales pt_clust_3="46.54181" pt_clust_4="68.29168" pt_clust_5="40.80620" pt_clust_6="14000.00000"></scales>
<clustering>
<clus scale="   40.806">  2  5  1 -1</clus>
<clus scale="   46.542">  2  3  1 -1</clus>
<clus scale="   68.292">  2  4  1 -1</clus>
<clus scale="   68.292">  1  3  2 -1</clus>
</clustering>
</event>
<event>
 6    0  0.5563122E+002  0.6135901E+02  0.7546771E-02  0.1392215E+00
         21   -1    0    0  505  501  0.00000000000E+00  0.00000000000E+00  0.21100064631E+04  0.21100064631E+04  0.00000000000E+00 0. -1.
         21   -1    0    0  503  502 -0.00000000000E+00 -0.00000000000E+00 -0.10391166432E+04  0.10391166432E+04  0.00000000000E+00 0.  1.
         21    1    1    2  503  506  0.26774424368E+02  0.48771903394E+02 -0.25316509502E+03  0.25920673929E+03  0.00000000000E+00 0.  1.
         21    1    1    2  504  502  0.40405158601E+02 -0.35379271253E+02 -0.38074400529E+03  0.38451302610E+03  0.00000000000E+00 0.  1.
         21    1    1    2  505  504 -0.68616498706E+02  0.47972691097E+02 -0.39547121654E+03  0.40423642352E+03  0.00000000000E+00 0.  1.
         21    1    1    2  506  501  0.14369157377E+01 -0.61365323238E+02  0.21002701367E+04  0.21011669174E+04  0.00000000000E+00 0. -1.
<scales pt_clust_3="14000.00000" pt_clust_4="53.70540" pt_clust_5="51.33026" pt_clust_6="61.35901"></scales>
<clustering>
<clus scale="   53.705">  2  4  1 -1</clus>
<clus scale="   51.330">  2  5  1 -1</clus>
<clus scale="   61.359">  1  6  2 -1</clus>
<clus scale="   61.359">  1  3  2 -1</clus>
</clustering>
</event>
<event>
 6    0  0.5563122E+002  0.1091475E+03  0.7546771E-02  0.1262157E+00
         21   -1    0    0  503  501  0.00000000000E+00  0.00000000000E+00  0.10278609831E+03  0.10278609831E+03  0.00000000000E+00 0.  1.
         21   -1    0    0  504  502 -0.00000000000E+00 -0.00000000000E+00 -0.11083150998E+04  0.11083150998E+04  0.00000000000E+00 0.  1.
         21    1    1    2  503  505  0.97099923597E+02 -0.34684707867E+00 -0.57223669858E+02  0.11270786954E+03  0.00000000000E+00 0.  1.
         21    1    1    2  504  506  0.55479633081E+02 -0.26276128660E+02 -0.22242307914E+03  0.23073892337E+03  0.00000000000E+00 0.  1.
         21    1    1    2  505  502 -0.48045259929E+02 -0.38476318465E+02 -0.74102698397E+03  0.74357902409E+03  0.00000000000E+00 0.  1.
         21    1    1    2  506  501 -0.10453429675E+03  0.65099294204E+02  0.15144731493E+02  0.12407538110E+03  0.00000000000E+00 0.  1.
<scales pt_clust_3="109.14748" pt_clust_4="61.38750" pt_clust_5="60.61212" pt_clust_6="14000.00000"></scales>
<clustering>
<clus scale="   61.387">  2  4  1 -1</clus>
<clus scale="   60.612">  2  5  1 -1</clus>
<clus scale="  109.147">  2  3  1 -1</clus>
<clus scale="  109.147">  1  3  2 -1</clus>
</clustering>
</event>
<event>
 6    0  0.5563122E+002  0.1215048E+03  0.7546771E-02  0.1240635E+00
         21   -1    0    0  506  501  0.00000000000E+00  0.00000000000E+00  0.12750801014E+04  0.12750801014E+04  0.00000000000E+00 0. -1.
         21   -1    0    0  504  502 -0.00000000000E+00 -0.00000000000E+00 -0.11506937950E+03  0.11506937950E+03  0.00000000000E+00 0. -1.
         21    1    1    2  503  501  0.20002561162E+02 -0.22571345847E+02  0.95893988426E+03  0.95941402415E+03  0.00000000000E+00 0. -1.
         21    1    1    2  504  505  0.87691939171E+02  0.99500313753E+02 -0.40233718162E+02  0.13859632286E+03  0.00000000000E+00 0. -1.
         21    1    1    2  505  503 -0.10325719314E+03 -0.20641639701E+02  0.12968681052E+03  0.16705326709E+03  0.00000000000E+00 0. -1.
         21    1    1    2  506  502 -0.44373071919E+01 -0.56287328205E+02  0.11161774528E+03  0.12508586680E+03  0.00000000000E+00 0.  1.
<scales pt_clust_3="30.15905" pt_clust_4="121.50483" pt_clust_5="14000.00000" pt_clust_6="64.81570"></scales>
<clustering>
<clus scale="   30.159">  1  3  2 -1</clus>
<clus scale="   64.816">  1  6  2 -1</clus>
<clus scale="  121.505">  2  4  1 -1</clus>
<clus scale="   30.159">  1  3  2 -1</clus>
</clustering>
</event>
<event>
 6    0  0.5563122E+002  0.7041696E+02  0.7546771E-02  0.1358681E+00
         21   -1    0    0  506  501  0.00000000000E+00  0.00000000000E+00  0.99833330785E+02  0.99833330785E+02  0.00000000000E+00 0.  1.
         21   -1    0    0  504  502 -0.00000000000E+00 -0.00000000000E+00 -0.41161267884E+03  0.41161267884E+03  0.00000000000E+00 0.  1.
         21    1    1    2  503  502  0.29450602437E+01 -0.30549072130E+02 -0.51333362065E+02  0.59808304179E+02  0.00000000000E+00 0.  1.
         21    1    1    2  504  505  0.55366080195E+02  0.65947874304E+02 -0.29414286381E+03  0.30648743741E+03  0.00000000000E+00 0.  1.
         21    1    1    2  505  501  0.27442583438E+02 -0.41336139943E+02 -0.68877560756E+01  0.50092045625E+02  0.00000000000E+00 0.  1.
         21    1    1    2  506  503 -0.85753723876E+02  0.59373377692E+01  0.40584633898E+02  0.95058222407E+02  0.00000000000E+00 0.  1.
<scales pt_clust_3="30.69070" pt_clust_4="14000.00000" pt_clust_5="51.79603" pt_clust_6="70.41696"></scales>
<clustering>
<clus scale="   30.691">  2  3  1 -1</clus>
<clus scale="   51.796">  1  5  2 -1</clus>
<clus scale="   70.417">  1  6  2 -1</clus>
<clus scale="   51.796">  1  3  2 -1</clus>
</clustering>
</event>
<event>
 6    0  0.5563122E+002  0.1817031E+03  0.7546771E-02  0.1166165E+00
         21   -1    0    0  503  501  0.00000000000E+00  0.00000000000E+00  0.55912438544E+03  0.55912438544E+03  0.00000000000E+00 0.  1.
         21   -1    0    0  505  502 -0.00000000000E+00 -0.00000000000E+00 -0.42788476472E+03  0.42788476472E+03  0.00000000000E+00 0. -1.
         21    1    1    2  503  504 -0.15530743702E+02 -0.66323379886E+02  0.41873557359E+03  0.42423987944E+03  0.00000000000E+00 0.  1.
         21    1    1    2  504  502 -0.85944062210E+02 -0.10981177416E+03  0.54889737527E+02  0.14985957046E+03  0.00000000000E+00 0. -1.
         21    1    1    2  505  506  0.40686275721E+02  0.66657898084E+01 -0.25582969623E+02  0.48521068831E+02  0.00000000000E+00 0. -1.
         21    1    1    2  506  501  0.60788530191E+02  0.16946936424E+03 -0.31680272078E+03  0.36438863143E+03  0.00000000000E+00 0. -1.
<scales pt_clust_3="68.00701" pt_clust_4="14000.00000" pt_clust_5="41.22870" pt_clust_6="181.70310"></scales>
<clustering>
<clus scale="   41.229">  2  5  1 -1</clus>
<clus scale="   68.007">  1  3  2 -1</clus>
<clus scale="  181.703">  2  6  1 -1</clus>
<clus scale="   68.007">  1  3  2 -1</clus>
</clustering>
</event>
<event>
 6    0  0.5563122E+002  0.8753470E+02  0.7546771E-02  0.1308934E+00
         21   -1    0    0  505  501  0.00000000000E+00  0.00000000000E+00  0.43367936410E+02  0.43367936410E+02  0.00000000000E+00 0. -1.
         21   -1    0    0  503  502 -0.00000000000E+00 -0.00000000000E+00 -0.24048706912E+04  0.24048706912E+04  0.00000000000E+00 0. -1.
         21    1    1    2  503  504  0.48827341021E+02  0.66152927410E+01 -0.10966464117E+04  0.10977528063E+04  0.00000000000E+00 0. -1.
         21    1    1    2  504  506  0.67685657071E+02 -0.10360885434E+02 -0.37673370708E+03  0.38290597041E+03  0.00000000000E+00 0. -1.
         21    1    1    2  505  502 -0.11700333131E+03  0.38321213100E+02 -0.91533450403E+03  0.92357758157E+03  0.00000000000E+00 0. -1.
         21    1    1    2  506  501  0.49033322231E+00 -0.34575620407E+02  0.27211867999E+02  0.44002269409E+02  0.00000000000E+00 0. -1.
<scales pt_clust_3="49.03827" pt_clust_4="14000.00000" pt_clust_5="87.53470" pt_clust_6="34.57910"></scales>
<clustering>
<clus scale="   34.579">  1  6  2 -1</clus>
<clus scale="   49.038">  2  3  1 -1</clus>
<clus scale="   87.535">  2  5  1 -1</clus>
<clus scale="   34.579">  1  3  2 -1</clus>
</clustering>
</event>
<event>
 6    0  0.5563122E+002  0.1477445E+03  0.7546771E-02  0.1203272E+00
         21   -1    0    0  503  501  0.00000000000E+00  0.00000000000E+00  0.55787777963E+02  0.55787777963E+02  0.00000000000E+00 0.  1.
         21   -1    0    0  504  502 -0.00000000000E+00 -0.00000000000E+00 -0.23876752356E+04  0.23876752356E+04  0.00000000000E+00 0.  1.
         21    1    1    2  503  502 -0.49198882630E+01  0.39303102072E+02 -0.46334827085E+02  0.60957816021E+02  0.00000000000E+00 0. -1.
         21    1    1    2  504  506  0.30220515210E+02 -0.25739694019E+02 -0.15798367874E+04  0.15803354347E+04  0.00000000000E+00 0.  1.
         21    1    1    2  505  501  0.69433559969E+02 -0.15176354611E+03 -0.15957786084E+03  0.23090752878E+03  0.00000000000E+00 0.  1.
         21    1    1    2  506  505 -0.94734186916E+02  0.13820013806E+03 -0.54613798238E+03  0.57126223411E+03  0.00000000000E+00 0.  1.
<scales pt_clust_3="39.60984" pt_clust_4="39.54639" pt_clust_5="147.74450" pt_clust_6="14000.00000"></scales>
<clustering>
<clus scale="   39.610">  1  3  2 -1</clus>
<clus scale="   39.546">  2  4  1 -1</clus>
<clus scale="  147.744">  1  5  2 -1</clus>
<clus scale="   39.610">  1  3  2 -1</clus>
</clustering>
</event>
<event>
 6    0  0.5563122E+002  0.1485962E+03  0.7546771E-02  0.1202209E+00
         21   -1    0    0  505  501  0.00000000000E+00  0.00000000000E+00  0.12741844298E+04  0.12741844298E+04  0.00000000000E+00 0. -1.
         21   -1    0    0  506  502 -0.00000000000E+00 -0.00000000000E+00 -0.15947215157E+03  0.15947215157E+03  0.00000000000E+00 0.  1.
         21    1    1    2  503  502  0.11509835714E+03  0.52334942930E+02 -0.11224133239E+03  0.16907008832E+03  0.00000000000E+00 0.  1.
         21    1    1    2  504  503 -0.41952855351E+02  0.94838598910E+01  0.15298688922E+03  0.15891813598E+03  0.00000000000E+00 0. -1.
         21    1    1    2  505  504 -0.11546011032E+03 -0.86212026784E+02  0.32985464698E+03  0.35995505105E+03  0.00000000000E+00 0. -1.
         21    1    1    2  506  501  0.42314608535E+02  0.24393223963E+02  0.74411207444E+03  0.74571330603E+03  0.00000000000E+00 0. -1.
<scales pt_clust_3="129.04830" pt_clust_4="40.24963" pt_clust_5="40.24963" pt_clust_6="48.84215"></scales>
<clustering>
<clus scale="   40.250">  4  5 -1 -1</clus>
<clus scale="   48.842">  1  6  2 -1</clus>
<clus scale="  129.048">  2  3  1 -1</clus>
<clus scale="   48.842">  1  3  2 -1</clus>
</clustering>
</event>
<event>
 6    0  0.5563122E+002  0.9177206E+02  0.7546771E-02  0.1298616E+00
         21   -1    0    0  503  501  0.00000000000E+00  0.00000000000E+00  0.30922878715E+03  0.30922878715E+03  0.00000000000E+00 0. -1.
         21   -1    0    0  505  502 -0.00000000000E+00 -0.00000000000E+00 -0.98035212146E+02  0.98035212146E+02  0.00000000000E+00 0. -1.
         21    1    1    2  503  506  0.48741343420E+02  0.17628258195E+02  0.10837612086E+03  0.12013266674E+03  0.00000000000E+00 0. -1.
         21    1    1    2  504  502 -0.48339833336E+02 -0.87358759582E+02 -0.33036844459E+02  0.10516522930E+03  0.00000000000E+00 0. -1.
         21    1    1    2  505  501  0.28992603536E+02 -0.12972122916E+02  0.24131018372E+02  0.39889260214E+02  0.00000000000E+00 0.  1.
         21    1    1    2  506  504 -0.29394113620E+02  0.82702624304E+02  0.11172328023E+03  0.14207684304E+03  0.00000000000E+00 0. -1.
<scales pt_clust_3="61.92077" pt_clust_4="91.77206" pt_clust_5="31.76235" pt_clust_6="14000.00000"></scales>
<clustering>
<clus scale="   31.762">  1  5  2 -1</clus>
<clus scale="   61.921">  1  3  2 -1</clus>
<clus scale="   91.772">  2  4  1 -1</clus>
<clus scale="   31.762">  1  3  2 -1</clus>
</clustering>
</event>
<event>
 6    0  0.5563122E+002  0.1217392E+03  0.7546771E-02  0.1240255E+00
         21   -1    0    0  505  501  0.00000000000E+00  0.00000000000E+00  0.10518416581E+04  0.10518416581E+04  0.00000000000E+00 0.  1.
         21   -1    0    0  504  502 -0.00000000000E+00 -0.00000000000E+00 -0.16922112416E+03  0.16922112416E+03  0.00000000000E+00 0.  1.
         21    1    1    2  503  502 -0.29610333380E+02 -0.64978573760E+02 -0.11132645248E+03  0.13225946436E+03  0.00000000000E+00 0.  1.
         21    1    1    2  504  501  0.84881925797E+02 -0.13825883174E+02  0.74501062572E+03  0.74995795136E+03  0.00000000000E+00 0.  1.
         21    1    1    2  505  506  0.47320404661E+02  0.27081608158E+02  0.21087933802E+03  0.21781351978E+03  0.00000000000E+00 0.  1.
         21    1    1    2  506  503 -0.10259199708E+03  0.51722848777E+02  0.38057022682E+02  0.12103184674E+03  0.00000000000E+00 0.  1.
<scales pt_clust_3="70.85510" pt_clust_4="14000.00000" pt_clust_5="54.52187" pt_clust_6="121.73922"></scales>
<clustering>
<clus scale="   54.522">  1  5  2 -1</clus>
<clus scale="   70.855">  2  3  1 -1</clus>
<clus scale="  121.739">  2  6  1 -1</clus>
<clus scale="   54.522">  1  3  2 -1</clus>
</clustering>
</event>
<event>
 6    0  0.5563122E+002  0.8693106E+02  0.7546771E-02  0.1310458E+00
         21   -1    0    0  506  501  0.00000000000E+00  0.00000000000E+00  0.17434272938E+03  0.17434272938E+03  0.00000000000E+00 0. -1.
         21   -1    0    0  505  502 -0.00000000000E+00 -0.00000000000E+00 -0.15586993704E+03  0.15586993704E+03  0.00000000000E+00 0.  1.
         21    1    1    2  503  504 -0.46289088769E+01 -0.89644946100E+02 -0.83462556817E+01  0.90151556517E+02  0.00000000000E+00 0.  1.
         21    1    1    2  504  501 -0.77810104305E+01  0.42448610143E+02  0.45425074527E+02  0.62656731659E+02  0.00000000000E+00 0. -1.
         21    1    1    2  505  503 -0.54418079047E+02 -0.15874612383E+02 -0.54609850498E+02  0.78711920424E+02  0.00000000000E+00 0.  1.
         21    1    1    2  506  502  0.66827998354E+02  0.63070948339E+02  0.36003823997E+02  0.98692457822E+02  0.00000000000E+00 0.  1.
<scales pt_clust_3="86.93106" pt_clust_4="43.15586" pt_clust_5="56.40786" pt_clust_6="14000.00000"></scales>
<clustering>
<clus scale="   43.156">  1  4  2 -1</clus>
<clus scale="   56.408">  2  5  1 -1</clus>
<clus scale="   86.931">  1  3  2 -1</clus>
<clus scale="   43.156">  1  3  2 -1</clus>
</clustering>
</event>
<event>
 6    0  0.5563122E+002  0.1552109E+03  0.7546771E-02  0.1194212E+00
         21   -1    0    0  506  501  0.00000000000E+00  0.00000000000E+00  0.65004338675E+02  0.65004338675E+02  0.00000000000E+00 0. -1.
         21   -1    0    0  504  502 -0.00000000000E+00 -0.00000000000E+00 -0.46268671590E+03  0.46268671590E+03  0.00000000000E+00 0. -1.
         21    1    1    2  503  505 -0.18866771874E-01  0.11279253447E+03 -0.16291614660E+03  0.19815102071E+03  0.00000000000E+00 0. -1.
         21    1    1    2  504  501 -0.60208888365E+02 -0.13295436485E+03 -0.14906108767E+03  0.20861730807E+03  0.00000000000E+00 0. -1.
         21    1    1    2  505  502  0.36257746408E+02 -0.17326799618E+02 -0.47987680305E+02  0.62591210411E+02  0.00000000000E+00 0.  1.
         21    1    1    2  506  503  0.23970008729E+02  0.37488629997E+02 -0.37717462659E+02  0.58331515384E+02  0.00000000000E+00 0. -1.
<scales pt_clust_3="30.58600" pt_clust_4="147.37392" pt_clust_5="40.18510" pt_clust_6="30.58600"></scales>
<clustering>
<clus scale="   30.586">  3  6 -1 -1</clus>
<clus scale="   40.185">  2  5  1 -1</clus>
<clus scale="  147.374">  1  4  2 -1</clus>
<clus scale="  147.374">  1  3  2 -1</clus>
</clustering>
</event>
<event>
 6    0  0.5563122E+002  0.1390224E+03  0.7546771E-02  0.1214650E+00
         21   -1    0    0  504  501  0.00000000000E+00  0.00000000000E+00  0.85315818814E+03  0.85315818814E+03  0.00000000000E+00 0.  1.
         21   -1    0    0  506  502 -0.00000000000E+00 -0.00000000000E+00 -0.14034363109E+03  0.14034363109E+03  0.00000000000E+00 0.  1.
         21    1    1    2  503  502  0.12099057952E+02 -0.49550138892E+02  0.70517750094E+01  0.51491076880E+02  0.00000000000E+00 0.  1.
         21    1    1    2  504  505  0.16842839411E+01 -0.31144807051E+02  0.70955262832E+03  0.71023782508E+03  0.00000000000E+00 0.  1.
         21    1    1    2  505  503 -0.35240838050E+02 -0.52643276060E+02  0.55551876504E+02  0.84257000682E+02  0.00000000000E+00 0.  1.
         21    1    1    2  506  501  0.21457496157E+02  0.13333822200E+03 -0.59341722778E+02  0.14751591660E+03  0.00000000000E+00 0.  1.
<scales pt_clust_3="51.55110" pt_clust_4="31.19032" pt_clust_5="51.55110" pt_clust_6="125.68991"></scales>
<clustering>
<clus scale="   31.190">  1  4  2 -1</clus>
<clus scale="   51.551">  3  5 -1 -1</clus>
<clus scale="  125.690">  2  6  1 -1</clus>
<clus scale="   31.190">  1  3  2 -1</clus>
</clustering>
</event>
<event>
 6    0  0.5563122E+002  0.1265275E+03  0.7546771E-02  0.1232701E+00
         21   -1    0    0  506  501  0.00000000000E+00  0.00000000000E+00  0.15263587941E+03  0.15263587941E+03  0.00000000000E+00 0. -1.
         21   -1    0    0  503  502 -0.00000000000E+00 -0.00000000000E+00 -0.40952079058E+03  0.40952079058E+03  0.00000000000E+00 0. -1.
         21    1    1    2  503  504  0.11830813854E+03 -0.58494113042E+02 -0.23124430972E+03  0.26625609417E+03  0.00000000000E+00 0. -1.
         21    1    1    2  504  501 -0.97575743333E+01  0.10169190175E+03 -0.30969397096E+02  0.10674997281E+03  0.00000000000E+00 0. -1.
         21    1    1    2  505  502 -0.12749359070E+03 -0.18861858187E+02 -0.39446101957E+02  0.13478271522E+03  0.00000000000E+00 0. -1.
         21    1    1    2  506  505  0.18943026493E+02 -0.24335930525E+02  0.44774897597E+02  0.54367887783E+02  0.00000000000E+00 0. -1.
<scales pt_clust_3="126.52746" pt_clust_4="92.78718" pt_clust_5="14000.00000" pt_clust_6="30.83952"></scales>
<clustering>
<clus scale="   30.840">  1  6  2 -1</clus>
<clus scale="   92.787">  1  4  2 -1</clus>
<clus scale="  126.527">  2  3  1 -1</clus>
<clus scale="   30.840">  1  3  2 -1</clus>
</clustering>
</event>
<event>
 6    0  0.5563122E+002  0.9981310E+02  0.7546771E-02  0.1280689E+00
         21   -1    0    0  504  501  0.00000000000E+00  0.00000000000E+00  0.56233973044E+02  0.56233973044E+02  0.00000000000E+00 0. -1.
         21   -1    0    0  505  502 -0.00000000000E+00 -0.00000000000E+00 -0.96917519329E+03  0.96917519329E+03  0.00000000000E+00 0. -1.
         21    1    1    2  503  501 -0.39973776500E+02 -0.55028203299E+02 -0.55977539064E+03  0.56389227157E+03  0.00000000000E+00 0. -1.
         21    1    1    2  504  506  0.32943556496E+02  0.98045564862E+02 -0.12885060917E+02  0.10423164346E+03  0.00000000000E+00 0. -1.
         21    1    1    2  505  503  0.31526551317E+02 -0.67343527966E+02 -0.23631780915E+03  0.24774014838E+03  0.00000000000E+00 0. -1.
         21    1    1    2  506  502 -0.24496331313E+02  0.24326166403E+02 -0.10396295954E+03  0.10954510293E+03  0.00000000000E+00 0. -1.
<scales pt_clust_3="99.81310" pt_clust_4="14000.00000" pt_clust_5="65.34511" pt_clust_6="34.52293"></scales>
<clustering>
<clus scale="   34.523">  2  6  1 -1</clus>
<clus scale="   65.345">  2  5  1 -1</clus>
<clus scale="   99.813">  2  3  1 -1</clus>
<clus scale="   99.813">  1  3  2 -1</clus>
</clustering>
</event>
<event>
 6    0  0.5563122E+002  0.1062731E+03  0.7546771E-02  0.1267631E+00
         21   -1    0    0  504  501  0.00000000000E+00  0.00000000000E+00  0.17965469273E+03  0.17965469273E+03  0.00000000000E+00 0.  1.
         21   -1    0    0  505  502 -0.00000000000E+00 -0.00000000000E+00 -0.14681497470E+04  0.14681497470E+04  0.00000000000E+00 0. -1.
         21    1    1    2  503  502  0.32310990667E+02  0.16977935893E+02 -0.65453176666E+02  0.74942436314E+02  0.00000000000E+00 0. -1.
         21    1    1    2  504  506 -0.30665842885E+02  0.10242092292E+03  0.15473562068E+03  0.18807857847E+03  0.00000000000E+00 0.  1.
         21    1    1    2  505  501  0.26279695525E+02 -0.30789481603E+02 -0.62222823039E+03  0.62354357127E+03  0.00000000000E+00 0. -1.
         21    1    1    2  506  503 -0.27924843307E+02 -0.88609377212E+02 -0.75554926785E+03  0.76123985363E+03  0.00000000000E+00 0. -1.
<scales pt_clust_3="36.50001" pt_clust_4="14000.00000" pt_clust_5="46.83974" pt_clust_6="106.27307"></scales>
<clustering>
<clus scale="   36.500">  2  3  1 -1</clus>
<clus scale="   46.840">  2  5  1 -1</clus>
<clus scale="  106.273">  2  6  1 -1</clus>
<clus scale="  106.273">  1  3  2 -1</clus>
</clustering>
</event>
<event>
 6    0  0.5563122E+002  0.2221730E+03  0.7546771E-02  0.1132273E+00
         21   -1    0    0  504  501  0.00000000000E+00  0.00000000000E+00  0.13797883913E+04  0.13797883913E+04  0.00000000000E+00 0. -1.
         21   -1    0    0  505  502 -0.00000000000E+00 -0.00000000000E+00 -0.13187663743E+03  0.13187663743E+03  0.00000000000E+00 0. -1.
         21    1    1    2  503  506 -0.97481807521E+02  0.14672226566E+03  0.80626347497E+02  0.19372850577E+03  0.00000000000E+00 0. -1.
         21    1    1    2  504  502 -0.13754189812E+03  0.49248797465E+02  0.27319544828E+03  0.30980473004E+03  0.00000000000E+00 0. -1.
         21    1    1    2  505  503  0.45535803286E+02  0.71383638538E+02  0.40613419908E+02  0.93907311262E+02  0.00000000000E+00 0. -1.
         21    1    1    2  506  501  0.18948790235E+03 -0.26735470166E+03  0.85347653820E+03  0.91422448168E+03  0.00000000000E+00 0. -1.
<scales pt_clust_3="14000.00000" pt_clust_4="143.54193" pt_clust_5="84.67073" pt_clust_6="222.17299"></scales>
<clustering>
<clus scale="   84.671">  2  5  1 -1</clus>
<clus scale="  143.542">  1  4  2 -1</clus>
<clus scale="  222.173">  1  6  2 -1</clus>
<clus scale="  143.542">  1  3  2 -1</clus>
</clustering>
</event>
<event>
 6    0  0.5563122E+002  0.8954718E+02  0.7546771E-02  0.1303952E+00
         21   -1    0    0  505  501  0.00000000000E+00  0.00000000000E+00  0.13316081284E+04  0.13316081284E+04  0.00000000000E+00 0.  1.
         21   -1    0    0  503  502 -0.00000000000E+00 -0.00000000000E+00 -0.93954834910E+03  0.93954834910E+03  0.00000000000E+00 0. -1.
         21    1    1    2  503  506 -0.95076680631E+02  0.13886115911E+03 -0.35634091507E+03  0.39408228134E+03  0.00000000000E+00 0. -1.
         21    1    1    2  504  501  0.91707383469E+01 -0.32937911780E+02  0.12496405494E+04  0.12501081998E+04  0.00000000000E+00 0.  1.
         21    1    1    2  505  502  0.48104196296E+02 -0.60197697089E+02 -0.54677491206E+03  0.55217803369E+03  0.00000000000E+00 0. -1.
         21    1    1    2  506  504  0.37801745988E+02 -0.45725550243E+02  0.45535057022E+02  0.74787962686E+02  0.00000000000E+00 0. -1.
<scales pt_clust_3="89.54718" pt_clust_4="34.19077" pt_clust_5="78.09796" pt_clust_6="14000.00000"></scales>
<clustering>
<clus scale="   34.191">  1  4  2 -1</clus>
<clus scale="   78.098">  2  5  1 -1</clus>
<clus scale="   89.547">  2  3  1 -1</clus>
<clus scale="   34.191">  1  3  2 -1</clus>
</clustering>
</event>
<event>
 6    0  0.5563122E+002  0.8001721E+02  0.7546771E-02  0.1329003E+00
         21   -1    0    0  503  501  0.00000000000E+00  0.00000000000E+00  0.62208702685E+03  0.62208702685E+03  0.00000000000E+00 0.  1.
         21   -1    0    0  504  502 -0.00000000000E+00 -0.00000000000E+00 -0.67627714290E+03  0.67627714290E+03  0.00000000000E+00 0. -1.
         21    1    1    2  503  506  0.22501490965E+02  0.21523206103E+02  0.58491862817E+03  0.58574684556E+03  0.00000000000E+00 0.  1.
         21    1    1    2  504  501  0.40741525880E+02  0.11480927090E+02 -0.26960295163E+03  0.27290554253E+03  0.00000000000E+00 0. -1.
         21    1    1    2  505  502 -0.11833948976E+03 -0.39602610605E+02 -0.36298854379E+03  0.38384018097E+03  0.00000000000E+00 0. -1.
         21    1    1    2  506  505  0.55096472915E+02  0.65984774122E+01 -0.65172488087E+01  0.55871600691E+02  0.00000000000E+00 0.  1.
<scales pt_clust_3="31.13785" pt_clust_4="43.56856" pt_clust_5="80.01721" pt_clust_6="14000.00000"></scales>
<clustering>
<clus scale="   31.138">  1  3  2 -1</clus>
<clus scale="   43.569">  2  4  1 -1</clus>
<clus scale="   80.017">  2  5  1 -1</clus>
<clus scale="   31.138">  1  3  2 -1</clus>
</clustering>
</event>
<event>
 6    0  0.5563122E+002  0.8596577E+02  0.7546771E-02  0.1312926E+00
         21   -1    0    0  504  501  0.00000000000E+00  0.00000000000E+00  0.23810133824E+03  0.23810133824E+03  0.00000000000E+00 0. -1.
         21   -1    0    0  503  502 -0.00000000000E+00 -0.00000000000E+00 -0.19721236183E+03  0.19721236183E+03  0.00000000000E+00 0.  1.
         21    1    1    2  503  505  0.18038463448E+02 -0.81212056093E+02 -0.94610861533E+02  0.12598412336E+03  0.00000000000E+00 0.  1.
         21    1    1    2  504  506  0.90703183440E+02 -0.19491849777E+02  0.86179098386E+02  0.12662478704E+03  0.00000000000E+00 0. -1.
         21    1    1    2  505  501 -0.75168909935E+02  0.71998295199E+01  0.11416740662E+02  0.76371097499E+02  0.00000000000E+00 0. -1.
         21    1    1    2  506  502 -0.33572736953E+02  0.93504076350E+02  0.37903998895E+02  0.10633369218E+03  0.00000000000E+00 0. -1.
<scales pt_clust_3="14000.00000" pt_clust_4="51.90305" pt_clust_5="75.51293" pt_clust_6="85.96577"></scales>
<clustering>
<clus scale="   75.513">  1  5  2 -1</clus>
<clus scale="   51.903">  1  4  2 -1</clus>
<clus scale="   85.966">  1  6  2 -1</clus>
<clus scale="   75.513">  1  3  2 -1</clus>
</clustering>
</event>
<event>
 6    0  0.5563122E+002  0.1172703E+03  0.7546771E-02  0.1247669E+00
         21   -1    0    0  505  501  0.00000000000E+00  0.00000000000E+00  0.10026498457E+04  0.10026498457E+04  0.00000000000E+00 0. -1.
         21   -1    0    0  506  502 -0.00000000000E+00 -0.00000000000E+00 -0.90856744188E+02  0.90856744188E+02  0.00000000000E+00 0.  1.
         21    1    1    2  503  501  0.14314707566E+03 -0.52195763262E+02  0.14709168652E+03  0.21178160264E+03  0.00000000000E+00 0.  1.
         21    1    1    2  504  503 -0.61751198976E+02  0.57877141007E+02 -0.12063010697E+02  0.85489708464E+02  0.00000000000E+00 0.  1.
         21    1    1    2  505  502 -0.56356135229E+02 -0.43374066479E+02  0.72063972879E+03  0.72414013998E+03  0.00000000000E+00 0. -1.
         21    1    1    2  506  504 -0.25039741454E+02  0.37692688733E+02  0.56124696856E+02  0.72095138763E+02  0.00000000000E+00 0.  1.
<scales pt_clust_3="117.27031" pt_clust_4="14000.00000" pt_clust_5="71.05481" pt_clust_6="45.25182"></scales>
<clustering>
<clus scale="   45.252">  2  6  1 -1</clus>
<clus scale="   71.055">  1  5  2 -1</clus>
<clus scale="  117.270">  1  3  2 -1</clus>
<clus scale="   71.055">  1  3  2 -1</clus>
</clustering>
</event>
<event>
 6    0  0.5563122E+002  0.1230912E+03  0.7546771E-02  0.1238083E+00
         21   -1    0    0  505  501  0.00000000000E+00  0.00000000000E+00  0.25375244955E+02  0.25375244955E+02  0.00000000000E+00 0. -1.
         21   -1    0    0  506  502 -0.00000000000E+00 -0.00000000000E+00 -0.11255821502E+04  0.11255821502E+04  0.00000000000E+00 0. -1.
         21    1    1    2  503  501  0.50542074859E+02  0.52393962512E+02 -0.28263026475E+03  0.29185526411E+03  0.00000000000E+00 0. -1.
         21    1    1    2  504  502 -0.56760085903E+01 -0.33534806587E+02 -0.40471657754E+03  0.40614321176E+03  0.00000000000E+00 0. -1.
         21    1    1    2  505  504 -0.38617597515E+02 -0.91760426989E+02 -0.14943390371E+03  0.17955997989E+03  0.00000000000E+00 0. -1.
         21    1    1    2  506  503 -0.62484687541E+01  0.72901271064E+02 -0.26342615923E+03  0.27339893937E+03  0.00000000000E+00 0. -1.
<scales pt_clust_3="60.07531" pt_clust_4="34.01177" pt_clust_5="107.13337" pt_clust_6="60.07531"></scales>
<clustering>
<clus scale="   34.012">  2  4  1 -1</clus>
<clus scale="   60.075">  3  6 -1 -1</clus>
<clus scale="  107.133">  1  5  2 -1</clus>
<clus scale="  107.133">  1  3  2 -1</clus>
</clustering>
</event>
<event>
 6    0  0.5563122E+002  0.1377236E+03  0.7546771E-02  0.1216425E+00
         21   -1    0    0  503  501  0.00000000000E+00  0.00000000000E+00  0.17418182599E+03  0.17418182599E+03  0.00000000000E+00 0.  1.
         21   -1    0    0  504  502 -0.00000000000E+00 -0.00000000000E+00 -0.84876697309E+03  0.84876697309E+03  0.00000000000E+00 0. -1.
         21    1    1    2  503  505  0.11335194865E+03  0.16600685407E+02  0.25250470787E+01  0.11458893001E+03  0.00000000000E+00 0.  1.
         21    1    1    2  504  506  0.73944617694E+01  0.10085911201E+03  0.16351058598E+02  0.10244313378E+03  0.00000000000E+00 0.  1.
         21    1    1    2  505  502 -0.80785105916E+02 -0.11857084049E+03 -0.73464323612E+03  0.74852251932E+03  0.00000000000E+00 0. -1.
         21    1    1    2  506  501 -0.39961304501E+02  0.11110430647E+01  0.41181983347E+02  0.57394215967E+02  0.00000000000E+00 0.  1.
<scales pt_clust_3="96.15259" pt_clust_4="137.72363" pt_clust_5="14000.00000" pt_clust_6="39.97675"></scales>
<clustering>
<clus scale="   39.977">  1  6  2 -1</clus>
<clus scale="   96.153">  1  3  2 -1</clus>
<clus scale="  137.724">  1  4  2 -1</clus>
<clus scale="   39.977">  1  3  2 -1</clus>
</clustering>
</event>
<event>
 6    0  0.5563122E+002  0.1100586E+03  0.7546771E-02  0.1260461E+00
         21   -1    0    0  505  501  0.00000000000E+00  0.00000000000E+00  0.18327730298E+04  0.18327730298E+04  0.00000000000E+00 0.  1.
         21   -1    0    0  503  502 -0.00000000000E+00 -0.00000000000E+00 -0.28346677204E+03  0.28346677204E+03  0.00000000000E+00 0. -1.
         21    1    1    2  503  506 -0.55651987883E+02 -0.54173295737E+02  0.12219219137E+03  0.14478543214E+03  0.00000000000E+00 0.  1.
         21    1    1    2  504  502 -0.97536967349E+02  0.49730652779E+02 -0.24999192089E+03  0.27291492875E+03  0.00000000000E+00 0. -1.
         21    1    1    2  505  504  0.20923498583E+03  0.12157112546E+02  0.14114528482E+04  0.14269289461E+04  0.00000000000E+00 0.  1.
         21    1    1    2  506  501 -0.56046030594E+02 -0.77144695873E+01  0.26565313911E+03  0.27161049484E+03  0.00000000000E+00 0.  1.
<scales pt_clust_3="81.60219" pt_clust_4="14000.00000" pt_clust_5="110.05859" pt_clust_6="56.57447"></scales>
<clustering>
<clus scale="   56.574">  1  6  2 -1</clus>
<clus scale="   81.602">  1  3  2 -1</clus>
<clus scale="  110.059">  1  5  2 -1</clus>
<clus scale="   56.574">  1  3  2 -1</clus>
</clustering>
</event>
<event>
 6    0  0.5563122E+002  0.8998278E+02  0.7546771E-02  0.1302893E+00
         21   -1    0    0  506  501  0.00000000000E+00  0.00000000000E+00  0.27844816462E+02  0.27844816462E+02  0.00000000000E+00 0. -1.
         21   -1    0    0  503  502 -0.00000000000E+00 -0.00000000000E+00 -0.10223765461E+04  0.10223765461E+04  0.00000000000E+00 0.  1.
         21    1    1    2  503  505 -0.67216607762E+02 -0.42788513982E+02 -0.32615125941E+03  0.33574331460E+03  0.00000000000E+00 0.  1.
         21    1    1    2  504  502  0.63211163478E+02  0.78660969790E+02 -0.61974970416E+03  0.62791153450E+03  0.00000000000E+00 0.  1.
         21    1    1    2  505  501 -0.27176608476E+02 -0.25717348172E+02 -0.17337661876E+02  0.41237659543E+02  0.00000000000E+00 0. -1.
         21    1    1    2  506  504  0.31182052760E+02 -0.10155107637E+02 -0.31293104146E+02  0.45328853862E+02  0.00000000000E+00 0. -1.
<scales pt_clust_3="89.98278" pt_clust_4="14000.00000" pt_clust_5="32.88227" pt_clust_6="32.79400"></scales>
<clustering>
<clus scale="   32.794">  1  6  2 -1</clus>
<clus scale="   32.882">  1  5  2 -1</clus>
<clus scale="   89.983">  1  3  2 -1</clus>
<clus scale="   32.794">  1  3  2 -1</clus>
</clustering>
</event>
<event>
 6    0  0.5563122E+002  0.6617163E+02  0.7546771E-02  0.1373618E+00
         21   -1    0    0  504  501  0.00000000000E+00  0.00000000000E+00  0.75512652615E+03  0.75512652615E+03  0.00000000000E+00 0.  1.
         21   -1    0    0  505  502 -0.00000000000E+00 -0.00000000000E+00 -0.10726272505E+04  0.10726272505E+04  0.00000000000E+00 0. -1.
         21    1    1    2  503  502  0.94388850473E+02 -0.12110706775E+02 -0.31682743188E+03  0.33081043802E+03  0.00000000000E+00 0. -1.
         21    1    1    2  504  506 -0.24263864784E+02 -0.59566748058E+02  0.72245469502E+03  0.72531215277E+03  0.00000000000E+00 0.  1.
         21    1    1    2  505  501 -0.28188223159E+02  0.20809289542E+02 -0.70131558375E+03  0.70219025233E+03  0.00000000000E+00 0. -1.
         21    1    1    2  506  503 -0.41936762530E+02  0.50868165292E+02 -0.21812403737E+02  0.69440933522E+02  0.00000000000E+00 0. -1.
<scales pt_clust_3="14000.00000" pt_clust_4="64.28585" pt_clust_5="35.03716" pt_clust_6="66.17163"></scales>
<clustering>
<clus scale="   35.037">  2  5  1 -1</clus>
<clus scale="   64.286">  1  4  2 -1</clus>
<clus scale="   66.172">  1  6  2 -1</clus>
<clus scale="   64.286">  1  3  2 -1</clus>
</clustering>
</event>
<event>
 6    0  0.5563122E+002  0.9822458E+02  0.7546771E-02  0.1284074E+00
         21   -1    0    0  503  501  0.00000000000E+00  0.00000000000E+00  0.11312070752E+03  0.11312070752E+03  0.00000000000E+00 0.  1.
         21   -1    0    0  504  502 -0.00000000000E+00 -0.00000000000E+00 -0.18916179072E+03  0.18916179072E+03  0.00000000000E+00 0.  1.
         21    1    1    2  503  502  0.23203868683E+02 -0.27577740933E+02 -0.17703579526E+01  0.36084421626E+02  0.00000000000E+00 0.  1.
         21    1    1    2  504  505  0.76949581306E+02  0.82804548169E+02 -0.81623416594E+02  0.13942816572E+03  0.00000000000E+00 0.  1.
         21    1    1    2  505  506 -0.81216189843E+02 -0.28132266620E+02 -0.14469595772E+02  0.87159985771E+02  0.00000000000E+00 0.  1.
         21    1    1    2  506  501 -0.18937260147E+02 -0.27094540615E+02  0.21822287114E+02  0.39609925119E+02  0.00000000000E+00 0. -1.
<scales pt_clust_3="38.39904" pt_clust_4="98.22458" pt_clust_5="14000.00000" pt_clust_6="33.05653"></scales>
<clustering>
<clus scale="   33.057">  1  6  2 -1</clus>
<clus scale="   38.399">  1  3  2 -1</clus>
<clus scale="   98.225">  2  4  1 -1</clus>
<clus scale="   33.057">  1  3  2 -1</clus>
</clustering>
</event>
<event>
 6    0  0.5563122E+002  0.8928123E+02  0.7546771E-02  0.1304602E+00
         21   -1    0    0  505  501  0.00000000000E+00  0.00000000000E+00  0.16733630392E+03  0.16733630392E+03  0.00000000000E+00 0.  1.
         21   -1    0    0  506  502 -0.00000000000E+00 -0.00000000000E+00 -0.43206053781E+03  0.43206053781E+03  0.00000000000E+00 0.  1.
         21    1    1    2  503  502 -0.26603689581E+02  0.84649834173E+02 -0.34676488110E+03  0.35793747148E+03  0.00000000000E+00 0.  1.
         21    1    1    2  504  501  0.64712707152E+02  0.23160217534E+02  0.41000237337E+00  0.68733530719E+02  0.00000000000E+00 0.  1.
         21    1    1    2  505  503 -0.51732910060E+02 -0.11056992097E+02  0.40901700600E+02  0.66869276723E+02  0.00000000000E+00 0.  1.
         21    1    1    2  506  504  0.13623892489E+02 -0.96753059609E+02  0.40728944237E+02  0.10585656281E+03  0.00000000000E+00 0.  1.
<scales pt_clust_3="89.28123" pt_clust_4="52.79774" pt_clust_5="52.90133" pt_clust_6="14000.00000"></scales>
<clustering>
<clus scale="   52.901">  1  5  2 -1</clus>
<clus scale="   52.798">  1  4  2 -1</clus>
<clus scale="   89.281">  2  3  1 -1</clus>
<clus scale="   52.901">  1  3  2 -1</clus>
</clustering>
</event>
<event>
 6    0  0.5563122E+002  0.2023552E+03  0.7546771E-02  0.1147767E+00
         21   -1    0    0  504  501  0.00000000000E+00  0.00000000000E+00  0.84976100584E+03  0.84976100584E+03  0.00000000000E+00 0. -1.
         21   -1    0    0  503  502 -0.00000000000E+00 -0.00000000000E+00 -0.75043464270E+03  0.75043464270E+03  0.00000000000E+00 0. -1.
         21    1    1    2  503  505 -0.53632265589E+02 -0.22078849507E+03 -0.47518851397E+03  0.52671444187E+03  0.00000000000E+00 0. -1.
         21    1    1    2  504  506  0.10631799311E+03  0.24127924019E+03  0.54004673241E+03  0.60097392671E+03  0.00000000000E+00 0. -1.
         21    1    1    2  505  501 -0.12949689953E+02 -0.66534763880E+02  0.24456491737E+03  0.25378449141E+03  0.00000000000E+00 0. -1.
         21    1    1    2  506  502 -0.39736037569E+02  0.46044018760E+02 -0.21009677267E+03  0.21872278855E+03  0.00000000000E+00 0. -1.
<scales pt_clust_3="202.35518" pt_clust_4="14000.00000" pt_clust_5="67.46111" pt_clust_6="60.81944"></scales>
<clustering>
<clus scale="   60.819">  2  6  1 -1</clus>
<clus scale="   67.461">  1  5  2 -1</clus>
<clus scale="  202.355">  2  3  1 -1</clus>
<clus scale="   67.461">  1  3  2 -1</clus>
</clustering>
</event>
<event>
 6    0  0.5563122E+002  0.1562327E+03  0.7546771E-02  0.1193017E+00
         21   -1    0    0  504  501  0.00000000000E+00  0.00000000000E+00  0.11946307126E+03  0.11946307126E+03  0.00000000000E+00 0.  1.
         21   -1    0    0  505  502 -0.00000000000E+00 -0.00000000000E+00 -0.26997060797E+03  0.26997060797E+03  0.00000000000E+00 0. -1.
         21    1    1    2  503  501 -0.96468428038E+00  0.30397248759E+02  0.19687360053E+02  0.36228655699E+02  0.00000000000E+00 0.  1.
         21    1    1    2  504  506 -0.32854075120E+02 -0.82894840041E+02 -0.33649097619E+02  0.95305857784E+02  0.00000000000E+00 0. -1.
         21    1    1    2  505  503  0.57622060816E+02  0.12593392921E+03 -0.66373276417E+02  0.15357430853E+03  0.00000000000E+00 0. -1.
         21    1    1    2  506  502 -0.23803301416E+02 -0.73436337928E+02 -0.70172522723E+02  0.10432485721E+03  0.00000000000E+00 0. -1.
<scales pt_clust_3="30.41255" pt_clust_4="35.79904" pt_clust_5="151.60694" pt_clust_6="35.79904"></scales>
<clustering>
<clus scale="   30.413">  1  3  2 -1</clus>
<clus scale="   35.799">  4  6 -1 -1</clus>
<clus scale="  151.607">  2  5  1 -1</clus>
<clus scale="   30.413">  1  3  2 -1</clus>
</clustering>
</event>
<event>
 6    0  0.5563122E+002  0.2879085E+03  0.7546771E-02  0.1091446E+00
         21   -1    0    0  505  501  0.00000000000E+00  0.00000000000E+00  0.30948826382E+04  0.30948826382E+04  0.00000000000E+00 0.  1.
         21   -1    0    0  506  502 -0.00000000000E+00 -0.00000000000E+00 -0.13158531524E+04  0.13158531524E+04  0.00000000000E+00 0.  1.
         21    1    1    2  503  504 -0.77670295501E+01  0.17884088904E+03  0.75320449985E+03  0.77418435075E+03  0.00000000000E+00 0.  1.
         21    1    1    2  504  501 -0.28867370852E+02 -0.13262663366E+02  0.16187835089E+04  0.16190952016E+04  0.00000000000E+00 0.  1.
         21    1    1    2  505  502  0.78949170471E+02 -0.26647208025E+03 -0.12860729890E+04  0.13157598847E+04  0.00000000000E+00 0.  1.
         21    1    1    2  506  503 -0.42314770069E+02  0.10089385458E+03  0.69311446602E+03  0.70169635361E+03  0.00000000000E+00 0.  1.
<scales pt_clust_3="59.70833" pt_clust_4="31.76828" pt_clust_5="277.96706" pt_clust_6="59.70833"></scales>
<clustering>
<clus scale="   31.768">  1  4  2 -1</clus>
<clus scale="   59.708">  3  6 -1 -1</clus>
<clus scale="  277.967">  2  5  1 -1</clus>
<clus scale="   31.768">  1  3  2 -1</clus>
</clustering>
</event>
<event>
 6    0  0.5563122E+002  0.1158416E+03  0.7546771E-02  0.1250119E+00
         21   -1    0    0  504  501  0.00000000000E+00  0.00000000000E+00  0.11295245271E+04  0.11295245271E+04  0.00000000000E+00 0. -1.
         21   -1    0    0  506  502 -0.00000000000E+00 -0.00000000000E+00 -0.11036061796E+04  0.11036061796E+04  0.00000000000E+00 0.  1.
         21    1    1    2  503  502 -0.66325262869E+01  0.36840504123E+02 -0.17117336078E+03  0.17521852810E+03  0.00000000000E+00 0. -1.
         21    1    1    2  504  505 -0.10267790537E+03 -0.54259615638E+02  0.11199068468E+04  0.11259121652E+04  0.00000000000E+00 0. -1.
         21    1    1    2  505  503  0.62418743896E+02 -0.15823233354E+02 -0.31763840164E+03  0.32409971999E+03  0.00000000000E+00 0. -1.
         21    1    1    2  506  501  0.46891687759E+02  0.33242344870E+02 -0.60517673692E+03  0.60790029345E+03  0.00000000000E+00 0.  1.
<scales pt_clust_3="37.43278" pt_clust_4="14000.00000" pt_clust_5="60.21219" pt_clust_6="115.84160"></scales>
<clustering>
<clus scale="   37.433">  2  3  1 -1</clus>
<clus scale="   60.212">  2  5  1 -1</clus>
<clus scale="  115.842">  2  6  1 -1</clus>
<clus scale="  115.842">  1  3  2 -1</clus>
</clustering>
</event>
<event>
 6    0  0.5563122E+002  0.1459892E+03  0.7546771E-02  0.1205490E+00
         21   -1    0    0  505  501  0.00000000000E+00  0.00000000000E+00  0.10131436611E+04  0.10131436611E+04  0.00000000000E+00 0. -1.
         21   -1    0    0  503  502 -0.00000000000E+00 -0.00000000000E+00 -0.93523935139E+02  0.93523935139E+02  0.00000000000E+00 0. -1.
         21    1    1    2  503  504 -0.17802876732E+03 -0.87299757660E+02  0.27482081769E+03  0.33888341877E+03  0.00000000000E+00 0. -1.
         21    1    1    2  504  501  0.30613149869E+02 -0.20766215417E+02  0.53434590879E+03  0.53562482288E+03  0.00000000000E+00 0. -1.
         21    1    1    2  505  506  0.52957980583E+02  0.13686307845E+02  0.77094537338E+02  0.94527405641E+02  0.00000000000E+00 0. -1.
         21    1    1    2  506  502  0.94457636871E+02  0.94379665232E+02  0.33358462135E+02  0.13763194894E+03  0.00000000000E+00 0. -1.
<scales pt_clust_3="145.98922" pt_clust_4="36.99190" pt_clust_5="59.29429" pt_clust_6="14000.00000"></scales>
<clustering>
<clus scale="   36.992">  1  4  2 -1</clus>
<clus scale="   59.294">  1  5  2 -1</clus>
<clus scale="  145.989">  1  3  2 -1</clus>
<clus scale="   36.992">  1  3  2 -1</clus>
</clustering>
</event>
<event>
 6    0  0.5563122E+002  0.8863779E+02  0.7546771E-02  0.1306184E+00
         21   -1    0    0  505  501  0.00000000000E+00  0.00000000000E+00  0.88661670727E+03  0.88661670727E+03  0.00000000000E+00 0.  1.
         21   -1    0    0  506  502 -0.00000000000E+00 -0.00000000000E+00 -0.47058829888E+02  0.47058829888E+02  0.00000000000E+00 0.  1.
         21    1    1    2  503  504  0.62961379706E+02  0.76413132260E+02  0.20430605602E+03  0.22703318401E+03  0.00000000000E+00 0.  1.
         21    1    1    2  504  501 -0.36552065732E+02  0.81140421671E-01  0.44700064737E+03  0.44849262964E+03  0.00000000000E+00 0.  1.
         21    1    1    2  505  502 -0.52998682014E+02  0.23050835018E+02  0.20577257087E+02  0.61348388728E+02  0.00000000000E+00 0.  1.
         21    1    1    2  506  503  0.26589368040E+02 -0.99545107700E+02  0.16767391690E+03  0.19680133478E+03  0.00000000000E+00 0.  1.
<scales pt_clust_3="14000.00000" pt_clust_4="36.55216" pt_clust_5="60.94109" pt_clust_6="88.63779"></scales>
<clustering>
<clus scale="   36.552">  1  4  2 -1</clus>
<clus scale="   60.941">  2  5  1 -1</clus>
<clus scale="   88.638">  2  6  1 -1</clus>
<clus scale="   36.552">  1  3  2 -1</clus>
</clustering>
</event>
<event>
 6    0  0.5563122E+002  0.7780568E+02  0.7546771E-02  0.1335396E+00
         21   -1    0    0  503  501  0.00000000000E+00  0.00000000000E+00  0.56651935067E+03  0.56651935067E+03  0.00000000000E+00 0. -1.
         21   -1    0    0  504  502 -0.00000000000E+00 -0.00000000000E+00 -0.19114017299E+03  0.19114017299E+03  0.00000000000E+00 0.  1.
         21    1    1    2  503  502 -0.21778679483E+02 -0.67914562739E+02 -0.11753998643E+03  0.13748580698E+03  0.00000000000E+00 0.  1.
         21    1    1    2  504  506 -0.24049861682E+02 -0.58306499654E+02  0.34883798598E+01  0.63168129170E+02  0.00000000000E+00 0. -1.
         21    1    1    2  505  501 -0.17263759164E+02  0.76289035747E+02  0.46696120087E+03  0.47346680715E+03  0.00000000000E+00 0. -1.
         21    1    1    2  506  505  0.63092300329E+02  0.49932026645E+02  0.22469583380E+02  0.83538780354E+02  0.00000000000E+00 0. -1.
<scales pt_clust_3="77.80568" pt_clust_4="63.07173" pt_clust_5="14000.00000" pt_clust_6="70.28273"></scales>
<clustering>
<clus scale="   63.072">  2  4  1 -1</clus>
<clus scale="   70.283">  2  6  1 -1</clus>
<clus scale="   77.806">  2  3  1 -1</clus>
<clus scale="   77.806">  1  3  2 -1</clus>
</clustering>
</event>
<event>
 6    0  0.5563122E+002  0.8807804E+02  0.7546771E-02  0.1307574E+00
         21   -1    0    0  503  501  0.00000000000E+00  0.00000000000E+00  0.78244101456E+03  0.78244101456E+03  0.00000000000E+00 0.  1.
         21   -1    0    0  504  502 -0.00000000000E+00 -0.00000000000E+00 -0.14549517080E+03  0.14549517080E+03  0.00000000000E+00 0.  1.
         21    1    1    2  503  505  0.32129000184E+02  0.12900045024E+03  0.52547180984E+03  0.54202768541E+03  0.00000000000E+00 0.  1.
         21    1    1    2  504  501 -0.49411012196E+02 -0.33513568873E+02  0.19383284334E+03  0.20281957149E+03  0.00000000000E+00 0.  1.
         21    1    1    2  505  506  0.33479375199E+01 -0.60245016099E+02  0.27916906781E+02  0.66483263568E+02  0.00000000000E+00 0.  1.
         21    1    1    2  506  502  0.13934074491E+02 -0.35241865268E+02 -0.11027571620E+03  0.11660566488E+03  0.00000000000E+00 0.  1.
<scales pt_clust_3="88.07804" pt_clust_4="61.08132" pt_clust_5="14000.00000" pt_clust_6="37.89654"></scales>
<clustering>
<clus scale="   37.897">  2  6  1 -1</clus>
<clus scale="   61.081">  1  4  2 -1</clus>
<clus scale="   88.078">  1  3  2 -1</clus>
<clus scale="   61.081">  1  3  2 -1</clus>
</clustering>
</event>
<event>
 6    0  0.5563122E+002  0.1109763E+03  0.7546771E-02  0.1258772E+00
         21   -1    0    0  505  501  0.00000000000E+00  0.00000000000E+00  0.42926119905E+03  0.42926119905E+03  0.00000000000E+00 0.  1.
         21   -1    0    0  506  502 -0.00000000000E+00 -0.00000000000E+00 -0.59884788501E+03  0.59884788501E+03  0.00000000000E+00 0.  1.
         21    1    1    2  503  502 -0.25421947910E+02 -0.18713188605E+03 -0.11969790197E+03  0.22358936904E+03  0.00000000000E+00 0.  1.
         21    1    1    2  504  501  0.26679574974E+02  0.54576429428E+02 -0.34798069394E+02  0.70009227988E+02  0.00000000000E+00 0.  1.
         21    1    1    2  505  503  0.40808378017E+02  0.38121523173E+02  0.35032739491E+03  0.35475041630E+03  0.00000000000E+00 0.  1.
         21    1    1    2  506  504 -0.42066005080E+02  0.94433933446E+02 -0.36541810950E+03  0.37976007073E+03  0.00000000000E+00 0.  1.
<scales pt_clust_3="110.97634" pt_clust_4="72.86373" pt_clust_5="55.84420" pt_clust_6="14000.00000"></scales>
<clustering>
<clus scale="   55.844">  1  5  2 -1</clus>
<clus scale="   72.864">  1  4  2 -1</clus>
<clus scale="  110.976">  1  3  2 -1</clus>
<clus scale="   55.844">  1  3  2 -1</clus>
</clustering>
</event>
<event>
 6    0  0.5563122E+002  0.8030176E+02  0.7546771E-02  0.1328197E+00
         21   -1    0    0  505  501  0.00000000000E+00  0.00000000000E+00  0.50562477109E+03  0.50562477109E+03  0.00000000000E+00 0.  1.
         21   -1    0    0  504  502 -0.00000000000E+00 -0.00000000000E+00 -0.42777076672E+03  0.42777076672E+03  0.00000000000E+00 0. -1.
         21    1    1    2  503  506 -0.24108848333E+02  0.10300362135E+03  0.13155970324E+03  0.16881628505E+03  0.00000000000E+00 0.  1.
         21    1    1    2  504  503 -0.25265226292E+02 -0.40651380633E+02 -0.39981616844E+03  0.40267087671E+03  0.00000000000E+00 0. -1.
         21    1    1    2  505  502  0.37485861915E+02  0.13016295604E+01  0.85355313831E+02  0.93233114730E+02  0.00000000000E+00 0.  1.
         21    1    1    2  506  501  0.11888212709E+02 -0.63653870281E+02  0.26075515574E+03  0.26867526133E+03  0.00000000000E+00 0.  1.
<scales pt_clust_3="80.30176" pt_clust_4="47.79149" pt_clust_5="37.50845" pt_clust_6="14000.00000"></scales>
<clustering>
<clus scale="   37.508">  1  5  2 -1</clus>
<clus scale="   47.791">  2  4  1 -1</clus>
<clus scale="   80.302">  2  3  1 -1</clus>
<clus scale="   37.508">  1  3  2 -1</clus>
</clustering>
</event>
<event>
 6    0  0.5563122E+002  0.1374161E+03  0.7546771E-02  0.1216849E+00
         21   -1    0    0  506  501  0.00000000000E+00  0.00000000000E+00  0.19681315532E+03  0.19681315532E+03  0.00000000000E+00 0.  1.
         21   -1    0    0  505  502 -0.00000000000E+00 -0.00000000000E+00 -0.67296811117E+03  0.67296811117E+03  0.00000000000E+00 0.  1.
         21    1    1    2  503  504 -0.21195646484E+02 -0.23959395155E+02 -0.64690141795E+01  0.32636730696E+02  0.00000000000E+00 0.  1.
         21    1    1    2  504  501 -0.51843557305E+02  0.49221494880E+01  0.71608524468E+01  0.52566717583E+02  0.00000000000E+00 0. -1.
         21    1    1    2  505  503  0.11461411946E+03  0.86270601847E+02 -0.61168225116E+03  0.62827875144E+03  0.00000000000E+00 0.  1.
         21    1    1    2  506  502 -0.41574915675E+02 -0.67233356180E+02  0.13483545704E+03  0.15629906677E+03  0.00000000000E+00 0.  1.
<scales pt_clust_3="30.97572" pt_clust_4="30.97572" pt_clust_5="131.60993" pt_clust_6="79.04934"></scales>
<clustering>
<clus scale="   30.976">  3  4 -1 -1</clus>
<clus scale="   79.049">  1  6  2 -1</clus>
<clus scale="  131.610">  2  5  1 -1</clus>
<clus scale="   79.049">  1  3  2 -1</clus>
</clustering>
</event>
<event>
 6    0  0.5563122E+002  0.8385701E+02  0.7546771E-02  0.1318449E+00
         21   -1    0    0  504  501  0.00000000000E+00  0.00000000000E+00  0.14120348378E+04  0.14120348378E+04  0.00000000000E+00 0.  1.
         21   -1    0    0  505  502 -0.00000000000E+00 -0.00000000000E+00 -0.11329502682E+03  0.11329502682E+03  0.00000000000E+00 0. -1.
         21    1    1    2  503  501  0.37279050341E+02 -0.63859824273E+02  0.45308405409E+03  0.45907838636E+03  0.00000000000E+00 0.  1.
         21    1    1    2  504  506 -0.42987353607E+02 -0.12048809635E+02  0.18936874150E+03  0.19456003352E+03  0.00000000000E+00 0.  1.
         21    1    1    2  505  503  0.62452747148E+02  0.11026816945E+03  0.74791278103E+03  0.75857296475E+03  0.00000000000E+00 0.  1.
         21    1    1    2  506  502 -0.56744443882E+02 -0.34359535547E+02 -0.91625765624E+02  0.11311848001E+03  0.00000000000E+00 0. -1.
<scales pt_clust_3="14000.00000" pt_clust_4="44.64400" pt_clust_5="83.85701" pt_clust_6="66.71527"></scales>
<clustering>
<clus scale="   44.644">  1  4  2 -1</clus>
<clus scale="   66.715">  2  6  1 -1</clus>
<clus scale="   83.857">  2  5  1 -1</clus>
<clus scale="   44.644">  1  3  2 -1</clus>
</clustering>
</event>
<event>
 6    0  0.5563122E+002  0.1248505E+03  0.7546771E-02  0.1235303E+00
         21   -1    0    0  506  501  0.00000000000E+00  0.00000000000E+00  0.10704130039E+04  0.10704130039E+04  0.00000000000E+00 0.  1.
         21   -1    0    0  504  502 -0.00000000000E+00 -0.00000000000E+00 -0.39308919049E+03  0.39308919049E+03  0.00000000000E+00 0.  1.
         21    1    1    2  503  502  0.31532962052E+02  0.25947054483E+02 -0.14336132714E+02  0.43279348809E+02  0.00000000000E+00 0. -1.
         21    1    1    2  504  505 -0.47770717966E+02  0.35819303481E+02 -0.20602164488E+03  0.21449937566E+03  0.00000000000E+00 0.  1.
         21    1    1    2  505  501  0.20747532565E+02  0.64520834141E+02 -0.14255159127E+03  0.15784281523E+03  0.00000000000E+00 0. -1.
         21    1    1    2  506  503 -0.45097766516E+01 -0.12628719211E+03  0.10402331823E+04  0.10478806547E+04  0.00000000000E+00 0.  1.
<scales pt_clust_3="40.83598" pt_clust_4="58.77585" pt_clust_5="124.85047" pt_clust_6="14000.00000"></scales>
<clustering>
<clus scale="   40.836">  2  3  1 -1</clus>
<clus scale="   58.776">  2  4  1 -1</clus>
<clus scale="  124.850">  2  5  1 -1</clus>
<clus scale="  124.850">  1  3  2 -1</clus>
</clustering>
</event>
<event>
 6    0  0.5563122E+002  0.1450813E+03  0.7546771E-02  0.1206651E+00
         21   -1    0    0  503  501  0.00000000000E+00  0.00000000000E+00  0.10897084062E+04  0.10897084062E+04  0.00000000000E+00 0.  1.
         21   -1    0    0  506  502 -0.00000000000E+00 -0.00000000000E+00 -0.13722828627E+03  0.13722828627E+03  0.00000000000E+00 0. -1.
         21    1    1    2  503  502  0.60516611822E+02  0.22225929154E+02 -0.80518127573E+02  0.10314756954E+03  0.00000000000E+00 0. -1.
         21    1    1    2  504  501  0.52592709656E+02 -0.71517888239E+02  0.75236451310E+03  0.75758376568E+03  0.00000000000E+00 0.  1.
         21    1    1    2  505  504  0.15217532708E+02 -0.41971707573E+02  0.16474720735E+03  0.17068930801E+03  0.00000000000E+00 0. -1.
         21    1    1    2  506  505 -0.12832685419E+03  0.91263666658E+02  0.11588652701E+03  0.19551604921E+03  0.00000000000E+00 0.  1.
<scales pt_clust_3="64.46900" pt_clust_4="39.60444" pt_clust_5="39.60444" pt_clust_6="133.90186"></scales>
<clustering>
<clus scale="   39.604">  4  5 -1 -1</clus>
<clus scale="   64.469">  2  3  1 -1</clus>
<clus scale="  133.902">  2  6  1 -1</clus>
<clus scale="  145.081">  1  3  2 -1</clus>
</clustering>
</event>
<event>
 6    0  0.5563122E+002  0.1167504E+03  0.7546771E-02  0.1248556E+00
         21   -1    0    0  504  501  0.00000000000E+00  0.00000000000E+00  0.29539603582E+02  0.29539603582E+02  0.00000000000E+00 0. -1.
         21   -1    0    0  503  502 -0.00000000000E+00 -0.00000000000E+00 -0.85682940665E+03  0.85682940665E+03  0.00000000000E+00 0. -1.
         21    1    1    2  503  505  0.61016406469E+02 -0.14207954575E+02 -0.19165771513E+03  0.20163716820E+03  0.00000000000E+00 0. -1.
         21    1    1    2  504  502 -0.32557596367E+02 -0.29977179466E+02 -0.16843402508E+03  0.17415122502E+03  0.00000000000E+00 0. -1.
         21    1    1    2  505  506  0.55660895265E+02 -0.25327030754E+02 -0.32828212537E+03  0.33392925536E+03  0.00000000000E+00 0. -1.
         21    1    1    2  506  501 -0.84119705367E+02  0.69512164795E+02 -0.13891593749E+03  0.17665136165E+03  0.00000000000E+00 0. -1.
<scales pt_clust_3="35.85917" pt_clust_4="44.25639" pt_clust_5="35.85917" pt_clust_6="110.96537"></scales>
<clustering>
<clus scale="   35.859">  3  5 -1 -1</clus>
<clus scale="   44.256">  2  4  1 -1</clus>
<clus scale="  110.965">  1  6  2 -1</clus>
<clus scale="  110.965">  1  3  2 -1</clus>
</clustering>
</event>
<event>
 6    0  0.5563122E+002  0.2069236E+03  0.7546771E-02  0.1144026E+00
         21   -1    0    0  505  501  0.00000000000E+00  0.00000000000E+00  0.10806569928E+04  0.10806569928E+04  0.00000000000E+00 0.  1.
         21   -1    0    0  503  502 -0.00000000000E+00 -0.00000000000E+00 -0.31237458682E+03  0.31237458682E+03  0.00000000000E+00 0.  1.
         21    1    1    2  503  504  0.15167837176E+03 -0.10455847346E+03  0.12070051473E+03  0.22024399444E+03  0.00000000000E+00 0.  1.
         21    1    1    2  504  506 -0.33175099897E+02  0.84524357546E+02  0.52733051750E+03  0.53509104735E+03  0.00000000000E+00 0.  1.
         21    1    1    2  505  502 -0.44068687348E+02 -0.65262527293E+02 -0.24392950514E+03  0.25632567204E+03  0.00000000000E+00 0.  1.
         21    1    1    2  506  501 -0.74434584513E+02  0.85296643205E+02  0.36418087889E+03  0.38137086577E+03  0.00000000000E+00 0.  1.
<scales pt_clust_3="195.26018" pt_clust_4="61.33870" pt_clust_5="78.74799" pt_clust_6="61.33870"></scales>
<clustering>
<clus scale="   61.339">  4  6 -1 -1</clus>
<clus scale="   78.748">  2  5  1 -1</clus>
<clus scale="  195.260">  2  3  1 -1</clus>
<clus scale="  206.924">  1  3  2 -1</clus>
</clustering>
</event>
<event>
 6    0  0.5563122E+002  0.1445064E+03  0.7546771E-02  0.1207391E+00
         21   -1    0    0  503  501  0.00000000000E+00  0.00000000000E+00  0.62130547847E+02  0.62130547847E+02  0.00000000000E+00 0.  1.
         21   -1    0    0  506  502 -0.00000000000E+00 -0.00000000000E+00 -0.34586102947E+04  0.34586102947E+04  0.00000000000E+00 0. -1.
         21    1    1    2  503  505 -0.42160121958E+02 -0.40633271765E+02 -0.19148652824E+03  0.20023893017E+03  0.00000000000E+00 0.  1.
         21    1    1    2  504  501 -0.25821922603E+02  0.15837937672E+03 -0.71906572779E+02  0.17584468677E+03  0.00000000000E+00 0.  1.
         21    1    1    2  505  502  0.76715466897E+01  0.61165570988E+02 -0.13918498443E+04  0.13932142939E+04  0.00000000000E+00 0. -1.
         21    1    1    2  506  504  0.60310497871E+02 -0.17891167594E+03 -0.17412368016E+04  0.17514429317E+04  0.00000000000E+00 0. -1.
<scales pt_clust_3="58.55372" pt_clust_4="144.50637" pt_clust_5="61.10810" pt_clust_6="14000.00000"></scales>
<clustering>
<clus scale="   58.554">  1  3  2 -1</clus>
<clus scale="   61.108">  2  5  1 -1</clus>
<clus scale="  144.506">  1  4  2 -1</clus>
<clus scale="   58.554">  1  3  2 -1</clus>
</clustering>
</event>
<event>
 6    0  0.5563122E+002  0.8730999E+02  0.7546771E-02  0.1309500E+00
         21   -1    0    0  504  501  0.00000000000E+00  0.00000000000E+00  0.22335880147E+02  0.22335880147E+02  0.00000000000E+00 0.  1.
         21   -1    0    0  505  502 -0.00000000000E+00 -0.00000000000E+00 -0.11545883371E+04  0.11545883371E+04  0.00000000000E+00 0.  1.
         21    1    1    2  503  506  0.69893158867E+01  0.82925480459E+02 -0.35871213597E+03  0.36823889303E+03  0.00000000000E+00 0.  1.
         21    1    1    2  504  503 -0.32217612787E+02 -0.19716312914E+02 -0.50538970349E+02  0.63094334869E+02  0.00000000000E+00 0. -1.
         21    1    1    2  505  501  0.48786591047E+02  0.24279301370E+02 -0.83538232309E+02  0.99740925393E+02  0.00000000000E+00 0.  1.
         21    1    1    2  506  502 -0.23558294147E+02 -0.87488468914E+02 -0.63946311833E+03  0.64585006396E+03  0.00000000000E+00 0.  1.
<scales pt_clust_3="14000.00000" pt_clust_4="37.77178" pt_clust_5="35.55002" pt_clust_6="87.30999"></scales>
<clustering>
<clus scale="   37.772">  1  4  2 -1</clus>
<clus scale="   35.550">  1  5  2 -1</clus>
<clus scale="   87.310">  2  6  1 -1</clus>
<clus scale="   37.772">  1  3  2 -1</clus>
</clustering>
</event>
<event>
 6    0  0.5563122E+002  0.9131036E+02  0.7546771E-02  0.1299709E+00
         21   -1    0    0  502  501  0.00000000000E+00  0.00000000000E+00  0.43585844606E+03  0.43585844606E+03  0.00000000000E+00 0.  1.
         21   -1    0    0  504  502 -0.00000000000E+00 -0.00000000000E+00 -0.21243818862E+03  0.21243818862E+03  0.00000000000E+00 0.  1.
         21    1    1    2  503  505  0.61616573166E+02 -0.65767731532E+02  0.28276452300E+03  0.29677899533E+03  0.00000000000E+00 0.  1.
         21    1    1    2  504  506 -0.75905014361E+02  0.50758762473E+01 -0.15945388934E+03  0.17667166878E+03  0.00000000000E+00 0.  1.
         21    1    1    2  505  501 -0.15431352311E+02 -0.27835072872E+02  0.69723931780E+02  0.76644272968E+02  0.00000000000E+00 0.  1.
         21    1    1    2  506  503  0.29719793507E+02  0.88526928156E+02  0.30385691993E+02  0.98201697606E+02  0.00000000000E+00 0.  1.
<scales pt_clust_3="91.31036" pt_clust_4="76.39900" pt_clust_5="31.82637" pt_clust_6="14000.00000"></scales>
<clustering>
<clus scale="   31.826">  1  5  2 -1</clus>
<clus scale="   76.399">  2  4  1 -1</clus>
<clus scale="   91.310">  1  3  2 -1</clus>
<clus scale="   31.826">  1  3  2 -1</clus>
</clustering>
</event>
<event>
 6    0  0.5563122E+002  0.1267247E+03  0.7546771E-02  0.1232398E+00
         21   -1    0    0  506  501  0.00000000000E+00  0.00000000000E+00  0.24788800537E+04  0.24788800537E+04  0.00000000000E+00 0.  1.
         21   -1    0    0  504  502 -0.00000000000E+00 -0.00000000000E+00 -0.32137811741E+02  0.32137811741E+02  0.00000000000E+00 0. -1.
         21    1    1    2  503  505  0.70521506643E+02 -0.38815168926E+02  0.86275327404E+02  0.11799717097E+03  0.00000000000E+00 0. -1.
         21    1    1    2  504  503  0.46961668317E+02  0.94204840960E+01  0.33549066424E+02  0.58478061438E+02  0.00000000000E+00 0. -1.
         21    1    1    2  505  501 -0.89358749009E+02  0.58246621825E+02  0.79839253600E+03  0.80548637264E+03  0.00000000000E+00 0.  1.
         21    1    1    2  506  502 -0.28124425950E+02 -0.28851936995E+02  0.15285253122E+04  0.15290562604E+04  0.00000000000E+00 0.  1.
<scales pt_clust_3="35.51052" pt_clust_4="35.51052" pt_clust_5="118.06718" pt_clust_6="40.29166"></scales>
<clustering>
<clus scale="   35.511">  3  4 -1 -1</clus>
<clus scale="   40.292">  1  6  2 -1</clus>
<clus scale="  118.067">  1  5  2 -1</clus>
<clus scale="   40.292">  1  3  2 -1</clus>
</clustering>
</event>
<event>
 6    0  0.5563122E+002  0.8376173E+02  0.7546771E-02  0.1318703E+00
         21   -1    0    0  504  501  0.00000000000E+00  0.00000000000E+00  0.25347107853E+03  0.25347107853E+03  0.00000000000E+00 0.  1.
         21   -1    0    0  505  502 -0.00000000000E+00 -0.00000000000E+00 -0.26855869128E+03  0.26855869128E+03  0.00000000000E+00 0.  1.
         21    1    1    2  503  501  0.25724997459E+02 -0.54566481156E+02  0.71928777153E+02  0.93877714835E+02  0.00000000000E+00 0.  1.
         21    1    1    2  504  506 -0.32200219474E+02  0.42305633065E+02  0.18024058514E+02  0.56138110126E+02  0.00000000000E+00 0.  1.
         21    1    1    2  505  503  0.82186982546E+02  0.46558713284E+02  0.10791308207E+03  0.14341425022E+03  0.00000000000E+00 0.  1.
         21    1    1    2  506  502 -0.75711760531E+02 -0.34297865192E+02 -0.21295353049E+03  0.22859969464E+03  0.00000000000E+00 0.  1.
<scales pt_clust_3="40.62776" pt_clust_4="53.16597" pt_clust_5="83.76173" pt_clust_6="14000.00000"></scales>
<clustering>
<clus scale="   53.166">  1  4  2 -1</clus>
<clus scale="   40.628">  1  3  2 -1</clus>
<clus scale="   83.762">  1  5  2 -1</clus>
<clus scale="   53.166">  1  3  2 -1</clus>
</clustering>
</event>
<event>
 6    0  0.6426515E+002  0.1579129E+03  0.7546771E-02  0.1191073E+00
         21   -1    0    0  504  501  0.00000000000E+00  0.00000000000E+00  0.27932352941E+04  0.27932352941E+04  0.00000000000E+00 0. -1.
         21   -1    0    0  505  502 -0.00000000000E+00 -0.00000000000E+00 -0.44615261376E+03  0.44615261376E+03  0.00000000000E+00 0. -1.
         21    1    1    2  503  501  0.17046565595E+03 -0.74194973158E+02  0.80964596348E+03  0.83071657024E+03  0.00000000000E+00 0. -1.
         21    1    1    2  504  506 -0.12192761357E+03  0.47285077436E+02  0.18241615851E+04  0.18288432710E+04  0.00000000000E+00 0. -1.
         21    1    1    2  505  503  0.53011230046E+02 -0.16942572284E+01  0.13503265420E+03  0.14507542424E+03  0.00000000000E+00 0. -1.
         21    1    1    2  506  502 -0.10154927243E+03  0.28604152951E+02 -0.42175752243E+03  0.43475264234E+03  0.00000000000E+00 0. -1.
<scales pt_clust_3="33.99649" pt_clust_4="144.51732" pt_clust_5="33.99649" pt_clust_6="105.50096"></scales>
<clustering>
<clus scale="   33.996">  3  5 -1 -1</clus>
<clus scale="  105.501">  2  6  1 -1</clus>
<clus scale="  144.517">  1  4  2 -1</clus>
<clus scale="  144.517">  1  3  2 -1</clus>
</clustering>
</event>
<event>
 6    0  0.5563122E+002  0.1381459E+03  0.7546771E-02  0.1215846E+00
         21   -1    0    0  504  501  0.00000000000E+00  0.00000000000E+00  0.26459234118E+03  0.26459234118E+03  0.00000000000E+00 0.  1.
         21   -1    0    0  505  502 -0.00000000000E+00 -0.00000000000E+00 -0.72199416563E+03  0.72199416563E+03  0.00000000000E+00 0. -1.
         21    1    1    2  503  501 -0.19377460876E+02 -0.48453276113E+02  0.19131395889E+03  0.19830339589E+03  0.00000000000E+00 0.  1.
         21    1    1    2  504  502 -0.28426841412E+02  0.13402844010E+02 -0.23163112246E+01  0.31513280342E+02  0.00000000000E+00 0.  1.
         21    1    1    2  505  506  0.13161626106E+02 -0.13282460753E+03 -0.53719033011E+03  0.55352421404E+03  0.00000000000E+00 0. -1.
         21    1    1    2  506  503  0.34642676182E+02  0.16787503963E+03 -0.10920914200E+03  0.20324561654E+03  0.00000000000E+00 0.  1.
<scales pt_clust_3="56.29709" pt_clust_4="31.42804" pt_clust_5="14000.00000" pt_clust_6="138.14594"></scales>
<clustering>
<clus scale="   31.428">  1  4  2 -1</clus>
<clus scale="   56.297">  1  3  2 -1</clus>
<clus scale="  138.146">  1  6  2 -1</clus>
<clus scale="   31.428">  1  3  2 -1</clus>
</clustering>
</event>
<event>
 6    0  0.5563122E+002  0.1637836E+03  0.7546771E-02  0.1184490E+00
         21   -1    0    0  505  501  0.00000000000E+00  0.00000000000E+00  0.93441258680E+03  0.93441258680E+03  0.00000000000E+00 0.  1.
         21   -1    0    0  506  502 -0.00000000000E+00 -0.00000000000E+00 -0.65683447779E+02  0.65683447779E+02  0.00000000000E+00 0.  1.
         21    1    1    2  503  501 -0.82610413167E+02  0.84845989779E+02  0.14082722612E+03  0.18399899446E+03  0.00000000000E+00 0.  1.
         21    1    1    2  504  502  0.74340962032E+02 -0.95693640221E+02  0.18945548070E+03  0.22489382068E+03  0.00000000000E+00 0.  1.
         21    1    1    2  505  504  0.63578513116E+02 -0.58416944787E+02  0.47352697807E+03  0.48133415184E+03  0.00000000000E+00 0.  1.
         21    1    1    2  506  503 -0.55309061981E+02  0.69264595228E+02  0.64919454131E+02  0.10986906759E+03  0.00000000000E+00 0.  1.
<scales pt_clust_3="30.64780" pt_clust_4="159.90682" pt_clust_5="86.34099" pt_clust_6="30.64780"></scales>
<clustering>
<clus scale="   30.648">  3  6 -1 -1</clus>
<clus scale="   86.341">  1  5  2 -1</clus>
<clus scale="  159.907">  2  4  1 -1</clus>
<clus scale="   86.341">  1  3  2 -1</clus>
</clustering>
</event>
<event>
 6    0  0.5563122E+002  0.8891833E+02  0.7546771E-02  0.1305492E+00
         21   -1    0    0  503  501  0.00000000000E+00  0.00000000000E+00  0.29554001435E+03  0.29554001435E+03  0.00000000000E+00 0. -1.
         21   -1    0    0  506  502 -0.00000000000E+00 -0.00000000000E+00 -0.15642037661E+03  0.15642037661E+03  0.00000000000E+00 0.  1.
         21    1    1    2  503  504 -0.50955418791E+02  0.19433093266E+02  0.19866465009E+03  0.20601393888E+03  0.00000000000E+00 0. -1.
         21    1    1    2  504  505 -0.48163086549E+02 -0.50286320845E+02  0.19232800976E+02  0.72237785150E+02  0.00000000000E+00 0.  1.
         21    1    1    2  505  502  0.14190074616E+02 -0.39477707894E+02 -0.36519824381E+02  0.55619647707E+02  0.00000000000E+00 0.  1.
         21    1    1    2  506  501  0.84928430724E+02  0.70330935474E+02 -0.42257988949E+02  0.11808901922E+03  0.00000000000E+00 0.  1.
<scales pt_clust_3="53.63583" pt_clust_4="88.91833" pt_clust_5="41.95054" pt_clust_6="14000.00000"></scales>
<clustering>
<clus scale="   41.951">  2  5  1 -1</clus>
<clus scale="   53.636">  1  3  2 -1</clus>
<clus scale="   88.918">  1  4  2 -1</clus>
<clus scale="   53.636">  1  3  2 -1</clus>
</clustering>
</event>
<event>
 6    0  0.5563122E+002  0.2712637E+03  0.7546771E-02  0.1100559E+00
         21   -1    0    0  505  501  0.00000000000E+00  0.00000000000E+00  0.23880670455E+03  0.23880670455E+03  0.00000000000E+00 0. -1.
         21   -1    0    0  503  502 -0.00000000000E+00 -0.00000000000E+00 -0.10515822373E+04  0.10515822373E+04  0.00000000000E+00 0. -1.
         21    1    1    2  503  504  0.42519419017E+02  0.27757145434E+02 -0.43418908184E+03  0.43714816585E+03  0.00000000000E+00 0. -1.
         21    1    1    2  504  506 -0.15755712819E+03  0.30009395861E+03 -0.11642123832E+03  0.35837764630E+03  0.00000000000E+00 0. -1.
         21    1    1    2  505  502 -0.38290457333E+02 -0.15458598565E+03 -0.19928785909E+03  0.25510514864E+03  0.00000000000E+00 0. -1.
         21    1    1    2  506  501  0.15332816650E+03 -0.17326511839E+03 -0.62877353481E+02  0.23975798104E+03  0.00000000000E+00 0. -1.
<scales pt_clust_3="50.77756" pt_clust_4="14000.00000" pt_clust_5="146.10643" pt_clust_6="271.26373"></scales>
<clustering>
<clus scale="   50.778">  2  3  1 -1</clus>
<clus scale="  146.106">  2  5  1 -1</clus>
<clus scale="  271.264">  1  6  2 -1</clus>
<clus scale="  271.264">  1  3  2 -1</clus>
</clustering>
</event>
<event>
 6    0  0.5563122E+002  0.1633511E+03  0.7546771E-02  0.1184965E+00
         21   -1    0    0  506  501  0.00000000000E+00  0.00000000000E+00  0.12018600726E+03  0.12018600726E+03  0.00000000000E+00 0.  1.
         21   -1    0    0  505  502 -0.00000000000E+00 -0.00000000000E+00 -0.74655264368E+03  0.74655264368E+03  0.00000000000E+00 0.  1.
         21    1    1    2  503  502 -0.85768048532E+01  0.33095092550E+02 -0.53630904141E+03  0.53739765038E+03  0.00000000000E+00 0.  1.
         21    1    1    2  504  503  0.23555492331E+02  0.25071649807E+02 -0.14492730809E+02  0.37329453375E+02  0.00000000000E+00 0. -1.
         21    1    1    2  505  501 -0.14349476604E+03 -0.38437156316E+02 -0.63080767117E+02  0.16139190205E+03  0.00000000000E+00 0.  1.
         21    1    1    2  506  504  0.12851607857E+03 -0.19729586041E+02 -0.12484097080E+02  0.13061964514E+03  0.00000000000E+00 0.  1.
<scales pt_clust_3="34.18840" pt_clust_4="33.82712" pt_clust_5="149.52836" pt_clust_6="33.82712"></scales>
<clustering>
<clus scale="   33.827">  4  6 -1 -1</clus>
<clus scale="   34.188">  2  3  1 -1</clus>
<clus scale="  149.528">  2  5  1 -1</clus>
<clus scale="  163.351">  1  3  2 -1</clus>
</clustering>
</event>
<event>
 6    0  0.5563122E+002  0.9956014E+02  0.7546771E-02  0.1281224E+00
         21   -1    0    0  505  501  0.00000000000E+00  0.00000000000E+00  0.86628124637E+03  0.86628124637E+03  0.00000000000E+00 0. -1.
         21   -1    0    0  503  502 -0.00000000000E+00 -0.00000000000E+00 -0.88526662233E+02  0.88526662233E+02  0.00000000000E+00 0. -1.
         21    1    1    2  503  504  0.26884577248E+02 -0.21725399204E+02  0.36583977942E+02  0.50330516652E+02  0.00000000000E+00 0. -1.
         21    1    1    2  504  501 -0.28303430031E+02 -0.29452331882E+02  0.66714804152E+03  0.66839736184E+03  0.00000000000E+00 0. -1.
         21    1    1    2  505  506 -0.88676058188E+02  0.19323642979E+02  0.10197752570E+03  0.13651469599E+03  0.00000000000E+00 0. -1.
         21    1    1    2  506  502  0.90094910971E+02  0.31854088108E+02 -0.27954961031E+02  0.99565334120E+02  0.00000000000E+00 0. -1.
<scales pt_clust_3="34.56550" pt_clust_4="40.82575" pt_clust_5="14000.00000" pt_clust_6="99.56014"></scales>
<clustering>
<clus scale="   34.565">  2  3  1 -1</clus>
<clus scale="   40.826">  1  4  2 -1</clus>
<clus scale="   99.560">  2  6  1 -1</clus>
<clus scale="   40.826">  1  3  2 -1</clus>
</clustering>
</event>
<event>
 6    0  0.5563122E+002  0.9894513E+02  0.7546771E-02  0.1282530E+00
         21   -1    0    0  506  501  0.00000000000E+00  0.00000000000E+00  0.16306744698E+04  0.16306744698E+04  0.00000000000E+00 0.  1.
         21   -1    0    0  505  502 -0.00000000000E+00 -0.00000000000E+00 -0.44464385065E+02  0.44464385065E+02  0.00000000000E+00 0.  1.
         21    1    1    2  503  501 -0.33882658602E+02  0.91810771946E+02  0.79233201056E+03  0.79835284640E+03  0.00000000000E+00 0.  1.
         21    1    1    2  504  503  0.75998072422E+02 -0.74191999465E+02  0.68515717886E+03  0.69334011822E+03  0.00000000000E+00 0.  1.
         21    1    1    2  505  504  0.24109275931E+02 -0.37264743368E+02  0.10531409315E+03  0.11428462933E+03  0.00000000000E+00 0.  1.
         21    1    1    2  506  502 -0.66224689751E+02  0.19645970887E+02  0.34068021250E+01  0.69161260872E+02  0.00000000000E+00 0.  1.
<scales pt_clust_3="98.94513" pt_clust_4="14000.00000" pt_clust_5="44.38376" pt_clust_6="47.68407"></scales>
<clustering>
<clus scale="   44.384">  2  5  1 -1</clus>
<clus scale="   47.684">  2  6  1 -1</clus>
<clus scale="   98.945">  1  3  2 -1</clus>
<clus scale="   98.945">  1  3  2 -1</clus>
</clustering>
</event>
<event>
 6    0  0.5563122E+002  0.1224577E+03  0.7546771E-02  0.1239097E+00
         21   -1    0    0  503  501  0.00000000000E+00  0.00000000000E+00  0.39800590867E+02  0.39800590867E+02  0.00000000000E+00 0.  1.
         21   -1    0    0  505  502 -0.00000000000E+00 -0.00000000000E+00 -0.20277724452E+04  0.20277724452E+04  0.00000000000E+00 0.  1.
         21    1    1    2  503  504 -0.19684936153E+02  0.44429186552E+02  0.13234587705E+02  0.50364706301E+02  0.00000000000E+00 0.  1.
         21    1    1    2  504  506  0.11672070227E+02  0.47545118114E+02 -0.18234696373E+03  0.18880463623E+03  0.00000000000E+00 0.  1.
         21    1    1    2  505  501 -0.32014879620E+02 -0.12382892656E+03 -0.15026011475E+04  0.15080347357E+04  0.00000000000E+00 0.  1.
         21    1    1    2  506  502  0.40027745545E+02  0.31854621890E+02 -0.31625833084E+03  0.32036895788E+03  0.00000000000E+00 0.  1.
<scales pt_clust_3="48.59475" pt_clust_4="40.01731" pt_clust_5="115.42343" pt_clust_6="40.01731"></scales>
<clustering>
<clus scale="   40.017">  4  6 -1 -1</clus>
<clus scale="   48.595">  1  3  2 -1</clus>
<clus scale="  115.423">  2  5  1 -1</clus>
<clus scale="   48.595">  1  3  2 -1</clus>
</clustering>
</event>
<event>
 6    0  0.5563122E+002  0.1030534E+03  0.7546771E-02  0.1274003E+00
         21   -1    0    0  506  501  0.00000000000E+00  0.00000000000E+00  0.26342093130E+03  0.26342093130E+03  0.00000000000E+00 0. -1.
         21   -1    0    0  504  502 -0.00000000000E+00 -0.00000000000E+00 -0.10785895851E+03  0.10785895851E+03  0.00000000000E+00 0.  1.
         21    1    1    2  503  501  0.66331102946E+02 -0.37696313617E+02  0.12321427086E+03  0.14492268222E+03  0.00000000000E+00 0. -1.
         21    1    1    2  504  503  0.61244638852E+02 -0.30470385075E+02  0.48108322838E+01  0.68574734866E+02  0.00000000000E+00 0. -1.
         21    1    1    2  505  502 -0.85129614847E+02  0.14082998569E+02  0.10265746337E+02  0.86895153608E+02  0.00000000000E+00 0.  1.
         21    1    1    2  506  505 -0.42446126951E+02  0.54083700122E+02  0.17271123308E+02  0.70887319122E+02  0.00000000000E+00 0.  1.
<scales pt_clust_3="86.05375" pt_clust_4="68.40578" pt_clust_5="50.61073" pt_clust_6="50.61073"></scales>
<clustering>
<clus scale="   50.611">  5  6 -1 -1</clus>
<clus scale="   68.406">  2  4  1 -1</clus>
<clus scale="   86.054">  1  3  2 -1</clus>
<clus scale="   86.054">  1  3  2 -1</clus>
</clustering>
</event>
<event>
 6    0  0.5563122E+002  0.1211580E+03  0.7546771E-02  0.1241199E+00
         21   -1    0    0  503  501  0.00000000000E+00  0.00000000000E+00  0.11229764347E+04  0.11229764347E+04  0.00000000000E+00 0. -1.
         21   -1    0    0  506  502 -0.00000000000E+00 -0.00000000000E+00 -0.24280825708E+03  0.24280825708E+03  0.00000000000E+00 0. -1.
         21    1    1    2  503  505  0.45893808699E+02 -0.25804018965E+01  0.66244587104E+03  0.66403872795E+03  0.00000000000E+00 0. -1.
         21    1    1    2  504  501 -0.24732431113E+02 -0.24501294832E+02  0.76665819441E+02  0.84200085913E+02  0.00000000000E+00 0. -1.
         21    1    1    2  505  502 -0.13984340717E+03  0.45404419623E+02  0.34827857264E+03  0.37804193420E+03  0.00000000000E+00 0. -1.
         21    1    1    2  506  504  0.11868202959E+03 -0.18322722895E+02 -0.20722208552E+03  0.23950394370E+03  0.00000000000E+00 0. -1.
<scales pt_clust_3="35.20883" pt_clust_4="34.81389" pt_clust_5="14000.00000" pt_clust_6="121.15802"></scales>
<clustering>
<clus scale="   34.814">  1  4  2 -1</clus>
<clus scale="   35.209">  1  3  2 -1</clus>
<clus scale="  121.158">  2  6  1 -1</clus>
<clus scale="   34.814">  1  3  2 -1</clus>
</clustering>
</event>
<event>
 6    0  0.5563122E+002  0.1252840E+03  0.7546771E-02  0.1234626E+00
         21   -1    0    0  505  501  0.00000000000E+00  0.00000000000E+00  0.61256174755E+03  0.61256174755E+03  0.00000000000E+00 0.  1.
         21   -1    0    0  506  502 -0.00000000000E+00 -0.00000000000E+00 -0.15530205137E+04  0.15530205137E+04  0.00000000000E+00 0. -1.
         21    1    1    2  503  504 -0.31261874137E+02  0.10783706932E+03 -0.33256859472E+03  0.35100998345E+03  0.00000000000E+00 0. -1.
         21    1    1    2  504  502 -0.60074425737E+02  0.39989530135E+02 -0.11074041085E+04  0.11097531071E+04  0.00000000000E+00 0. -1.
         21    1    1    2  505  503  0.14099588947E+02 -0.12477743020E+03  0.57849732401E+03  0.59196905273E+03  0.00000000000E+00 0.  1.
         21    1    1    2  506  501  0.77236710927E+02 -0.23049169255E+02 -0.78983386933E+02  0.11285011799E+03  0.00000000000E+00 0. -1.
<scales pt_clust_3="14000.00000" pt_clust_4="72.16716" pt_clust_5="125.28396" pt_clust_6="65.86934"></scales>
<clustering>
<clus scale="   72.167">  2  4  1 -1</clus>
<clus scale="   65.869">  2  6  1 -1</clus>
<clus scale="  125.284">  1  5  2 -1</clus>
<clus scale="  125.284">  1  3  2 -1</clus>
</clustering>
</event>
<event>
 6    0  0.5563122E+002  0.7584834E+02  0.7546771E-02  0.1341264E+00
         21   -1    0    0  506  501  0.00000000000E+00  0.00000000000E+00  0.10502047941E+04  0.10502047941E+04  0.00000000000E+00 0. -1.
         21   -1    0    0  504  502 -0.00000000000E+00 -0.00000000000E+00 -0.37246015048E+02  0.37246015048E+02  0.00000000000E+00 0.  1.
         21    1    1    2  503  501 -0.69537074176E+02 -0.81831735362E+02  0.25523928902E+03  0.27690961027E+03  0.00000000000E+00 0.  1.
         21    1    1    2  504  503  0.46204743695E+00 -0.39434030302E+02  0.26301620305E+02  0.47402863462E+02  0.00000000000E+00 0.  1.
         21    1    1    2  505  502  0.29176556342E+02  0.63193577901E+02  0.72644133171E+02  0.10060750376E+03  0.00000000000E+00 0.  1.
         21    1    1    2  506  505  0.39898470396E+02  0.58072187763E+02  0.65877373657E+03  0.66253083168E+03  0.00000000000E+00 0. -1.
<scales pt_clust_3="75.84834" pt_clust_4="39.43674" pt_clust_5="51.72143" pt_clust_6="14000.00000"></scales>
<clustering>
<clus scale="   39.437">  2  4  1 -1</clus>
<clus scale="   51.721">  2  5  1 -1</clus>
<clus scale="   75.848">  2  3  1 -1</clus>
<clus scale="   75.848">  1  3  2 -1</clus>
</clustering>
</event>
<event>
 6    0  0.5563122E+002  0.1162933E+03  0.7546771E-02  0.1249340E+00
         21   -1    0    0  506  501  0.00000000000E+00  0.00000000000E+00  0.30405103546E+03  0.30405103546E+03  0.00000000000E+00 0. -1.
         21   -1    0    0  504  502 -0.00000000000E+00 -0.00000000000E+00 -0.15059869222E+03  0.15059869222E+03  0.00000000000E+00 0. -1.
         21    1    1    2  503  501  0.87498861326E+02  0.51970937569E+02  0.18127687753E+03  0.20789020038E+03  0.00000000000E+00 0. -1.
         21    1    1    2  504  503 -0.37219026916E+00  0.76652996270E+02  0.16661098377E+02  0.78443690389E+02  0.00000000000E+00 0. -1.
         21    1    1    2  505  502 -0.80500091733E+02 -0.80827995998E+02 -0.31550604856E+02  0.11835907389E+03  0.00000000000E+00 0. -1.
         21    1    1    2  506  505 -0.66265793245E+01 -0.47795937841E+02 -0.12935027814E+02  0.49956763027E+02  0.00000000000E+00 0. -1.
<scales pt_clust_3="106.33934" pt_clust_4="76.65390" pt_clust_5="30.61661" pt_clust_6="30.61661"></scales>
<clustering>
<clus scale="   30.617">  5  6 -1 -1</clus>
<clus scale="   76.654">  2  4  1 -1</clus>
<clus scale="  106.339">  1  3  2 -1</clus>
<clus scale="  106.339">  1  3  2 -1</clus>
</clustering>
</event>
<event>
 6    0  0.5563122E+002  0.1130586E+03  0.7546771E-02  0.1255008E+00
         21   -1    0    0  506  501  0.00000000000E+00  0.00000000000E+00  0.23186598109E+03  0.23186598109E+03  0.00000000000E+00 0.  1.
         21   -1    0    0  503  502 -0.00000000000E+00 -0.00000000000E+00 -0.11215889141E+03  0.11215889141E+03  0.00000000000E+00 0.  1.
         21    1    1    2  503  504 -0.73086208813E+02 -0.35925424276E+02  0.13148000651E+02  0.82493029700E+02  0.00000000000E+00 0.  1.
         21    1    1    2  504  501 -0.69017579383E+02  0.51802829827E+02  0.49080527562E+02  0.99276672123E+02  0.00000000000E+00 0.  1.
         21    1    1    2  505  502  0.58123340002E+02 -0.39654970030E+01 -0.25939400494E+01  0.58316175667E+02  0.00000000000E+00 0. -1.
         21    1    1    2  506  505  0.83980448194E+02 -0.11911908548E+02  0.60072501526E+02  0.10393899501E+03  0.00000000000E+00 0.  1.
<scales pt_clust_3="81.43850" pt_clust_4="101.01911" pt_clust_5="42.07427" pt_clust_6="42.07427"></scales>
<clustering>
<clus scale="   42.074">  5  6 -1 -1</clus>
<clus scale="   81.439">  2  3  1 -1</clus>
<clus scale="  101.019">  1  4  2 -1</clus>
<clus scale="  101.019">  1  3  2 -1</clus>
</clustering>
</event>
<event>
 6    0  0.5563122E+002  0.1475013E+03  0.7546771E-02  0.1203577E+00
         21   -1    0    0  505  501  0.00000000000E+00  0.00000000000E+00  0.34360544651E+03  0.34360544651E+03  0.00000000000E+00 0.  1.
         21   -1    0    0  504  502 -0.00000000000E+00 -0.00000000000E+00 -0.23563309685E+03  0.23563309685E+03  0.00000000000E+00 0.  1.
         21    1    1    2  503  506  0.13904696739E+02 -0.13122582901E+03 -0.52728308703E+02  0.14210500810E+03  0.00000000000E+00 0.  1.
         21    1    1    2  504  501 -0.52078265915E+02  0.18609562472E+03  0.11142079701E+03  0.22306573320E+03  0.00000000000E+00 0.  1.
         21    1    1    2  505  503  0.75007530374E+01 -0.56341078957E+02  0.12229505630E+03  0.13485792253E+03  0.00000000000E+00 0.  1.
         21    1    1    2  506  502  0.30672816139E+02  0.14712832443E+01 -0.73015194935E+02  0.79209879533E+02  0.00000000000E+00 0.  1.
<scales pt_clust_3="147.50127" pt_clust_4="14000.00000" pt_clust_5="56.95289" pt_clust_6="30.70808"></scales>
<clustering>
<clus scale="   30.708">  2  6  1 -1</clus>
<clus scale="   56.953">  1  5  2 -1</clus>
<clus scale="  147.501">  2  3  1 -1</clus>
<clus scale="   56.953">  1  3  2 -1</clus>
</clustering>
</event>
<event>
 6    0  0.5563122E+002  0.7306968E+02  0.7546771E-02  0.1349955E+00
         21   -1    0    0  504  501  0.00000000000E+00  0.00000000000E+00  0.53678377302E+03  0.53678377302E+03  0.00000000000E+00 0.  1.
         21   -1    0    0  506  502 -0.00000000000E+00 -0.00000000000E+00 -0.39828359134E+02  0.39828359134E+02  0.00000000000E+00 0.  1.
         21    1    1    2  503  505 -0.60764908557E+02 -0.54222092299E+00  0.16115120879E+03  0.17222769873E+03  0.00000000000E+00 0.  1.
         21    1    1    2  504  503  0.15263358283E+02  0.39359673219E+02  0.12755796052E+03  0.13436214971E+03  0.00000000000E+00 0.  1.
         21    1    1    2  505  502 -0.48731744222E+02  0.12645405905E+02  0.21784886114E+02  0.54856817702E+02  0.00000000000E+00 0.  1.
         21    1    1    2  506  501  0.94233294496E+02 -0.51462858200E+02  0.18646135846E+03  0.21516546601E+03  0.00000000000E+00 0.  1.
<scales pt_clust_3="14000.00000" pt_clust_4="42.21557" pt_clust_5="50.04103" pt_clust_6="73.06968"></scales>
<clustering>
<clus scale="   42.216">  1  4  2 -1</clus>
<clus scale="   50.041">  2  5  1 -1</clus>
<clus scale="   73.070">  2  6  1 -1</clus>
<clus scale="   42.216">  1  3  2 -1</clus>
</clustering>
</event>
<event>
 6    0  0.5563122E+002  0.1514489E+03  0.7546771E-02  0.1198704E+00
         21   -1    0    0  506  501  0.00000000000E+00  0.00000000000E+00  0.13882606862E+03  0.13882606862E+03  0.00000000000E+00 0. -1.
         21   -1    0    0  504  502 -0.00000000000E+00 -0.00000000000E+00 -0.56761844858E+03  0.56761844858E+03  0.00000000000E+00 0. -1.
         21    1    1    2  503  502 -0.16648506201E+02  0.42241233670E+02 -0.13331943575E+02  0.47320558959E+02  0.00000000000E+00 0. -1.
         21    1    1    2  504  505  0.45943415518E+02 -0.75077600370E+02 -0.37134150236E+03  0.38163065244E+03  0.00000000000E+00 0. -1.
         21    1    1    2  505  501 -0.31597907057E+02 -0.86649899705E+02 -0.10796718025E+03  0.14199839739E+03  0.00000000000E+00 0. -1.
         21    1    1    2  506  503  0.23029977406E+01  0.11948626640E+03  0.63848246231E+02  0.13549490841E+03  0.00000000000E+00 0. -1.
<scales pt_clust_3="41.38464" pt_clust_4="88.01956" pt_clust_5="135.75257" pt_clust_6="41.38464"></scales>
<clustering>
<clus scale="   41.385">  3  6 -1 -1</clus>
<clus scale="   88.020">  2  4  1 -1</clus>
<clus scale="  135.753">  2  5  1 -1</clus>
<clus scale="  151.449">  1  3  2 -1</clus>
</clustering>
</event>
<event>
 6    0  0.5563122E+002  0.2131934E+03  0.7546771E-02  0.1139062E+00
         21   -1    0    0  505  501  0.00000000000E+00  0.00000000000E+00  0.21466706064E+04  0.21466706064E+04  0.00000000000E+00 0.  1.
         21   -1    0    0  506  502 -0.00000000000E+00 -0.00000000000E+00 -0.27272454825E+03  0.27272454825E+03  0.00000000000E+00 0. -1.
         21    1    1    2  503  501 -0.84635783205E+02 -0.12785311097E+02  0.90455172142E+03  0.90859259116E+03  0.00000000000E+00 0.  1.
         21    1    1    2  504  502  0.71641998601E+02  0.24885525210E+02 -0.22522214978E+03  0.23764865259E+03  0.00000000000E+00 0. -1.
         21    1    1    2  505  504  0.12018117979E+03  0.72385720930E+02  0.10554684743E+03  0.17556578702E+03  0.00000000000E+00 0. -1.
         21    1    1    2  506  503 -0.10718739519E+03 -0.84485935043E+02  0.10890696390E+04  0.10975881238E+04  0.00000000000E+00 0.  1.
<scales pt_clust_3="49.94299" pt_clust_4="75.84105" pt_clust_5="203.65248" pt_clust_6="49.94299"></scales>
<clustering>
<clus scale="   49.943">  3  6 -1 -1</clus>
<clus scale="   75.841">  2  4  1 -1</clus>
<clus scale="  203.652">  2  5  1 -1</clus>
<clus scale="  213.193">  1  3  2 -1</clus>
</clustering>
</event>
<event>
 6    0  0.5563122E+002  0.1513003E+03  0.7546771E-02  0.1198884E+00
         21   -1    0    0  504  501  0.00000000000E+00  0.00000000000E+00  0.24627397268E+03  0.24627397268E+03  0.00000000000E+00 0.  1.
         21   -1    0    0  505  502 -0.00000000000E+00 -0.00000000000E+00 -0.21563889414E+03  0.21563889414E+03  0.00000000000E+00 0.  1.
         21    1    1    2  503  506  0.29890710708E+02  0.71985223048E+02  0.66012190101E+02  0.10214174546E+03  0.00000000000E+00 0.  1.
         21    1    1    2  504  502  0.20207495162E+02 -0.11809437519E+03 -0.24943762605E+01  0.11983674823E+03  0.00000000000E+00 0.  1.
         21    1    1    2  505  503 -0.41889383609E+02 -0.45740971428E+02 -0.10561956358E+03  0.12248448529E+03  0.00000000000E+00 0.  1.
         21    1    1    2  506  501 -0.82088222620E+01  0.91850123573E+02  0.72736828280E+02  0.11744988783E+03  0.00000000000E+00 0.  1.
<scales pt_clust_3="37.42478" pt_clust_4="145.72135" pt_clust_5="62.02384" pt_clust_6="37.42478"></scales>
<clustering>
<clus scale="   37.425">  3  6 -1 -1</clus>
<clus scale="   62.024">  2  5  1 -1</clus>
<clus scale="  145.721">  2  4  1 -1</clus>
<clus scale="  151.300">  1  3  2 -1</clus>
</clustering>
</event>
<event>
 6    0  0.5563122E+002  0.9237728E+02  0.7546771E-02  0.1297195E+00
         21   -1    0    0  504  501  0.00000000000E+00  0.00000000000E+00  0.31306352908E+03  0.31306352908E+03  0.00000000000E+00 0. -1.
         21   -1    0    0  506  502 -0.00000000000E+00 -0.00000000000E+00 -0.14197496637E+03  0.14197496637E+03  0.00000000000E+00 0. -1.
         21    1    1    2  503  505  0.44644824117E+02 -0.35831906909E+02  0.17359052544E+03  0.18278609465E+03  0.00000000000E+00 0. -1.
         21    1    1    2  504  503 -0.84396338723E+01 -0.47402602054E+02  0.27252386458E+02  0.55325642057E+02  0.00000000000E+00 0. -1.
         21    1    1    2  505  502 -0.73035565885E+02  0.12676915525E+03  0.11182852390E+02  0.14672991786E+03  0.00000000000E+00 0. -1.
         21    1    1    2  506  501  0.36830375640E+02 -0.43534646287E+02 -0.40937201582E+02  0.70196840887E+02  0.00000000000E+00 0. -1.
<scales pt_clust_3="14000.00000" pt_clust_4="48.14804" pt_clust_5="92.37728" pt_clust_6="58.71261"></scales>
<clustering>
<clus scale="   48.148">  1  4  2 -1</clus>
<clus scale="   58.713">  2  6  1 -1</clus>
<clus scale="   92.377">  2  5  1 -1</clus>
<clus scale="   48.148">  1  3  2 -1</clus>
</clustering>
</event>
<event>
 6    0  0.5563122E+002  0.1396720E+03  0.7546771E-02  0.1213771E+00
         21   -1    0    0  505  501  0.00000000000E+00  0.00000000000E+00  0.16664485639E+02  0.16664485639E+02  0.00000000000E+00 0. -1.
         21   -1    0    0  506  502 -0.00000000000E+00 -0.00000000000E+00 -0.20416111035E+04  0.20416111035E+04  0.00000000000E+00 0. -1.
         21    1    1    2  503  501 -0.32846171833E+02 -0.21972077307E+02 -0.12884810777E+03  0.13477194835E+03  0.00000000000E+00 0. -1.
         21    1    1    2  504  503 -0.10813109062E+03  0.27971428758E+02 -0.43109464304E+03  0.44532833376E+03  0.00000000000E+00 0. -1.
         21    1    1    2  505  502  0.11219829602E+03 -0.35321897158E+02 -0.55906763325E+03  0.57130789649E+03  0.00000000000E+00 0. -1.
         21    1    1    2  506  504  0.28778966431E+02  0.29322545707E+02 -0.90593623385E+03  0.90686741059E+03  0.00000000000E+00 0. -1.
<scales pt_clust_3="32.95701" pt_clust_4="32.95701" pt_clust_5="128.21233" pt_clust_6="41.08577"></scales>
<clustering>
<clus scale="   32.957">  3  4 -1 -1</clus>
<clus scale="   41.086">  2  6  1 -1</clus>
<clus scale="  128.212">  2  5  1 -1</clus>
<clus scale="  139.672">  1  3  2 -1</clus>
</clustering>
</event>
<event>
 6    0  0.5563122E+002  0.8544859E+02  0.7546771E-02  0.1314264E+00
         21   -1    0    0  503  501  0.00000000000E+00  0.00000000000E+00  0.42881536079E+03  0.42881536079E+03  0.00000000000E+00 0. -1.
         21   -1    0    0  506  502 -0.00000000000E+00 -0.00000000000E+00 -0.33756401777E+03  0.33756401777E+03  0.00000000000E+00 0.  1.
         21    1    1    2  503  505 -0.62957756336E+02  0.10090369556E+03  0.19497715946E+03  0.22838854519E+03  0.00000000000E+00 0. -1.
         21    1    1    2  504  502 -0.26610318174E+01 -0.35306814418E+02 -0.30394849501E+03  0.30600382326E+03  0.00000000000E+00 0.  1.
         21    1    1    2  505  504  0.31206138687E+02 -0.53034139980E+02  0.56057029387E+02  0.83239615802E+02  0.00000000000E+00 0. -1.
         21    1    1    2  506  501  0.34412649466E+02 -0.12562741164E+02  0.14416564918E+03  0.14874739430E+03  0.00000000000E+00 0.  1.
<scales pt_clust_3="85.44859" pt_clust_4="35.40695" pt_clust_5="14000.00000" pt_clust_6="37.38630"></scales>
<clustering>
<clus scale="   35.407">  2  4  1 -1</clus>
<clus scale="   37.386">  1  6  2 -1</clus>
<clus scale="   85.449">  1  3  2 -1</clus>
<clus scale="   37.386">  1  3  2 -1</clus>
</clustering>
</event>
<event>
 6    0  0.5563122E+002  0.1042255E+03  0.7546771E-02  0.1271653E+00
         21   -1    0    0  505  501  0.00000000000E+00  0.00000000000E+00  0.17918843048E+04  0.17918843048E+04  0.00000000000E+00 0.  1.
         21   -1    0    0  504  502 -0.00000000000E+00 -0.00000000000E+00 -0.39183208421E+03  0.39183208421E+03  0.00000000000E+00 0. -1.
         21    1    1    2  503  501  0.15903637607E+02 -0.30297313946E+02  0.14960588811E+04  0.14964501424E+04  0.00000000000E+00 0.  1.
         21    1    1    2  504  506  0.69928039104E+02  0.26215054450E+01 -0.31043655893E+03  0.31822580043E+03  0.00000000000E+00 0. -1.
         21    1    1    2  505  502  0.47133602837E+02  0.97897747660E+02  0.18687684957E+03  0.21616776452E+03  0.00000000000E+00 0.  1.
         21    1    1    2  506  503 -0.13296527955E+03 -0.70221939159E+02  0.27553048863E+02  0.15287268169E+03  0.00000000000E+00 0.  1.
<scales pt_clust_3="34.21773" pt_clust_4="70.17275" pt_clust_5="14000.00000" pt_clust_6="104.22552"></scales>
<clustering>
<clus scale="   34.218">  1  3  2 -1</clus>
<clus scale="   70.173">  2  4  1 -1</clus>
<clus scale="  104.226">  2  6  1 -1</clus>
<clus scale="   34.218">  1  3  2 -1</clus>
</clustering>
</event>
<event>
 6    0  0.5563122E+002  0.1118649E+03  0.7546771E-02  0.1257155E+00
         21   -1    0    0  504  501  0.00000000000E+00  0.00000000000E+00  0.37358111442E+03  0.37358111442E+03  0.00000000000E+00 0. -1.
         21   -1    0    0  505  502 -0.00000000000E+00 -0.00000000000E+00 -0.47413789131E+03  0.47413789131E+03  0.00000000000E+00 0.  1.
         21    1    1    2  503  506  0.20110616797E+03 -0.25458486971E+02 -0.18184384701E+03  0.27232151963E+03  0.00000000000E+00 0.  1.
         21    1    1    2  504  502 -0.85059477054E+02  0.25145593988E+02 -0.19856681372E+03  0.21747688393E+03  0.00000000000E+00 0.  1.
         21    1    1    2  505  503 -0.11307827091E+02  0.29283473211E+02 -0.21182896448E+02  0.37869563752E+02  0.00000000000E+00 0. -1.
         21    1    1    2  506  501 -0.10473886383E+03 -0.28970580228E+02  0.30103678029E+03  0.32005103843E+03  0.00000000000E+00 0. -1.
<scales pt_clust_3="111.86493" pt_clust_4="98.34732" pt_clust_5="31.39090" pt_clust_6="14000.00000"></scales>
<clustering>
<clus scale="   31.391">  2  5  1 -1</clus>
<clus scale="   98.347">  2  4  1 -1</clus>
<clus scale="  111.865">  2  3  1 -1</clus>
<clus scale="  111.865">  1  3  2 -1</clus>
</clustering>
</event>
<event>
 6    0  0.5563122E+002  0.9093438E+02  0.7546771E-02  0.1300605E+00
         21   -1    0    0  502  501  0.00000000000E+00  0.00000000000E+00  0.13296901630E+04  0.13296901630E+04  0.00000000000E+00 0. -1.
         21   -1    0    0  505  502 -0.00000000000E+00 -0.00000000000E+00 -0.27425130812E+02  0.27425130812E+02  0.00000000000E+00 0.  1.
         21    1    1    2  503  504 -0.19871811587E+02 -0.45682623710E+02  0.10636459504E+03  0.11745304629E+03  0.00000000000E+00 0.  1.
         21    1    1    2  504  506  0.67510970601E+02 -0.13276619417E+02  0.13629315574E+03  0.15267555167E+03  0.00000000000E+00 0.  1.
         21    1    1    2  505  503 -0.91414765339E+00 -0.35795252253E+02  0.18075949546E+02  0.40110792834E+02  0.00000000000E+00 0.  1.
         21    1    1    2  506  501 -0.46725011361E+02  0.94754495380E+02  0.10415313319E+04  0.10468759030E+04  0.00000000000E+00 0. -1.
<scales pt_clust_3="61.20094" pt_clust_4="90.93438" pt_clust_5="35.80692" pt_clust_6="14000.00000"></scales>
<clustering>
<clus scale="   35.807">  2  5  1 -1</clus>
<clus scale="   61.201">  2  3  1 -1</clus>
<clus scale="   90.934">  2  4  1 -1</clus>
<clus scale="   90.934">  1  3  2 -1</clus>
</clustering>
</event>
<event>
 6    0  0.5563122E+002  0.1044515E+03  0.7546771E-02  0.1271204E+00
         21   -1    0    0  505  501  0.00000000000E+00  0.00000000000E+00  0.14841103176E+03  0.14841103176E+03  0.00000000000E+00 0.  1.
         21   -1    0    0  503  502 -0.00000000000E+00 -0.00000000000E+00 -0.61261513922E+03  0.61261513922E+03  0.00000000000E+00 0.  1.
         21    1    1    2  503  504  0.84622962934E+02 -0.77135997967E+02 -0.51180890581E+03  0.52446102248E+03  0.00000000000E+00 0.  1.
         21    1    1    2  504  501 -0.84559387729E+02 -0.74338072661E+01 -0.38538717436E+02  0.93224376025E+02  0.00000000000E+00 0. -1.
         21    1    1    2  505  506  0.35829059078E+02  0.40580304298E+02  0.60075850189E+02  0.80867733660E+02  0.00000000000E+00 0.  1.
         21    1    1    2  506  502 -0.35892634283E+02  0.43989500935E+02  0.26067665593E+02  0.62473038806E+02  0.00000000000E+00 0.  1.
<scales pt_clust_3="104.45150" pt_clust_4="14000.00000" pt_clust_5="54.13393" pt_clust_6="68.81741"></scales>
<clustering>
<clus scale="   54.134">  1  5  2 -1</clus>
<clus scale="   68.817">  1  6  2 -1</clus>
<clus scale="  104.451">  2  3  1 -1</clus>
<clus scale="   54.134">  1  3  2 -1</clus>
</clustering>
</event>
<event>
 6    0  0.5563122E+002  0.7262358E+02  0.7546771E-02  0.1351392E+00
         21   -1    0    0  505  501  0.00000000000E+00  0.00000000000E+00  0.21080543107E+03  0.21080543107E+03  0.00000000000E+00 0. -1.
         21   -1    0    0  504  502 -0.00000000000E+00 -0.00000000000E+00 -0.28930604773E+03  0.28930604773E+03  0.00000000000E+00 0. -1.
         21    1    1    2  503  501 -0.24669452127E+02 -0.57556600731E+02  0.33617559374E+01  0.62710808948E+02  0.00000000000E+00 0. -1.
         21    1    1    2  504  503 -0.51464862732E+02  0.11044383035E+03 -0.40706610135E+02  0.12846594828E+03  0.00000000000E+00 0.  1.
         21    1    1    2  505  506  0.62917338796E+02  0.76942121536E+01  0.12030228205E+03  0.13597952599E+03  0.00000000000E+00 0. -1.
         21    1    1    2  506  502  0.13216976063E+02 -0.60581441773E+02 -0.16145804450E+03  0.17295519558E+03  0.00000000000E+00 0. -1.
<scales pt_clust_3="72.62358" pt_clust_4="14000.00000" pt_clust_5="63.87927" pt_clust_6="62.00645"></scales>
<clustering>
<clus scale="   62.006">  2  6  1 -1</clus>
<clus scale="   63.879">  1  5  2 -1</clus>
<clus scale="   72.624">  1  3  2 -1</clus>
<clus scale="   63.879">  1  3  2 -1</clus>
</clustering>
</event>
<event>
 6    0  0.5563122E+002  0.9634378E+02  0.7546771E-02  0.1288178E+00
         21   -1    0    0  504  501  0.00000000000E+00  0.00000000000E+00  0.56886806841E+03  0.56886806841E+03  0.00000000000E+00 0.  1.
         21   -1    0    0  505  502 -0.00000000000E+00 -0.00000000000E+00 -0.43971022363E+03  0.43971022363E+03  0.00000000000E+00 0.  1.
         21    1    1    2  503  502 -0.75711136899E+02 -0.47154787798E+02 -0.67969117281E+02  0.11214076496E+03  0.00000000000E+00 0.  1.
         21    1    1    2  504  503  0.76860276717E+02  0.20025799887E+02  0.75171928105E+02  0.10935882942E+03  0.00000000000E+00 0.  1.
         21    1    1    2  505  506 -0.35356450598E+02  0.42197512708E+02 -0.32950583410E+03  0.33407305097E+03  0.00000000000E+00 0.  1.
         21    1    1    2  506  501  0.34207310780E+02 -0.15068524797E+02  0.45146086805E+03  0.45300564669E+03  0.00000000000E+00 0.  1.
<scales pt_clust_3="14000.00000" pt_clust_4="96.34378" pt_clust_5="54.39656" pt_clust_6="37.37915"></scales>
<clustering>
<clus scale="   37.379">  1  6  2 -1</clus>
<clus scale="   54.397">  2  5  1 -1</clus>
<clus scale="   96.344">  1  4  2 -1</clus>
<clus scale="   37.379">  1  3  2 -1</clus>
</clustering>
</event>
<event>
 6    0  0.5563122E+002  0.9527323E+02  0.7546771E-02  0.1290562E+00
         21   -1    0    0  505  501  0.00000000000E+00  0.00000000000E+00  0.62343970519E+03  0.62343970519E+03  0.00000000000E+00 0.  1.
         21   -1    0    0  506  502 -0.00000000000E+00 -0.00000000000E+00 -0.26258567580E+03  0.26258567580E+03  0.00000000000E+00 0. -1.
         21    1    1    2  503  504 -0.62386098215E+02  0.85498631956E+02 -0.14982203571E+03  0.18343577541E+03  0.00000000000E+00 0. -1.
         21    1    1    2  504  502  0.32146906816E+02  0.33046268664E+02 -0.37702818134E+02  0.59556544440E+02  0.00000000000E+00 0. -1.
         21    1    1    2  505  503  0.66381679413E+02 -0.68026845401E+02  0.56953631397E+03  0.57741301681E+03  0.00000000000E+00 0.  1.
         21    1    1    2  506  501 -0.36142488014E+02 -0.50518055220E+02 -0.21157430729E+02  0.65620044332E+02  0.00000000000E+00 0.  1.
<scales pt_clust_3="95.27323" pt_clust_4="46.10292" pt_clust_5="14000.00000" pt_clust_6="52.89072"></scales>
<clustering>
<clus scale="   46.103">  2  4  1 -1</clus>
<clus scale="   52.891">  2  6  1 -1</clus>
<clus scale="   95.273">  2  3  1 -1</clus>
<clus scale="   95.273">  1  3  2 -1</clus>
</clustering>
</event>
<event>
 6    0  0.5563122E+002  0.9248461E+02  0.7546771E-02  0.1296944E+00
         21   -1    0    0  504  501  0.00000000000E+00  0.00000000000E+00  0.50265997418E+03  0.50265997418E+03  0.00000000000E+00 0. -1.
         21   -1    0    0  503  502 -0.00000000000E+00 -0.00000000000E+00 -0.40590649325E+03  0.40590649325E+03  0.00000000000E+00 0.  1.
         21    1    1    2  503  506  0.63309684762E+02  0.24367682446E+02 -0.17354500105E+03  0.18633241136E+03  0.00000000000E+00 0.  1.
         21    1    1    2  504  505  0.39922201334E+02  0.24899752051E+01  0.13611094820E+02  0.42252148325E+02  0.00000000000E+00 0.  1.
         21    1    1    2  505  502 -0.13477546336E+03 -0.78149518637E+02 -0.18063193076E+03  0.23853651124E+03  0.00000000000E+00 0.  1.
         21    1    1    2  506  501  0.31543577264E+02  0.51291860986E+02  0.43731931792E+03  0.44144539650E+03  0.00000000000E+00 0. -1.
<scales pt_clust_3="68.35134" pt_clust_4="39.99978" pt_clust_5="92.48461" pt_clust_6="14000.00000"></scales>
<clustering>
<clus scale="   40.000">  1  4  2 -1</clus>
<clus scale="   68.351">  2  3  1 -1</clus>
<clus scale="   92.485">  2  5  1 -1</clus>
<clus scale="   40.000">  1  3  2 -1</clus>
</clustering>
</event>
<event>
 6    0  0.5563122E+002  0.7069721E+02  0.7546771E-02  0.1357738E+00
         21   -1    0    0  506  501  0.00000000000E+00  0.00000000000E+00  0.69556072561E+03  0.69556072561E+03  0.00000000000E+00 0. -1.
         21   -1    0    0  503  502 -0.00000000000E+00 -0.00000000000E+00 -0.60878349764E+03  0.60878349764E+03  0.00000000000E+00 0.  1.
         21    1    1    2  503  504  0.39516050027E+01 -0.82865899296E+02 -0.87704853945E+01  0.83422382262E+02  0.00000000000E+00 0. -1.
         21    1    1    2  504  501 -0.42965559312E+02  0.55570512720E+02  0.36911984612E+03  0.37574403783E+03  0.00000000000E+00 0. -1.
         21    1    1    2  505  502  0.20485101484E+02  0.67186031190E+02 -0.55545783056E+03  0.55988124071E+03  0.00000000000E+00 0.  1.
         21    1    1    2  506  505  0.18528852826E+02 -0.39890644614E+02  0.28188569781E+03  0.28529656245E+03  0.00000000000E+00 0. -1.
<scales pt_clust_3="14000.00000" pt_clust_4="32.67716" pt_clust_5="70.69721" pt_clust_6="43.98388"></scales>
<clustering>
<clus scale="   43.984">  1  6  2 -1</clus>
<clus scale="   32.677">  1  4  2 -1</clus>
<clus scale="   70.697">  2  5  1 -1</clus>
<clus scale="   43.984">  1  3  2 -1</clus>
</clustering>
</event>
<event>
 6    0  0.5563122E+002  0.9018543E+02  0.7546771E-02  0.1302403E+00
         21   -1    0    0  503  501  0.00000000000E+00  0.00000000000E+00  0.67690575867E+03  0.67690575867E+03  0.00000000000E+00 0. -1.
         21   -1    0    0  505  502 -0.00000000000E+00 -0.00000000000E+00 -0.75951430141E+03  0.75951430141E+03  0.00000000000E+00 0.  1.
         21    1    1    2  503  506  0.12398295297E+02  0.36037454123E+02  0.26001730188E+03  0.26279538258E+03  0.00000000000E+00 0. -1.
         21    1    1    2  504  502  0.89502763014E+02 -0.68190386389E+01 -0.72344897877E+03  0.72899634345E+03  0.00000000000E+00 0.  1.
         21    1    1    2  505  501 -0.14289495767E+03  0.20116402935E+02  0.33796698778E+03  0.36748513361E+03  0.00000000000E+00 0. -1.
         21    1    1    2  506  504  0.40993899363E+02 -0.49334818419E+02  0.42856146369E+02  0.77143200446E+02  0.00000000000E+00 0. -1.
<scales pt_clust_3="38.11057" pt_clust_4="90.18543" pt_clust_5="14000.00000" pt_clust_6="61.46566"></scales>
<clustering>
<clus scale="   38.111">  1  3  2 -1</clus>
<clus scale="   61.466">  1  6  2 -1</clus>
<clus scale="   90.185">  2  4  1 -1</clus>
<clus scale="   38.111">  1  3  2 -1</clus>
</clustering>
</event>
<event>
 6    0  0.5563122E+002  0.9768416E+02  0.7546771E-02  0.1285243E+00
         21   -1    0    0  503  501  0.00000000000E+00  0.00000000000E+00  0.20632277217E+04  0.20632277217E+04  0.00000000000E+00 0. -1.
         21   -1    0    0  505  502 -0.00000000000E+00 -0.00000000000E+00 -0.26697050670E+02  0.26697050670E+02  0.00000000000E+00 0. -1.
         21    1    1    2  503  502  0.13581182021E+02  0.49192856529E+02  0.28897197071E+03  0.29344366664E+03  0.00000000000E+00 0. -1.
         21    1    1    2  504  501 -0.34808199103E+02 -0.46946813422E+02  0.74060960714E+03  0.74291197608E+03  0.00000000000E+00 0. -1.
         21    1    1    2  505  506 -0.30548958844E+02  0.91711625801E+02  0.95692740233E+02  0.13601971080E+03  0.00000000000E+00 0. -1.
         21    1    1    2  506  504  0.51775975926E+02 -0.93957668908E+02  0.91125635290E+03  0.91754941880E+03  0.00000000000E+00 0. -1.
<scales pt_clust_3="51.03318" pt_clust_4="39.27771" pt_clust_5="97.68416" pt_clust_6="14000.00000"></scales>
<clustering>
<clus scale="   51.033">  1  3  2 -1</clus>
<clus scale="   39.278">  1  4  2 -1</clus>
<clus scale="   97.684">  2  5  1 -1</clus>
<clus scale="   51.033">  1  3  2 -1</clus>
</clustering>
</event>
<event>
 6    0  0.5563122E+002  0.9471155E+02  0.7546771E-02  0.1291827E+00
         21   -1    0    0  505  501  0.00000000000E+00  0.00000000000E+00  0.24044675985E+02  0.24044675985E+02  0.00000000000E+00 0. -1.
         21   -1    0    0  506  502 -0.00000000000E+00 -0.00000000000E+00 -0.69462026759E+03  0.69462026759E+03  0.00000000000E+00 0. -1.
         21    1    1    2  503  501 -0.58214621319E+02  0.21940023859E+02 -0.15048125621E+03  0.16283401136E+03  0.00000000000E+00 0. -1.
         21    1    1    2  504  502  0.45602117043E+02  0.18038537810E+02 -0.97277567804E+02  0.10893974079E+03  0.00000000000E+00 0. -1.
         21    1    1    2  505  504  0.31803078116E+02  0.46268454326E+02 -0.15301963018E+03  0.16299451790E+03  0.00000000000E+00 0. -1.
         21    1    1    2  506  503 -0.19190573840E+02 -0.86247015995E+02 -0.26979713740E+03  0.28389667353E+03  0.00000000000E+00 0. -1.
<scales pt_clust_3="62.21179" pt_clust_4="32.00350" pt_clust_5="32.00350" pt_clust_6="88.30446"></scales>
<clustering>
<clus scale="   32.004">  4  5 -1 -1</clus>
<clus scale="   62.212">  1  3  2 -1</clus>
<clus scale="   88.304">  2  6  1 -1</clus>
<clus scale="   62.212">  1  3  2 -1</clus>
</clustering>
</event>
<event>
 6    0  0.5563122E+002  0.8298753E+02  0.7546771E-02  0.1320781E+00
         21   -1    0    0  505  501  0.00000000000E+00  0.00000000000E+00  0.13310264187E+02  0.13310264187E+02  0.00000000000E+00 0. -1.
         21   -1    0    0  503  502 -0.00000000000E+00 -0.00000000000E+00 -0.17262017880E+04  0.17262017880E+04  0.00000000000E+00 0. -1.
         21    1    1    2  503  504 -0.51408426504E+02  0.74099214789E+02 -0.76872338815E+03  0.77399558618E+03  0.00000000000E+00 0. -1.
         21    1    1    2  504  501  0.93556352843E+01 -0.29697327474E+02 -0.44578792086E+02  0.54375802289E+02  0.00000000000E+00 0. -1.
         21    1    1    2  505  506  0.32813297653E+02  0.36670730295E+02 -0.16928500885E+03  0.17629199977E+03  0.00000000000E+00 0. -1.
         21    1    1    2  506  502  0.92394935662E+01 -0.81072617610E+02 -0.73030433473E+03  0.73484866394E+03  0.00000000000E+00 0. -1.
<scales pt_clust_3="82.98753" pt_clust_4="31.13614" pt_clust_5="44.02494" pt_clust_6="14000.00000"></scales>
<clustering>
<clus scale="   31.136">  1  4  2 -1</clus>
<clus scale="   44.025">  1  5  2 -1</clus>
<clus scale="   82.988">  1  3  2 -1</clus>
<clus scale="   31.136">  1  3  2 -1</clus>
</clustering>
</event>
<event>
 6    0  0.5563122E+002  0.7492833E+02  0.7546771E-02  0.1344093E+00
         21   -1    0    0  505  501  0.00000000000E+00  0.00000000000E+00  0.14811105631E+03  0.14811105631E+03  0.00000000000E+00 0.  1.
         21   -1    0    0  504  502 -0.00000000000E+00 -0.00000000000E+00 -0.27106980704E+03  0.27106980704E+03  0.00000000000E+00 0.  1.
         21    1    1    2  503  501 -0.36468870011E+02  0.47707751771E+02  0.52264727014E+02  0.79609105941E+02  0.00000000000E+00 0.  1.
         21    1    1    2  504  503 -0.44882250471E+01  0.38549981852E+02 -0.33995451337E+02  0.51593952906E+02  0.00000000000E+00 0. -1.
         21    1    1    2  505  506  0.38684560252E+02  0.28770778700E+02  0.47028031757E+02  0.67349006524E+02  0.00000000000E+00 0.  1.
         21    1    1    2  506  502  0.22725348060E+01 -0.11502851232E+03 -0.18825605816E+03  0.22062879798E+03  0.00000000000E+00 0.  1.
<scales pt_clust_3="14000.00000" pt_clust_4="38.81038" pt_clust_5="49.09698" pt_clust_6="74.92833"></scales>
<clustering>
<clus scale="   38.810">  2  4  1 -1</clus>
<clus scale="   49.097">  1  5  2 -1</clus>
<clus scale="   74.928">  2  6  1 -1</clus>
<clus scale="   49.097">  1  3  2 -1</clus>
</clustering>
</event>
<event>
 6    0  0.5563122E+002  0.3016184E+03  0.7546771E-02  0.1084434E+00
         21   -1    0    0  503  501  0.00000000000E+00  0.00000000000E+00  0.61686435581E+03  0.61686435581E+03  0.00000000000E+00 0. -1.
         21   -1    0    0  504  502 -0.00000000000E+00 -0.00000000000E+00 -0.24006263669E+04  0.24006263669E+04  0.00000000000E+00 0. -1.
         21    1    1    2  503  502  0.98282685683E+02  0.71395733252E+01  0.12314664485E+02  0.99308160660E+02  0.00000000000E+00 0. -1.
         21    1    1    2  504  505  0.26142431627E+03  0.14997470675E+03 -0.22518025285E+04  0.22718824162E+04  0.00000000000E+00 0. -1.
         21    1    1    2  505  506 -0.31647015745E+03 -0.77051120285E+02  0.44948843331E+03  0.55509466524E+03  0.00000000000E+00 0. -1.
         21    1    1    2  506  501 -0.43236844504E+02 -0.80063159790E+02  0.62374196558E+01  0.91205480549E+02  0.00000000000E+00 0. -1.
<scales pt_clust_3="94.03812" pt_clust_4="14000.00000" pt_clust_5="301.61839" pt_clust_6="90.99195"></scales>
<clustering>
<clus scale="   90.992">  1  6  2 -1</clus>
<clus scale="   94.038">  1  3  2 -1</clus>
<clus scale="  301.618">  1  5  2 -1</clus>
<clus scale="   90.992">  1  3  2 -1</clus>
</clustering>
</event>
<event>
 6    0  0.5563122E+002  0.1681495E+03  0.7546771E-02  0.1179791E+00
         21   -1    0    0  505  501  0.00000000000E+00  0.00000000000E+00  0.24569770235E+04  0.24569770235E+04  0.00000000000E+00 0.  1.
         21   -1    0    0  506  502 -0.00000000000E+00 -0.00000000000E+00 -0.25668693929E+03  0.25668693929E+03  0.00000000000E+00 0.  1.
         21    1    1    2  503  502  0.33623180896E+02 -0.13738429525E+03 -0.19339960906E+03  0.23960044169E+03  0.00000000000E+00 0.  1.
         21    1    1    2  504  501  0.95395557665E+02  0.90070385265E+02  0.18923202083E+04  0.18968628726E+04  0.00000000000E+00 0.  1.
         21    1    1    2  505  503 -0.83824233465E+02  0.81511372262E+02  0.50694391014E+03  0.52025256746E+03  0.00000000000E+00 0.  1.
         21    1    1    2  506  504 -0.45194505096E+02 -0.34197462275E+02 -0.55744251688E+01  0.56948081029E+02  0.00000000000E+00 0.  1.
<scales pt_clust_3="14000.00000" pt_clust_4="168.14952" pt_clust_5="117.18574" pt_clust_6="56.67459"></scales>
<clustering>
<clus scale="   56.675">  2  6  1 -1</clus>
<clus scale="  117.186">  1  5  2 -1</clus>
<clus scale="  168.150">  1  4  2 -1</clus>
<clus scale="  117.186">  1  3  2 -1</clus>
</clustering>
</event>
<event>
 6    0  0.5563122E+002  0.8948262E+02  0.7546771E-02  0.1304109E+00
         21   -1    0    0  505  501  0.00000000000E+00  0.00000000000E+00  0.35359943955E+03  0.35359943955E+03  0.00000000000E+00 0. -1.
         21   -1    0    0  504  502 -0.00000000000E+00 -0.00000000000E+00 -0.54515731998E+02  0.54515731998E+02  0.00000000000E+00 0. -1.
         21    1    1    2  503  506  0.61916912198E+01 -0.54584338427E+02  0.36205670874E+02  0.65792382881E+02  0.00000000000E+00 0. -1.
         21    1    1    2  504  501  0.42226236275E+01  0.69740882109E+02  0.13182579936E+03  0.14919672438E+03  0.00000000000E+00 0. -1.
         21    1    1    2  505  503  0.37350707023E+02 -0.61582591805E+02  0.88417315054E+02  0.11403996023E+03  0.00000000000E+00 0. -1.
         21    1    1    2  506  502 -0.47765021871E+02  0.46426048123E+02  0.42634922265E+02  0.79086104059E+02  0.00000000000E+00 0. -1.
<scales pt_clust_3="32.88776" pt_clust_4="81.17298" pt_clust_5="32.88776" pt_clust_6="66.60987"></scales>
<clustering>
<clus scale="   32.888">  3  5 -1 -1</clus>
<clus scale="   66.610">  2  6  1 -1</clus>
<clus scale="   81.173">  1  4  2 -1</clus>
<clus scale="   81.173">  1  3  2 -1</clus>
</clustering>
</event>
<event>
 6    0  0.5563122E+002  0.6247191E+02  0.7546771E-02  0.1387742E+00
         21   -1    0    0  506  501  0.00000000000E+00  0.00000000000E+00  0.18261820597E+03  0.18261820597E+03  0.00000000000E+00 0. -1.
         21   -1    0    0  504  502 -0.00000000000E+00 -0.00000000000E+00 -0.42581090566E+03  0.42581090566E+03  0.00000000000E+00 0. -1.
         21    1    1    2  503  501  0.24818172271E+02 -0.61751933921E+02  0.62324115912E+02  0.91178607371E+02  0.00000000000E+00 0. -1.
         21    1    1    2  504  503 -0.75665028574E+02 -0.74609345777E+01  0.60117618279E+02  0.96927757229E+02  0.00000000000E+00 0. -1.
         21    1    1    2  505  502  0.59293880447E+02  0.18346125094E+02 -0.36345164831E+03  0.36871322898E+03  0.00000000000E+00 0. -1.
         21    1    1    2  506  505 -0.84470241446E+01  0.50866743405E+02 -0.21827855764E+01  0.51609518060E+02  0.00000000000E+00 0. -1.
<scales pt_clust_3="42.42696" pt_clust_4="62.47191" pt_clust_5="14000.00000" pt_clust_6="51.56334"></scales>
<clustering>
<clus scale="   51.563">  1  6  2 -1</clus>
<clus scale="   42.427">  1  3  2 -1</clus>
<clus scale="   62.472">  1  4  2 -1</clus>
<clus scale="   51.563">  1  3  2 -1</clus>
</clustering>
</event>
<event>
 6    0  0.5563122E+002  0.9649477E+02  0.7546771E-02  0.1287845E+00
         21   -1    0    0  504  501  0.00000000000E+00  0.00000000000E+00  0.25280941177E+03  0.25280941177E+03  0.00000000000E+00 0. -1.
         21   -1    0    0  503  502 -0.00000000000E+00 -0.00000000000E+00 -0.47274333017E+03  0.47274333017E+03  0.00000000000E+00 0.  1.
         21    1    1    2  503  505 -0.10408580978E+03  0.50523132479E+02 -0.35518727511E+03  0.37355647915E+03  0.00000000000E+00 0.  1.
         21    1    1    2  504  506  0.46261961531E+02 -0.23398786052E+02  0.21340310713E+03  0.21961001435E+03  0.00000000000E+00 0. -1.
         21    1    1    2  505  501  0.50114877740E+02  0.70437307801E+01 -0.44700581518E+01  0.50804493247E+02  0.00000000000E+00 0.  1.
         21    1    1    2  506  502  0.77089705126E+01 -0.34168077206E+02 -0.73679692266E+02  0.81581755183E+02  0.00000000000E+00 0.  1.
<scales pt_clust_3="14000.00000" pt_clust_4="96.49477" pt_clust_5="50.86743" pt_clust_6="35.02693"></scales>
<clustering>
<clus scale="   35.027">  2  6  1 -1</clus>
<clus scale="   50.867">  1  5  2 -1</clus>
<clus scale="   96.495">  1  4  2 -1</clus>
<clus scale="   50.867">  1  3  2 -1</clus>
</clustering>
</event>
<event>
 6    0  0.5563122E+002  0.7172350E+02  0.7546771E-02  0.1354328E+00
         21   -1    0    0  505  501  0.00000000000E+00  0.00000000000E+00  0.76761336872E+03  0.76761336872E+03  0.00000000000E+00 0.  1.
         21   -1    0    0  503  502 -0.00000000000E+00 -0.00000000000E+00 -0.26485502630E+02  0.26485502630E+02  0.00000000000E+00 0.  1.
         21    1    1    2  503  506 -0.59641952423E+02  0.34671120230E+02  0.18018850505E+03  0.19294337620E+03  0.00000000000E+00 0.  1.
         21    1    1    2  504  502 -0.38180247078E+02 -0.11051375762E+02  0.43670394222E+02  0.59050550418E+02  0.00000000000E+00 0.  1.
         21    1    1    2  505  504  0.17139293448E+02 -0.60345622501E+02  0.12396146862E+03  0.13893090095E+03  0.00000000000E+00 0.  1.
         21    1    1    2  506  501  0.80682906053E+02  0.36725878032E+02  0.39330749819E+03  0.40317404378E+03  0.00000000000E+00 0.  1.
<scales pt_clust_3="14000.00000" pt_clust_4="39.74751" pt_clust_5="64.77542" pt_clust_6="71.72350"></scales>
<clustering>
<clus scale="   39.748">  2  4  1 -1</clus>
<clus scale="   64.775">  2  5  1 -1</clus>
<clus scale="   71.724">  1  6  2 -1</clus>
<clus scale="   71.724">  1  3  2 -1</clus>
</clustering>
</event>
<event>
 6    0  0.5563122E+002  0.8661282E+02  0.7546771E-02  0.1311268E+00
         21   -1    0    0  503  501  0.00000000000E+00  0.00000000000E+00  0.28506811565E+03  0.28506811565E+03  0.00000000000E+00 0. -1.
         21   -1    0    0  504  502 -0.00000000000E+00 -0.00000000000E+00 -0.12306451606E+04  0.12306451606E+04  0.00000000000E+00 0. -1.
         21    1    1    2  503  505 -0.76965596795E+02 -0.43788749983E+02  0.25229037002E+03  0.26737911011E+03  0.00000000000E+00 0. -1.
         21    1    1    2  504  501  0.14529823003E+02  0.93853895804E+02 -0.75615328547E+02  0.12139747701E+03  0.00000000000E+00 0. -1.
         21    1    1    2  505  506  0.34152855545E+02 -0.62910402720E+02 -0.77989599774E+03  0.78317424856E+03  0.00000000000E+00 0. -1.
         21    1    1    2  506  502  0.28282918248E+02  0.12845256899E+02 -0.34235608871E+03  0.34376244060E+03  0.00000000000E+00 0. -1.
<scales pt_clust_3="14000.00000" pt_clust_4="86.61282" pt_clust_5="78.42333" pt_clust_6="31.06323"></scales>
<clustering>
<clus scale="   31.063">  2  6  1 -1</clus>
<clus scale="   78.423">  2  5  1 -1</clus>
<clus scale="   86.613">  2  4  1 -1</clus>
<clus scale="   86.613">  1  3  2 -1</clus>
</clustering>
</event>
<event>
 6    0  0.5563122E+002  0.1379528E+03  0.7546771E-02  0.1216110E+00
         21   -1    0    0  503  501  0.00000000000E+00  0.00000000000E+00  0.44496278248E+02  0.44496278248E+02  0.00000000000E+00 0. -1.
         21   -1    0    0  504  502 -0.00000000000E+00 -0.00000000000E+00 -0.21625897575E+04  0.21625897575E+04  0.00000000000E+00 0.  1.
         21    1    1    2  503  502 -0.28014845471E+02  0.47679995439E+02 -0.15326766391E+03  0.16293922281E+03  0.00000000000E+00 0. -1.
         21    1    1    2  504  506 -0.55116273562E+02 -0.12896591499E+03 -0.18329446248E+04  0.18383024801E+04  0.00000000000E+00 0.  1.
         21    1    1    2  505  501  0.30745243915E+02 -0.23311936296E+02 -0.17970730630E+02  0.42563641252E+02  0.00000000000E+00 0.  1.
         21    1    1    2  506  505  0.52385875118E+02  0.10459785584E+03 -0.11391045992E+03  0.16328069157E+03  0.00000000000E+00 0. -1.
<scales pt_clust_3="49.99228" pt_clust_4="137.95282" pt_clust_5="38.58389" pt_clust_6="14000.00000"></scales>
<clustering>
<clus scale="   38.584">  1  5  2 -1</clus>
<clus scale="   49.992">  1  3  2 -1</clus>
<clus scale="  137.953">  2  4  1 -1</clus>
<clus scale="   38.584">  1  3  2 -1</clus>
</clustering>
</event>
<event>
 6    0  0.5563122E+002  0.8607832E+02  0.7546771E-02  0.1312636E+00
         21   -1    0    0  503  501  0.00000000000E+00  0.00000000000E+00  0.20170756560E+03  0.20170756560E+03  0.00000000000E+00 0.  1.
         21   -1    0    0  505  502 -0.00000000000E+00 -0.00000000000E+00 -0.28151824727E+03  0.28151824727E+03  0.00000000000E+00 0. -1.
         21    1    1    2  503  504  0.22768723725E+02  0.46428434994E+02  0.28490701835E+02  0.59040108800E+02  0.00000000000E+00 0.  1.
         21    1    1    2  504  502  0.17394304803E+02  0.72948228609E+02 -0.23177710186E+03  0.24360753445E+03  0.00000000000E+00 0. -1.
         21    1    1    2  505  506 -0.15008368752E+00 -0.50786232335E+02  0.62056046482E+02  0.80188632766E+02  0.00000000000E+00 0.  1.
         21    1    1    2  506  501 -0.40012944841E+02 -0.68590431268E+02  0.61419671869E+02  0.10038953685E+03  0.00000000000E+00 0.  1.
<scales pt_clust_3="51.71087" pt_clust_4="76.88375" pt_clust_5="30.95635" pt_clust_6="30.95635"></scales>
<clustering>
<clus scale="   30.956">  5  6 -1 -1</clus>
<clus scale="   51.711">  1  3  2 -1</clus>
<clus scale="   76.884">  2  4  1 -1</clus>
<clus scale="   51.711">  1  3  2 -1</clus>
</clustering>
</event>
<event>
 6    0  0.5563122E+002  0.8662845E+02  0.7546771E-02  0.1311228E+00
         21   -1    0    0  504  501  0.00000000000E+00  0.00000000000E+00  0.23460071761E+03  0.23460071761E+03  0.00000000000E+00 0.  1.
         21   -1    0    0  506  502 -0.00000000000E+00 -0.00000000000E+00 -0.13391617067E+04  0.13391617067E+04  0.00000000000E+00 0. -1.
         21    1    1    2  503  502 -0.53834853516E+02  0.47633243831E+02 -0.71776136480E+03  0.72135185185E+03  0.00000000000E+00 0. -1.
         21    1    1    2  504  505 -0.22939793025E+02 -0.61357651670E+02  0.21232730452E+03  0.22220233970E+03  0.00000000000E+00 0.  1.
         21    1    1    2  505  503  0.48757166276E+02  0.95127102838E+02 -0.38087442504E+03  0.39559038741E+03  0.00000000000E+00 0. -1.
         21    1    1    2  506  501  0.28017480265E+02 -0.81402695000E+02 -0.21825250375E+03  0.23461784533E+03  0.00000000000E+00 0.  1.
<scales pt_clust_3="69.73943" pt_clust_4="65.50569" pt_clust_5="14000.00000" pt_clust_6="86.62845"></scales>
<clustering>
<clus scale="   65.506">  1  4  2 -1</clus>
<clus scale="   69.739">  2  3  1 -1</clus>
<clus scale="   86.628">  2  6  1 -1</clus>
<clus scale="   65.506">  1  3  2 -1</clus>
</clustering>
</event>
<event>
 6    0  0.5563122E+002  0.1347277E+03  0.7546771E-02  0.1220605E+00
         21   -1    0    0  504  501  0.00000000000E+00  0.00000000000E+00  0.19932383335E+03  0.19932383335E+03  0.00000000000E+00 0.  1.
         21   -1    0    0  505  502 -0.00000000000E+00 -0.00000000000E+00 -0.30643686944E+03  0.30643686944E+03  0.00000000000E+00 0.  1.
         21    1    1    2  503  506 -0.63920718459E+02  0.37319797697E+02 -0.12827470402E+03  0.14809802578E+03  0.00000000000E+00 0.  1.
         21    1    1    2  504  502 -0.59437874427E+02  0.72493137394E+02 -0.14622431746E+02  0.94878508608E+02  0.00000000000E+00 0.  1.
         21    1    1    2  505  503  0.28238215274E+02  0.40819670183E+02 -0.45160846556E+02  0.67105471739E+02  0.00000000000E+00 0.  1.
         21    1    1    2  506  501  0.95120377611E+02 -0.15063260527E+03  0.80944946227E+02  0.19567869666E+03  0.00000000000E+00 0.  1.
<scales pt_clust_3="76.93214" pt_clust_4="134.72772" pt_clust_5="49.63509" pt_clust_6="14000.00000"></scales>
<clustering>
<clus scale="   49.635">  2  5  1 -1</clus>
<clus scale="   76.932">  2  3  1 -1</clus>
<clus scale="  134.728">  1  4  2 -1</clus>
<clus scale="  134.728">  1  3  2 -1</clus>
</clustering>
</event>
<event>
 6    0  0.5563122E+002  0.1989789E+03  0.7546771E-02  0.1150603E+00
         21   -1    0    0  503  501  0.00000000000E+00  0.00000000000E+00  0.89035145491E+03  0.89035145491E+03  0.00000000000E+00 0. -1.
         21   -1    0    0  506  502 -0.00000000000E+00 -0.00000000000E+00 -0.68262461790E+03  0.68262461790E+03  0.00000000000E+00 0.  1.
         21    1    1    2  503  505  0.97443310839E+01 -0.32952541934E+02  0.72547038405E+03  0.72628376007E+03  0.00000000000E+00 0. -1.
         21    1    1    2  504  502 -0.92994243620E+02 -0.13952950338E+03 -0.28118317326E+03  0.32738416056E+03  0.00000000000E+00 0.  1.
         21    1    1    2  505  504 -0.11147258016E+03 -0.29566970947E+02  0.43119536226E+02  0.12312447483E+03  0.00000000000E+00 0. -1.
         21    1    1    2  506  501  0.19472249270E+03  0.20204901626E+03 -0.27967991000E+03  0.39618367734E+03  0.00000000000E+00 0.  1.
<scales pt_clust_3="34.36309" pt_clust_4="14000.00000" pt_clust_5="116.14134" pt_clust_6="198.97889"></scales>
<clustering>
<clus scale="   34.363">  1  3  2 -1</clus>
<clus scale="  116.141">  1  5  2 -1</clus>
<clus scale="  198.979">  1  6  2 -1</clus>
<clus scale="   34.363">  1  3  2 -1</clus>
</clustering>
</event>
<event>
 6    0  0.5563122E+002  0.8126852E+02  0.7546771E-02  0.1325490E+00
         21   -1    0    0  505  501  0.00000000000E+00  0.00000000000E+00  0.16032314387E+03  0.16032314387E+03  0.00000000000E+00 0.  1.
         21   -1    0    0  504  502 -0.00000000000E+00 -0.00000000000E+00 -0.59094709797E+03  0.59094709797E+03  0.00000000000E+00 0.  1.
         21    1    1    2  503  501 -0.34057333801E+02  0.79531160980E+01  0.50857669715E+02  0.61722415783E+02  0.00000000000E+00 0.  1.
         21    1    1    2  504  503 -0.16722542249E+02  0.63281386358E+02  0.76237175566E+02  0.10048026780E+03  0.00000000000E+00 0.  1.
         21    1    1    2  505  506  0.89101399190E+02 -0.23820801034E+02 -0.14484076685E+03  0.17171295129E+03  0.00000000000E+00 0. -1.
         21    1    1    2  506  502 -0.38321523140E+02 -0.47413701422E+02 -0.41287803253E+03  0.41735460697E+03  0.00000000000E+00 0.  1.
<scales pt_clust_3="34.97362" pt_clust_4="14000.00000" pt_clust_5="81.26852" pt_clust_6="61.29517"></scales>
<clustering>
<clus scale="   34.974">  1  3  2 -1</clus>
<clus scale="   61.295">  2  6  1 -1</clus>
<clus scale="   81.269">  2  5  1 -1</clus>
<clus scale="   34.974">  1  3  2 -1</clus>
</clustering>
</event>
<event>
 6    0  0.5563122E+002  0.1261526E+03  0.7546771E-02  0.1233279E+00
         21   -1    0    0  503  501  0.00000000000E+00  0.00000000000E+00  0.89066504442E+03  0.89066504442E+03  0.00000000000E+00 0. -1.
         21   -1    0    0  505  502 -0.00000000000E+00 -0.00000000000E+00 -0.55628939346E+02  0.55628939346E+02  0.00000000000E+00 0.  1.
         21    1    1    2  503  506  0.51404562897E+02 -0.20493508611E+02 -0.25758058579E+01  0.55398986973E+02  0.00000000000E+00 0.  1.
         21    1    1    2  504  501 -0.30661367206E+02 -0.70234291422E+01  0.31293610089E+03  0.31451303826E+03  0.00000000000E+00 0. -1.
         21    1    1    2  505  504 -0.82455651499E+02  0.59114284912E+02  0.48703822564E+03  0.49749338326E+03  0.00000000000E+00 0. -1.
         21    1    1    2  506  502  0.61712455808E+02 -0.31597347158E+02  0.37637584392E+02  0.78888575270E+02  0.00000000000E+00 0.  1.
<scales pt_clust_3="32.37063" pt_clust_4="31.45549" pt_clust_5="120.91138" pt_clust_6="32.37063"></scales>
<clustering>
<clus scale="   31.455">  1  4  2 -1</clus>
<clus scale="   32.371">  3  6 -1 -1</clus>
<clus scale="  120.911">  1  5  2 -1</clus>
<clus scale="   31.455">  1  3  2 -1</clus>
</clustering>
</event>
<event>
 6    0  0.5563122E+002  0.1380682E+03  0.7546771E-02  0.1215952E+00
         21   -1    0    0  502  501  0.00000000000E+00  0.00000000000E+00  0.19758477371E+03  0.19758477371E+03  0.00000000000E+00 0. -1.
         21   -1    0    0  503  502 -0.00000000000E+00 -0.00000000000E+00 -0.35030920588E+03  0.35030920588E+03  0.00000000000E+00 0. -1.
         21    1    1    2  503  505  0.43592361630E+02  0.59464145568E+02 -0.47023063906E+02  0.87449683474E+02  0.00000000000E+00 0.  1.
         21    1    1    2  504  506 -0.65281940630E+02  0.65757689885E+02 -0.15857857978E+03  0.18366537920E+03  0.00000000000E+00 0. -1.
         21    1    1    2  505  504 -0.95858265015E+02 -0.32120850005E+02 -0.29993502779E+02  0.10545219858E+03  0.00000000000E+00 0. -1.
         21    1    1    2  506  501  0.11754784401E+03 -0.93100985449E+02  0.82870714298E+02  0.17132671833E+03  0.00000000000E+00 0. -1.
<scales pt_clust_3="73.73112" pt_clust_4="14000.00000" pt_clust_5="87.28318" pt_clust_6="138.06819"></scales>
<clustering>
<clus scale="   73.731">  2  3  1 -1</clus>
<clus scale="   87.283">  2  5  1 -1</clus>
<clus scale="  138.068">  1  6  2 -1</clus>
<clus scale="  138.068">  1  3  2 -1</clus>
</clustering>
</event>
<event>
 6    0  0.5563122E+002  0.7970247E+02  0.7546771E-02  0.1329898E+00
         21   -1    0    0  505  501  0.00000000000E+00  0.00000000000E+00  0.61483079188E+03  0.61483079188E+03  0.00000000000E+00 0.  1.
         21   -1    0    0  506  502 -0.00000000000E+00 -0.00000000000E+00 -0.70799926631E+02  0.70799926631E+02  0.00000000000E+00 0.  1.
         21    1    1    2  503  502 -0.10209756780E+03 -0.13795415369E+02  0.17115058421E+02  0.10443731163E+03  0.00000000000E+00 0.  1.
         21    1    1    2  504  501 -0.28550371190E+01 -0.58161184651E+02  0.92428866714E+02  0.10924271161E+03  0.00000000000E+00 0.  1.
         21    1    1    2  505  503  0.74489040526E+02  0.61831431152E+02  0.42849446255E+03  0.43929403305E+03  0.00000000000E+00 0.  1.
         21    1    1    2  506  504  0.30463564396E+02  0.10125168868E+02  0.59924775676E+01  0.32656662226E+02  0.00000000000E+00 0. -1.
<scales pt_clust_3="79.70247" pt_clust_4="56.70260" pt_clust_5="14000.00000" pt_clust_6="32.10215"></scales>
<clustering>
<clus scale="   32.102">  2  6  1 -1</clus>
<clus scale="   56.703">  1  4  2 -1</clus>
<clus scale="   79.702">  2  3  1 -1</clus>
<clus scale="   56.703">  1  3  2 -1</clus>
</clustering>
</event>
<event>
 6    0  0.5563122E+002  0.1176640E+03  0.7546771E-02  0.1247001E+00
         21   -1    0    0  506  501  0.00000000000E+00  0.00000000000E+00  0.95468405602E+03  0.95468405602E+03  0.00000000000E+00 0.  1.
         21   -1    0    0  503  502 -0.00000000000E+00 -0.00000000000E+00 -0.91438020665E+02  0.91438020665E+02  0.00000000000E+00 0.  1.
         21    1    1    2  503  505 -0.35268388606E+02  0.36505625276E+02  0.26103604591E+02  0.57078175201E+02  0.00000000000E+00 0. -1.
         21    1    1    2  504  502  0.64205773704E+02 -0.73295590489E+02 -0.21647736929E+02  0.99816078246E+02  0.00000000000E+00 0.  1.
         21    1    1    2  505  501 -0.50836972004E+02  0.81180144493E+02  0.14534922537E+03  0.17407185556E+03  0.00000000000E+00 0. -1.
         21    1    1    2  506  504  0.21899586905E+02 -0.44390179279E+02  0.71344094232E+03  0.71515596767E+03  0.00000000000E+00 0.  1.
<scales pt_clust_3="38.31477" pt_clust_4="105.23604" pt_clust_5="38.31477" pt_clust_6="49.49828"></scales>
<clustering>
<clus scale="   38.315">  3  5 -1 -1</clus>
<clus scale="   49.498">  1  6  2 -1</clus>
<clus scale="  105.236">  2  4  1 -1</clus>
<clus scale="   49.498">  1  3  2 -1</clus>
</clustering>
</event>
<event>
 6    0  0.5563122E+002  0.1499328E+03  0.7546771E-02  0.1200556E+00
         21   -1    0    0  506  501  0.00000000000E+00  0.00000000000E+00  0.40067327875E+03  0.40067327875E+03  0.00000000000E+00 0. -1.
         21   -1    0    0  504  502 -0.00000000000E+00 -0.00000000000E+00 -0.20117687950E+03  0.20117687950E+03  0.00000000000E+00 0. -1.
         21    1    1    2  503  501  0.52224038576E+02 -0.57415796336E+02  0.24979377809E+03  0.26157380497E+03  0.00000000000E+00 0. -1.
         21    1    1    2  504  505 -0.54472779858E+02 -0.33548941214E+02 -0.90121965392E+01  0.64606771228E+02  0.00000000000E+00 0.  1.
         21    1    1    2  505  503  0.20458872592E+02 -0.55344583496E+02  0.69557615243E+02  0.91213213014E+02  0.00000000000E+00 0. -1.
         21    1    1    2  506  502 -0.18210131310E+02  0.14630932105E+03 -0.11084279755E+03  0.18445636903E+03  0.00000000000E+00 0. -1.
<scales pt_clust_3="58.33148" pt_clust_4="63.97511" pt_clust_5="58.33148" pt_clust_6="134.17972"></scales>
<clustering>
<clus scale="   58.331">  3  5 -1 -1</clus>
<clus scale="   63.975">  2  4  1 -1</clus>
<clus scale="  134.180">  2  6  1 -1</clus>
<clus scale="  149.933">  1  3  2 -1</clus>
</clustering>
</event>
<event>
 6    0  0.5563122E+002  0.1939828E+03  0.7546771E-02  0.1154917E+00
         21   -1    0    0  505  501  0.00000000000E+00  0.00000000000E+00  0.58610655056E+03  0.58610655056E+03  0.00000000000E+00 0. -1.
         21   -1    0    0  504  502 -0.00000000000E+00 -0.00000000000E+00 -0.11483063114E+03  0.11483063114E+03  0.00000000000E+00 0. -1.
         21    1    1    2  503  502  0.45697684379E+02  0.46773581609E+02  0.66503566337E+02  0.93267200181E+02  0.00000000000E+00 0. -1.
         21    1    1    2  504  506 -0.19135954519E+03 -0.83814348904E+02  0.13563998957E+03  0.24908136700E+03  0.00000000000E+00 0. -1.
         21    1    1    2  505  503  0.92942349502E+02  0.39479806036E+02  0.18751596323E+02  0.10270617207E+03  0.00000000000E+00 0. -1.
         21    1    1    2  506  501  0.52719511305E+02 -0.24390387413E+01  0.25038076719E+03  0.25588244246E+03  0.00000000000E+00 0. -1.
<scales pt_clust_3="55.09639" pt_clust_4="182.07939" pt_clust_5="55.09639" pt_clust_6="52.77590"></scales>
<clustering>
<clus scale="   52.776">  1  6  2 -1</clus>
<clus scale="   55.096">  3  5 -1 -1</clus>
<clus scale="  182.079">  1  4  2 -1</clus>
<clus scale="   52.776">  1  3  2 -1</clus>
</clustering>
</event>
<event>
 6    0  0.5563122E+002  0.1092667E+03  0.7546771E-02  0.1261934E+00
         21   -1    0    0  504  501  0.00000000000E+00  0.00000000000E+00  0.99978877713E+03  0.99978877713E+03  0.00000000000E+00 0. -1.
         21   -1    0    0  503  502 -0.00000000000E+00 -0.00000000000E+00 -0.67704083552E+02  0.67704083552E+02  0.00000000000E+00 0. -1.
         21    1    1    2  503  506 -0.27472834011E+02 -0.44984676743E+02 -0.22458738735E+02  0.57295485824E+02  0.00000000000E+00 0. -1.
         21    1    1    2  504  505  0.73409470913E+02  0.13190927816E+03  0.68719780478E+03  0.70358356361E+03  0.00000000000E+00 0. -1.
         21    1    1    2  505  502 -0.33734662180E+02 -0.69899346169E+01  0.85730738327E+01  0.35501890278E+02  0.00000000000E+00 0. -1.
         21    1    1    2  506  501 -0.12201974722E+02 -0.79934666804E+02  0.25877255370E+03  0.27111192097E+03  0.00000000000E+00 0. -1.
<scales pt_clust_3="72.42251" pt_clust_4="14000.00000" pt_clust_5="34.45122" pt_clust_6="109.26667"></scales>
<clustering>
<clus scale="   34.451">  2  5  1 -1</clus>
<clus scale="   72.423">  2  3  1 -1</clus>
<clus scale="  109.267">  1  6  2 -1</clus>
<clus scale="  109.267">  1  3  2 -1</clus>
</clustering>
</event>
<event>
 6    0  0.5563122E+002  0.9079618E+02  0.7546771E-02  0.1300935E+00
         21   -1    0    0  503  501  0.00000000000E+00  0.00000000000E+00  0.11117837820E+03  0.11117837820E+03  0.00000000000E+00 0. -1.
         21   -1    0    0  506  502 -0.00000000000E+00 -0.00000000000E+00 -0.11656279711E+04  0.11656279711E+04  0.00000000000E+00 0. -1.
         21    1    1    2  503  502 -0.48580017596E+02  0.57747512003E+02 -0.70938581349E+02  0.10357159638E+03  0.00000000000E+00 0. -1.
         21    1    1    2  504  501  0.40747978679E+01 -0.71067500123E+02  0.60881558374E+02  0.93668338842E+02  0.00000000000E+00 0. -1.
         21    1    1    2  505  504  0.83263645789E+01 -0.73990729664E+02 -0.75370821790E+02  0.10594676588E+03  0.00000000000E+00 0. -1.
         21    1    1    2  506  505  0.36178855149E+02  0.87310717783E+02 -0.96902174810E+03  0.97361964817E+03  0.00000000000E+00 0. -1.
<scales pt_clust_3="52.22746" pt_clust_4="71.18422" pt_clust_5="90.79618" pt_clust_6="14000.00000"></scales>
<clustering>
<clus scale="   71.184">  1  4  2 -1</clus>
<clus scale="   52.227">  1  3  2 -1</clus>
<clus scale="   90.796">  1  5  2 -1</clus>
<clus scale="   71.184">  1  3  2 -1</clus>
</clustering>
</event>
<event>
 6    0  0.5563122E+002  0.1190969E+03  0.7546771E-02  0.1244594E+00
         21   -1    0    0  506  501  0.00000000000E+00  0.00000000000E+00  0.45488698032E+03  0.45488698032E+03  0.00000000000E+00 0.  1.
         21   -1    0    0  505  502 -0.00000000000E+00 -0.00000000000E+00 -0.63744670730E+03  0.63744670730E+03  0.00000000000E+00 0. -1.
         21    1    1    2  503  502  0.74998138546E+02  0.82681524262E+02 -0.35268884673E+03  0.36993293696E+03  0.00000000000E+00 0. -1.
         21    1    1    2  504  501 -0.41594903193E+02  0.38545128149E+02  0.40818540775E+03  0.41210579950E+03  0.00000000000E+00 0.  1.
         21    1    1    2  505  504 -0.67781169047E+02 -0.11897473231E+03 -0.23942689964E+03  0.27581608742E+03  0.00000000000E+00 0. -1.
         21    1    1    2  506  503  0.34377933694E+02 -0.22519201006E+01  0.13706116372E+01  0.34478863750E+02  0.00000000000E+00 0. -1.
<scales pt_clust_3="119.09687" pt_clust_4="37.60633" pt_clust_5="14000.00000" pt_clust_6="34.45161"></scales>
<clustering>
<clus scale="   34.452">  1  6  2 -1</clus>
<clus scale="   37.606">  1  4  2 -1</clus>
<clus scale="  119.097">  2  3  1 -1</clus>
<clus scale="   34.452">  1  3  2 -1</clus>
</clustering>
</event>
<event>
 6    0  0.5563122E+002  0.1070156E+03  0.7546771E-02  0.1266198E+00
         21   -1    0    0  506  501  0.00000000000E+00  0.00000000000E+00  0.11403119929E+03  0.11403119929E+03  0.00000000000E+00 0. -1.
         21   -1    0    0  503  502 -0.00000000000E+00 -0.00000000000E+00 -0.88444624487E+03  0.88444624487E+03  0.00000000000E+00 0. -1.
         21    1    1    2  503  505 -0.12828986105E+02  0.33988578866E+02 -0.27422369412E+03  0.27661966812E+03  0.00000000000E+00 0.  1.
         21    1    1    2  504  502  0.37626990191E+02 -0.10067230835E+02 -0.78807143323E+02  0.87907368100E+02  0.00000000000E+00 0. -1.
         21    1    1    2  505  501 -0.91065707681E+02  0.57022170085E+02  0.74705711041E+02  0.13086418249E+03  0.00000000000E+00 0. -1.
         21    1    1    2  506  504  0.66267703595E+02 -0.80943518116E+02 -0.49208991919E+03  0.50308622545E+03  0.00000000000E+00 0. -1.
<scales pt_clust_3="36.32914" pt_clust_4="36.27753" pt_clust_5="107.01565" pt_clust_6="14000.00000"></scales>
<clustering>
<clus scale="   36.329">  2  3  1 -1</clus>
<clus scale="   36.278">  2  4  1 -1</clus>
<clus scale="  107.016">  1  5  2 -1</clus>
<clus scale="  107.016">  1  3  2 -1</clus>
</clustering>
</event>
<event>
 6    0  0.5563122E+002  0.9016830E+02  0.7546771E-02  0.1302445E+00
         21   -1    0    0  504  501  0.00000000000E+00  0.00000000000E+00  0.34553590885E+03  0.34553590885E+03  0.00000000000E+00 0.  1.
         21   -1    0    0  505  502 -0.00000000000E+00 -0.00000000000E+00 -0.10205693302E+03  0.10205693302E+03  0.00000000000E+00 0.  1.
         21    1    1    2  503  502 -0.98766867346E+02  0.50217962026E+02  0.34606040775E+02  0.11607892080E+03  0.00000000000E+00 0.  1.
         21    1    1    2  504  503  0.36727728579E+02 -0.32646346364E+02  0.16834329067E+03  0.17536867876E+03  0.00000000000E+00 0.  1.
         21    1    1    2  505  506  0.53221780143E+02 -0.63860700958E+02 -0.13755530708E+02  0.84261270069E+02  0.00000000000E+00 0.  1.
         21    1    1    2  506  501  0.88173586232E+01  0.46289085296E+02  0.54285175098E+02  0.71883972248E+02  0.00000000000E+00 0.  1.
<scales pt_clust_3="90.16830" pt_clust_4="42.33055" pt_clust_5="14000.00000" pt_clust_6="47.12139"></scales>
<clustering>
<clus scale="   47.121">  1  6  2 -1</clus>
<clus scale="   42.331">  1  4  2 -1</clus>
<clus scale="   90.168">  1  3  2 -1</clus>
<clus scale="   47.121">  1  3  2 -1</clus>
</clustering>
</event>
<event>
 6    0  0.5563122E+002  0.9615210E+02  0.7546771E-02  0.1288602E+00
         21   -1    0    0  504  501  0.00000000000E+00  0.00000000000E+00  0.36792886980E+03  0.36792886980E+03  0.00000000000E+00 0. -1.
         21   -1    0    0  503  502 -0.00000000000E+00 -0.00000000000E+00 -0.17261349546E+04  0.17261349546E+04  0.00000000000E+00 0. -1.
         21    1    1    2  503  506  0.15031361089E+03  0.36804194633E+02  0.41570257483E+01  0.15480959669E+03  0.00000000000E+00 0.  1.
         21    1    1    2  504  505 -0.43217371863E+02  0.85536879768E+01  0.25403912654E+02  0.50855339806E+02  0.00000000000E+00 0. -1.
         21    1    1    2  505  502 -0.65423310023E+02 -0.22723706667E+01 -0.16338296126E+04  0.16351405371E+04  0.00000000000E+00 0. -1.
         21    1    1    2  506  501 -0.41672929009E+02 -0.43085511943E+02  0.24606258938E+03  0.25325835079E+03  0.00000000000E+00 0. -1.
<scales pt_clust_3="14000.00000" pt_clust_4="44.05572" pt_clust_5="65.54802" pt_clust_6="96.15210"></scales>
<clustering>
<clus scale="   44.056">  1  4  2 -1</clus>
<clus scale="   65.548">  2  5  1 -1</clus>
<clus scale="   96.152">  1  6  2 -1</clus>
<clus scale="   44.056">  1  3  2 -1</clus>
</clustering>
</event>
<event>
 6    0  0.5563122E+002  0.1379876E+03  0.7546771E-02  0.1216063E+00
         21   -1    0    0  505  501  0.00000000000E+00  0.00000000000E+00  0.35046428059E+03  0.35046428059E+03  0.00000000000E+00 0.  1.
         21   -1    0    0  506  502 -0.00000000000E+00 -0.00000000000E+00 -0.30064387016E+03  0.30064387016E+03  0.00000000000E+00 0.  1.
         21    1    1    2  503  501  0.34144764869E+02 -0.37492647983E+02  0.79044544528E+02  0.93912744824E+02  0.00000000000E+00 0.  1.
         21    1    1    2  504  503  0.74634764271E+02 -0.33606179736E+02  0.30973188673E+02  0.87516065787E+02  0.00000000000E+00 0.  1.
         21    1    1    2  505  502 -0.12891229673E+03 -0.11330473185E+02  0.17614177222E+03  0.21856963145E+03  0.00000000000E+00 0.  1.
         21    1    1    2  506  504  0.20132767591E+02  0.82429300904E+02 -0.23633909499E+03  0.25110970869E+03  0.00000000000E+00 0.  1.
<scales pt_clust_3="49.30901" pt_clust_4="49.30901" pt_clust_5="122.94758" pt_clust_6="84.85233"></scales>
<clustering>
<clus scale="   49.309">  3  4 -1 -1</clus>
<clus scale="   84.852">  2  6  1 -1</clus>
<clus scale="  122.948">  1  5  2 -1</clus>
<clus scale="  122.948">  1  3  2 -1</clus>
</clustering>
</event>
<event>
 6    0  0.5563122E+002  0.1940256E+03  0.7546771E-02  0.1154880E+00
         21   -1    0    0  503  501  0.00000000000E+00  0.00000000000E+00  0.15451253110E+03  0.15451253110E+03  0.00000000000E+00 0. -1.
         21   -1    0    0  501  502 -0.00000000000E+00 -0.00000000000E+00 -0.49688577398E+03  0.49688577398E+03  0.00000000000E+00 0.  1.
         21    1    1    2  503  505  0.19370122725E+02  0.25167934083E+02  0.71468452505E+00  0.31766922016E+02  0.00000000000E+00 0.  1.
         21    1    1    2  504  506 -0.12960421162E+03  0.23733823725E+02 -0.27513200247E+03  0.30505436375E+03  0.00000000000E+00 0.  1.
         21    1    1    2  505  504  0.13477476150E+03 -0.10674891574E+03  0.51607042714E+02  0.17950725391E+03  0.00000000000E+00 0. -1.
         21    1    1    2  506  502 -0.24540672601E+02  0.57847157928E+02 -0.11956296765E+03  0.13506976540E+03  0.00000000000E+00 0. -1.
<scales pt_clust_3="31.75888" pt_clust_4="60.62088" pt_clust_5="173.59989" pt_clust_6="60.62088"></scales>
<clustering>
<clus scale="   31.759">  1  3  2 -1</clus>
<clus scale="   60.621">  4  6 -1 -1</clus>
<clus scale="  173.600">  1  5  2 -1</clus>
<clus scale="   31.759">  1  3  2 -1</clus>
</clustering>
</event>
<event>
 6    0  0.5563122E+002  0.2366464E+03  0.7546771E-02  0.1122047E+00
         21   -1    0    0  503  501  0.00000000000E+00  0.00000000000E+00  0.20346096458E+04  0.20346096458E+04  0.00000000000E+00 0.  1.
         21   -1    0    0  506  502 -0.00000000000E+00 -0.00000000000E+00 -0.11527407018E+03  0.11527407018E+03  0.00000000000E+00 0.  1.
         21    1    1    2  503  504  0.43041183186E+02  0.25660120734E+02  0.45994278596E+03  0.46266440495E+03  0.00000000000E+00 0.  1.
         21    1    1    2  504  502  0.15991367472E+03  0.15347806805E+03  0.21940909187E+02  0.22273146215E+03  0.00000000000E+00 0.  1.
         21    1    1    2  505  501 -0.31945087077E+02 -0.27061423442E+02  0.39497240142E+03  0.39718510434E+03  0.00000000000E+00 0. -1.
         21    1    1    2  506  505 -0.17100977083E+03 -0.15207676535E+03  0.10424794790E+04  0.10673027445E+04  0.00000000000E+00 0.  1.
<scales pt_clust_3="50.10973" pt_clust_4="225.44607" pt_clust_5="30.77084" pt_clust_6="30.77084"></scales>
<clustering>
<clus scale="   30.771">  5  6 -1 -1</clus>
<clus scale="   50.110">  1  3  2 -1</clus>
<clus scale="  225.446">  2  4  1 -1</clus>
<clus scale="   50.110">  1  3  2 -1</clus>
</clustering>
</event>
<event>
 6    0  0.5563122E+002  0.7748375E+02  0.7546771E-02  0.1336348E+00
         21   -1    0    0  503  501  0.00000000000E+00  0.00000000000E+00  0.93555510961E+02  0.93555510961E+02  0.00000000000E+00 0.  1.
         21   -1    0    0  504  502 -0.00000000000E+00 -0.00000000000E+00 -0.22207010643E+04  0.22207010643E+04  0.00000000000E+00 0.  1.
         21    1    1    2  503  502  0.88978541703E+02 -0.28673815675E+02 -0.13126907535E+04  0.13160153430E+04  0.00000000000E+00 0.  1.
         21    1    1    2  504  506 -0.19281888574E+02  0.28333271749E+02 -0.26815768337E+03  0.27033887746E+03  0.00000000000E+00 0.  1.
         21    1    1    2  505  501  0.28094627977E+01  0.50410685108E+02  0.80455899914E+02  0.94985694109E+02  0.00000000000E+00 0.  1.
         21    1    1    2  506  505 -0.72506115927E+02 -0.50070141182E+02 -0.62675301636E+03  0.63291666071E+03  0.00000000000E+00 0. -1.
<scales pt_clust_3="14000.00000" pt_clust_4="34.27193" pt_clust_5="50.59029" pt_clust_6="77.48375"></scales>
<clustering>
<clus scale="   34.272">  2  4  1 -1</clus>
<clus scale="   50.590">  1  5  2 -1</clus>
<clus scale="   77.484">  1  6  2 -1</clus>
<clus scale="   50.590">  1  3  2 -1</clus>
</clustering>
</event>
<event>
 6    0  0.5563122E+002  0.1302246E+03  0.7546771E-02  0.1227123E+00
         21   -1    0    0  503  501  0.00000000000E+00  0.00000000000E+00  0.16337535468E+02  0.16337535468E+02  0.00000000000E+00 0. -1.
         21   -1    0    0  506  502 -0.00000000000E+00 -0.00000000000E+00 -0.19374407686E+04  0.19374407686E+04  0.00000000000E+00 0. -1.
         21    1    1    2  503  504  0.18309968829E+02 -0.62263700280E+02 -0.63352306063E+03  0.63683867006E+03  0.00000000000E+00 0. -1.
         21    1    1    2  504  502  0.46554719021E+02 -0.76183232864E+02 -0.53535922078E+03  0.54275291073E+03  0.00000000000E+00 0. -1.
         21    1    1    2  505  501 -0.47318379892E+02  0.10481452933E+03 -0.31522161494E+03  0.33554400778E+03  0.00000000000E+00 0. -1.
         21    1    1    2  506  505 -0.17546307958E+02  0.33632403813E+02 -0.43699933675E+03  0.43864271546E+03  0.00000000000E+00 0.  1.
<scales pt_clust_3="35.92570" pt_clust_4="35.92570" pt_clust_5="123.21898" pt_clust_6="37.93431"></scales>
<clustering>
<clus scale="   35.926">  3  4 -1 -1</clus>
<clus scale="   37.934">  2  6  1 -1</clus>
<clus scale="  123.219">  1  5  2 -1</clus>
<clus scale="  123.219">  1  3  2 -1</clus>
</clustering>
</event>
<event>
 6    0  0.5563122E+002  0.1857415E+03  0.7546771E-02  0.1162359E+00
         21   -1    0    0  506  501  0.00000000000E+00  0.00000000000E+00  0.24738154820E+03  0.24738154820E+03  0.00000000000E+00 0. -1.
         21   -1    0    0  503  502 -0.00000000000E+00 -0.00000000000E+00 -0.64130542124E+03  0.64130542124E+03  0.00000000000E+00 0. -1.
         21    1    1    2  503  505  0.14837236941E+03 -0.10583169388E+02 -0.23508077117E+03  0.27818938236E+03  0.00000000000E+00 0. -1.
         21    1    1    2  504  501 -0.12517398228E+03  0.11906154537E+03  0.13406557217E+03  0.21867271221E+03  0.00000000000E+00 0. -1.
         21    1    1    2  505  504  0.10656654830E+03 -0.45759180837E+02 -0.13722303793E+03  0.17966773218E+03  0.00000000000E+00 0. -1.
         21    1    1    2  506  502 -0.12976493543E+03 -0.62719195149E+02 -0.15568563610E+03  0.21215714269E+03  0.00000000000E+00 0. -1.
<scales pt_clust_3="47.17761" pt_clust_4="177.89103" pt_clust_5="47.17761" pt_clust_6="144.12715"></scales>
<clustering>
<clus scale="   47.178">  3  5 -1 -1</clus>
<clus scale="  144.127">  2  6  1 -1</clus>
<clus scale="  177.891">  1  4  2 -1</clus>
<clus scale="  177.891">  1  3  2 -1</clus>
</clustering>
</event>
<event>
 6    0  0.5563122E+002  0.1880652E+03  0.7546771E-02  0.1160218E+00
         21   -1    0    0  505  501  0.00000000000E+00  0.00000000000E+00  0.30620279881E+04  0.30620279881E+04  0.00000000000E+00 0. -1.
         21   -1    0    0  504  502 -0.00000000000E+00 -0.00000000000E+00 -0.12158500994E+03  0.12158500994E+03  0.00000000000E+00 0. -1.
         21    1    1    2  503  501 -0.10465742486E+03  0.60505254080E+02 -0.24919344960E+01  0.12091431713E+03  0.00000000000E+00 0. -1.
         21    1    1    2  504  503 -0.70145018196E+02  0.71884415650E+01 -0.15424088710E+02  0.72179635510E+02  0.00000000000E+00 0. -1.
         21    1    1    2  505  506  0.18318487227E+03  0.10443981420E+02  0.28539400731E+04  0.28598321131E+04  0.00000000000E+00 0. -1.
         21    1    1    2  506  502 -0.83824292094E+01 -0.78137677065E+02  0.10441892824E+03  0.13068693229E+03  0.00000000000E+00 0.  1.
<scales pt_clust_3="32.63515" pt_clust_4="32.63515" pt_clust_5="183.14631" pt_clust_6="78.58601"></scales>
<clustering>
<clus scale="   32.635">  3  4 -1 -1</clus>
<clus scale="   78.586">  2  6  1 -1</clus>
<clus scale="  183.146">  1  5  2 -1</clus>
<clus scale="  183.146">  1  3  2 -1</clus>
</clustering>
</event>
<event>
 6    0  0.5563122E+002  0.1716363E+03  0.7546771E-02  0.1176152E+00
         21   -1    0    0  503  501  0.00000000000E+00  0.00000000000E+00  0.11393704555E+03  0.11393704555E+03  0.00000000000E+00 0. -1.
         21   -1    0    0  505  502 -0.00000000000E+00 -0.00000000000E+00 -0.10574702318E+04  0.10574702318E+04  0.00000000000E+00 0. -1.
         21    1    1    2  503  504 -0.16042288973E+03  0.95586291915E+02 -0.16269324763E+02  0.18744848274E+03  0.00000000000E+00 0. -1.
         21    1    1    2  504  502  0.18316339984E+02 -0.53388181333E+02 -0.60597441366E+03  0.60859738434E+03  0.00000000000E+00 0. -1.
         21    1    1    2  505  506  0.11564133828E+03 -0.76957342615E+02 -0.29022785145E+03  0.32175698510E+03  0.00000000000E+00 0. -1.
         21    1    1    2  506  501  0.26465211468E+02  0.34759232033E+02 -0.31061596370E+02  0.53604425177E+02  0.00000000000E+00 0. -1.
<scales pt_clust_3="14000.00000" pt_clust_4="56.13440" pt_clust_5="171.63633" pt_clust_6="43.68766"></scales>
<clustering>
<clus scale="   43.688">  1  6  2 -1</clus>
<clus scale="   56.134">  2  4  1 -1</clus>
<clus scale="  171.636">  2  5  1 -1</clus>
<clus scale="   43.688">  1  3  2 -1</clus>
</clustering>
</event>
<event>
 6    0  0.5563122E+002  0.2477564E+03  0.7546771E-02  0.1114731E+00
         21   -1    0    0  506  501  0.00000000000E+00  0.00000000000E+00  0.44522368433E+03  0.44522368433E+03  0.00000000000E+00 0. -1.
         21   -1    0    0  504  502 -0.00000000000E+00 -0.00000000000E+00 -0.99260280115E+03  0.99260280115E+03  0.00000000000E+00 0.  1.
         21    1    1    2  503  501 -0.12003452571E+03 -0.16723822795E+03  0.99934279371E+02  0.22883131876E+03  0.00000000000E+00 0.  1.
         21    1    1    2  504  505 -0.36872053100E+02  0.36943800448E+02 -0.85450378036E+03  0.85609643343E+03  0.00000000000E+00 0.  1.
         21    1    1    2  505  503 -0.39450908077E+02 -0.80239537284E+01  0.84125509664E+01  0.41128201946E+02  0.00000000000E+00 0. -1.
         21    1    1    2  506  502  0.19635748689E+03  0.13831838123E+03  0.19877783320E+03  0.31177053135E+03  0.00000000000E+00 0. -1.
<scales pt_clust_3="31.22860" pt_clust_4="52.19572" pt_clust_5="31.22860" pt_clust_6="237.47958"></scales>
<clustering>
<clus scale="   31.229">  3  5 -1 -1</clus>
<clus scale="   52.196">  2  4  1 -1</clus>
<clus scale="  237.480">  1  6  2 -1</clus>
<clus scale="  237.480">  1  3  2 -1</clus>
</clustering>
</event>
<event>
 6    0  0.5563122E+002  0.9950750E+02  0.7546771E-02  0.1281335E+00
         21   -1    0    0  504  501  0.00000000000E+00  0.00000000000E+00  0.38657040147E+04  0.38657040147E+04  0.00000000000E+00 0. -1.
         21   -1    0    0  506  502 -0.00000000000E+00 -0.00000000000E+00 -0.85191910152E+01  0.85191910152E+01  0.00000000000E+00 0. -1.
         21    1    1    2  503  502  0.86962767233E+02 -0.50480446128E+02  0.38490453397E+03  0.39782194334E+03  0.00000000000E+00 0. -1.
         21    1    1    2  504  505 -0.93435972645E+01  0.39514789301E+02  0.74225672830E+03  0.74336651263E+03  0.00000000000E+00 0. -1.
         21    1    1    2  505  503 -0.83891616216E+02  0.41442720741E+02  0.22909362061E+04  0.22928462667E+04  0.00000000000E+00 0. -1.
         21    1    1    2  506  501  0.62724462470E+01 -0.30477063914E+02  0.43908735534E+03  0.44018848307E+03  0.00000000000E+00 0. -1.
<scales pt_clust_3="99.50750" pt_clust_4="33.86162" pt_clust_5="14000.00000" pt_clust_6="31.11583"></scales>
<clustering>
<clus scale="   31.116">  1  6  2 -1</clus>
<clus scale="   33.862">  1  4  2 -1</clus>
<clus scale="   99.508">  2  3  1 -1</clus>
<clus scale="   31.116">  1  3  2 -1</clus>
</clustering>
</event>
<event>
 6    0  0.5563122E+002  0.1635492E+03  0.7546771E-02  0.1184747E+00
         21   -1    0    0  505  501  0.00000000000E+00  0.00000000000E+00  0.22411077224E+03  0.22411077224E+03  0.00000000000E+00 0.  1.
         21   -1    0    0  506  502 -0.00000000000E+00 -0.00000000000E+00 -0.14859244147E+04  0.14859244147E+04  0.00000000000E+00 0.  1.
         21    1    1    2  503  502  0.43913866750E+02  0.45942970959E+02 -0.45716361678E+02  0.78289015823E+02  0.00000000000E+00 0.  1.
         21    1    1    2  504  501 -0.17088694002E+03  0.78863736992E+01 -0.46815949097E+03  0.49843540217E+03  0.00000000000E+00 0.  1.
         21    1    1    2  505  503  0.15694570954E+03 -0.45188994237E+02  0.15776166370E+03  0.22707431267E+03  0.00000000000E+00 0.  1.
         21    1    1    2  506  504 -0.29972636279E+02 -0.86403504216E+01 -0.90569945356E+03  0.90623645632E+03  0.00000000000E+00 0.  1.
<scales pt_clust_3="60.69593" pt_clust_4="163.54915" pt_clust_5="14000.00000" pt_clust_6="31.19318"></scales>
<clustering>
<clus scale="   31.193">  2  6  1 -1</clus>
<clus scale="   60.696">  2  3  1 -1</clus>
<clus scale="  163.549">  2  4  1 -1</clus>
<clus scale="  163.549">  1  3  2 -1</clus>
</clustering>
</event>
<event>
 6    0  0.5563122E+002  0.8945376E+02  0.7546771E-02  0.1304180E+00
         21   -1    0    0  504  501  0.00000000000E+00  0.00000000000E+00  0.11202471882E+04  0.11202471882E+04  0.00000000000E+00 0.  1.
         21   -1    0    0  505  502 -0.00000000000E+00 -0.00000000000E+00 -0.52691735763E+02  0.52691735763E+02  0.00000000000E+00 0.  1.
         21    1    1    2  503  501 -0.75388200724E+02 -0.82020856773E+02  0.61045714535E+03  0.62053906248E+03  0.00000000000E+00 0.  1.
         21    1    1    2  504  506  0.55571985563E+02  0.51387109276E+02  0.44596403644E+03  0.45234146657E+03  0.00000000000E+00 0.  1.
         21    1    1    2  505  503  0.49121892392E+02  0.10188357100E+02 -0.18668614717E+02  0.53528311275E+02  0.00000000000E+00 0.  1.
         21    1    1    2  506  502 -0.29305677231E+02  0.20445390398E+02  0.29802885333E+02  0.46530083609E+02  0.00000000000E+00 0.  1.
<scales pt_clust_3="89.45376" pt_clust_4="14000.00000" pt_clust_5="36.85362" pt_clust_6="35.73285"></scales>
<clustering>
<clus scale="   35.733">  2  6  1 -1</clus>
<clus scale="   36.854">  2  5  1 -1</clus>
<clus scale="   89.454">  2  3  1 -1</clus>
<clus scale="   89.454">  1  3  2 -1</clus>
</clustering>
</event>
<event>
 6    0  0.5563122E+002  0.1065926E+03  0.7546771E-02  0.1267013E+00
         21   -1    0    0  505  501  0.00000000000E+00  0.00000000000E+00  0.10039241930E+04  0.10039241930E+04  0.00000000000E+00 0.  1.
         21   -1    0    0  503  502 -0.00000000000E+00 -0.00000000000E+00 -0.81704245913E+02  0.81704245913E+02  0.00000000000E+00 0. -1.
         21    1    1    2  503  504 -0.49349079619E+02  0.63749891902E+02 -0.18875978733E+02  0.82799051624E+02  0.00000000000E+00 0. -1.
         21    1    1    2  504  501 -0.22960384094E+02  0.23625276256E+02  0.60762399222E+02  0.69118753426E+02  0.00000000000E+00 0. -1.
         21    1    1    2  505  506 -0.26626877550E+02 -0.12546256772E+03  0.77034015779E+03  0.78094417548E+03  0.00000000000E+00 0.  1.
         21    1    1    2  506  502  0.98936341263E+02  0.38087399565E+02  0.10999336883E+03  0.15276645841E+03  0.00000000000E+00 0. -1.
<scales pt_clust_3="81.73313" pt_clust_4="32.94439" pt_clust_5="106.59263" pt_clust_6="14000.00000"></scales>
<clustering>
<clus scale="   32.944">  1  4  2 -1</clus>
<clus scale="   81.733">  2  3  1 -1</clus>
<clus scale="  106.593">  1  5  2 -1</clus>
<clus scale="   32.944">  1  3  2 -1</clus>
</clustering>
</event>
<event>
 6    0  0.5563122E+002  0.1089553E+03  0.7546771E-02  0.1262517E+00
         21   -1    0    0  506  501  0.00000000000E+00  0.00000000000E+00  0.14409609231E+04  0.14409609231E+04  0.00000000000E+00 0.  1.
         21   -1    0    0  505  502 -0.00000000000E+00 -0.00000000000E+00 -0.20601992048E+03  0.20601992048E+03  0.00000000000E+00 0. -1.
         21    1    1    2  503  502  0.10380491593E+03  0.20452824113E+02  0.33135242710E+03  0.34783359460E+03  0.00000000000E+00 0.  1.
         21    1    1    2  504  501 -0.40640904995E+02  0.17138883574E+02  0.12307782533E+03  0.13074240160E+03  0.00000000000E+00 0.  1.
         21    1    1    2  505  504  0.28142984801E+02 -0.37378013125E+02 -0.18894849051E+03  0.19465527356E+03  0.00000000000E+00 0. -1.
         21    1    1    2  506  503 -0.91306995734E+02 -0.21369456228E+00  0.96945924069E+03  0.97374957381E+03  0.00000000000E+00 0.  1.
<scales pt_clust_3="108.95534" pt_clust_4="44.10697" pt_clust_5="46.70550" pt_clust_6="14000.00000"></scales>
<clustering>
<clus scale="   44.107">  1  4  2 -1</clus>
<clus scale="   46.705">  2  5  1 -1</clus>
<clus scale="  108.955">  2  3  1 -1</clus>
<clus scale="   44.107">  1  3  2 -1</clus>
</clustering>
</event>
<event>
 6    0  0.5563122E+002  0.1267767E+03  0.7546771E-02  0.1232318E+00
         21   -1    0    0  504  501  0.00000000000E+00  0.00000000000E+00  0.69418032241E+03  0.69418032241E+03  0.00000000000E+00 0.  1.
         21   -1    0    0  505  502 -0.00000000000E+00 -0.00000000000E+00 -0.15660754360E+03  0.15660754360E+03  0.00000000000E+00 0.  1.
         21    1    1    2  503  501 -0.20039504324E+02  0.10007565886E+03  0.53031234270E+03  0.54004435008E+03  0.00000000000E+00 0.  1.
         21    1    1    2  504  506  0.25573337518E+02 -0.39734267842E+02  0.50579125436E+02  0.69217451287E+02  0.00000000000E+00 0.  1.
         21    1    1    2  505  503  0.35309218531E+02  0.36641876043E+02 -0.10702924741E+03  0.11851003246E+03  0.00000000000E+00 0.  1.
         21    1    1    2  506  502 -0.40843051725E+02 -0.96983267057E+02  0.63710558084E+02  0.12301603219E+03  0.00000000000E+00 0.  1.
<scales pt_clust_3="105.38313" pt_clust_4="47.22511" pt_clust_5="50.88583" pt_clust_6="47.22511"></scales>
<clustering>
<clus scale="   47.225">  4  6 -1 -1</clus>
<clus scale="   50.886">  2  5  1 -1</clus>
<clus scale="  105.383">  1  3  2 -1</clus>
<clus scale="  105.383">  1  3  2 -1</clus>
</clustering>
</event>
<event>
 6    0  0.5563122E+002  0.2515724E+03  0.7546771E-02  0.1112315E+00
         21   -1    0    0  502  501  0.00000000000E+00  0.00000000000E+00  0.99177302310E+03  0.99177302310E+03  0.00000000000E+00 0.  1.
         21   -1    0    0  506  502 -0.00000000000E+00 -0.00000000000E+00 -0.10285078141E+04  0.10285078141E+04  0.00000000000E+00 0. -1.
         21    1    1    2  503  504 -0.16912343296E+03 -0.67866214485E+02  0.70848456546E+03  0.73154558172E+03  0.00000000000E+00 0.  1.
         21    1    1    2  504  501 -0.37921895119E+02 -0.58787993774E+02  0.21749682350E+03  0.22847093157E+03  0.00000000000E+00 0.  1.
         21    1    1    2  505  503  0.15908215812E+03  0.14891894260E+03 -0.20018558499E+03  0.29590243820E+03  0.00000000000E+00 0.  1.
         21    1    1    2  506  505  0.47963169967E+02 -0.22264734340E+02 -0.76253059495E+03  0.76436188569E+03  0.00000000000E+00 0. -1.
<scales pt_clust_3="45.02654" pt_clust_4="45.02654" pt_clust_5="240.84755" pt_clust_6="52.87896"></scales>
<clustering>
<clus scale="   45.027">  3  4 -1 -1</clus>
<clus scale="   52.879">  2  6  1 -1</clus>
<clus scale="  240.848">  2  5  1 -1</clus>
<clus scale="  251.572">  1  3  2 -1</clus>
</clustering>
</event>
<event>
 6    0  0.5563122E+002  0.6538795E+02  0.7546771E-02  0.1376518E+00
         21   -1    0    0  505  501  0.00000000000E+00  0.00000000000E+00  0.40493437499E+03  0.40493437499E+03  0.00000000000E+00 0. -1.
         21   -1    0    0  506  502 -0.00000000000E+00 -0.00000000000E+00 -0.10953726592E+03  0.10953726592E+03  0.00000000000E+00 0. -1.
         21    1    1    2  503  501  0.33930435028E+02 -0.25671569519E+02  0.27443853704E+03  0.27771714840E+03  0.00000000000E+00 0. -1.
         21    1    1    2  504  502 -0.52464340034E+02 -0.57094785288E+02 -0.32008793154E+02  0.83886139030E+02  0.00000000000E+00 0. -1.
         21    1    1    2  505  504  0.57195482877E+02  0.83700701944E+01  0.10020921583E+02  0.58666857816E+02  0.00000000000E+00 0. -1.
         21    1    1    2  506  503 -0.38661577871E+02  0.74396284613E+02  0.42946443607E+02  0.94201495668E+02  0.00000000000E+00 0. -1.
<scales pt_clust_3="42.54767" pt_clust_4="65.38795" pt_clust_5="14000.00000" pt_clust_6="64.13456"></scales>
<clustering>
<clus scale="   42.548">  1  3  2 -1</clus>
<clus scale="   64.135">  1  6  2 -1</clus>
<clus scale="   65.388">  2  4  1 -1</clus>
<clus scale="   42.548">  1  3  2 -1</clus>
</clustering>
</event>
<event>
 6    0  0.5563122E+002  0.9187738E+02  0.7546771E-02  0.1298368E+00
         21   -1    0    0  504  501  0.00000000000E+00  0.00000000000E+00  0.49075263611E+02  0.49075263611E+02  0.00000000000E+00 0.  1.
         21   -1    0    0  503  502 -0.00000000000E+00 -0.00000000000E+00 -0.15911294061E+04  0.15911294061E+04  0.00000000000E+00 0. -1.
         21    1    1    2  503  501 -0.49159226565E+02  0.96344967291E+01  0.91432836888E+01  0.50922025886E+02  0.00000000000E+00 0.  1.
         21    1    1    2  504  506 -0.35738838088E+02 -0.34894992104E+02 -0.73090362005E+02  0.88527543961E+02  0.00000000000E+00 0.  1.
         21    1    1    2  505  502  0.59085035088E+02  0.75125586604E+02 -0.14065696381E+04  0.14098131230E+04  0.00000000000E+00 0. -1.
         21    1    1    2  506  505  0.25813029565E+02 -0.49865091230E+02 -0.71537426156E+02  0.90941976885E+02  0.00000000000E+00 0.  1.
<scales pt_clust_3="14000.00000" pt_clust_4="49.94922" pt_clust_5="91.87738" pt_clust_6="60.61131"></scales>
<clustering>
<clus scale="   49.949">  1  4  2 -1</clus>
<clus scale="   60.611">  1  6  2 -1</clus>
<clus scale="   91.877">  2  5  1 -1</clus>
<clus scale="   49.949">  1  3  2 -1</clus>
</clustering>
</event>
<event>
 6    0  0.5563122E+002  0.1390853E+03  0.7546771E-02  0.1214565E+00
         21   -1    0    0  506  501  0.00000000000E+00  0.00000000000E+00  0.19700673591E+03  0.19700673591E+03  0.00000000000E+00 0. -1.
         21   -1    0    0  505  502 -0.00000000000E+00 -0.00000000000E+00 -0.46653048008E+03  0.46653048008E+03  0.00000000000E+00 0. -1.
         21    1    1    2  503  501 -0.31481537432E+02  0.40237582001E+02 -0.71960850489E+02  0.88252559212E+02  0.00000000000E+00 0.  1.
         21    1    1    2  504  502  0.27183348453E+02 -0.13772409636E+02 -0.57333252332E+02  0.64928541669E+02  0.00000000000E+00 0. -1.
         21    1    1    2  505  503 -0.58863579106E+02  0.87238722835E+02 -0.29205264836E+03  0.31043560543E+03  0.00000000000E+00 0. -1.
         21    1    1    2  506  504  0.63161768086E+02 -0.11370389520E+03  0.15182300701E+03  0.19992050967E+03  0.00000000000E+00 0. -1.
<scales pt_clust_3="32.84726" pt_clust_4="30.47316" pt_clust_5="32.84726" pt_clust_6="131.57031"></scales>
<clustering>
<clus scale="   30.473">  2  4  1 -1</clus>
<clus scale="   32.847">  3  5 -1 -1</clus>
<clus scale="  131.570">  1  6  2 -1</clus>
<clus scale="  131.570">  1  3  2 -1</clus>
</clustering>
</event>
<event>
 6    0  0.5563122E+002  0.4323128E+03  0.7546771E-02  0.1033132E+00
         21   -1    0    0  503  501  0.00000000000E+00  0.00000000000E+00  0.16226201215E+04  0.16226201215E+04  0.00000000000E+00 0.  1.
         21   -1    0    0  506  502 -0.00000000000E+00 -0.00000000000E+00 -0.22758418530E+04  0.22758418530E+04  0.00000000000E+00 0.  1.
         21    1    1    2  503  505 -0.10419768134E+02 -0.47350482020E+02  0.84481294773E+03  0.84620302313E+03  0.00000000000E+00 0.  1.
         21    1    1    2  504  502 -0.30523430575E+02 -0.76306171802E+02 -0.17105389687E+04  0.17125121532E+04  0.00000000000E+00 0.  1.
         21    1    1    2  505  504 -0.36160029731E+03 -0.16718149041E+03  0.59281420280E+03  0.71423602877E+03  0.00000000000E+00 0.  1.
         21    1    1    2  506  501  0.40254349602E+03  0.29083814423E+03 -0.38030991334E+03  0.62551076930E+03  0.00000000000E+00 0.  1.
<scales pt_clust_3="48.48340" pt_clust_4="82.24535" pt_clust_5="432.31282" pt_clust_6="14000.00000"></scales>
<clustering>
<clus scale="   48.483">  1  3  2 -1</clus>
<clus scale="   82.245">  2  4  1 -1</clus>
<clus scale="  432.313">  1  5  2 -1</clus>
<clus scale="   48.483">  1  3  2 -1</clus>
</clustering>
</event>
<event>
 6    0  0.5563122E+002  0.2272846E+03  0.7546771E-02  0.1128566E+00
         21   -1    0    0  506  501  0.00000000000E+00  0.00000000000E+00  0.49511708620E+03  0.49511708620E+03  0.00000000000E+00 0.  1.
         21   -1    0    0  504  502 -0.00000000000E+00 -0.00000000000E+00 -0.11072688391E+04  0.11072688391E+04  0.00000000000E+00 0.  1.
         21    1    1    2  503  502  0.10719942321E+02 -0.11149141069E+03 -0.94086009792E+03  0.94750354917E+03  0.00000000000E+00 0.  1.
         21    1    1    2  504  505  0.80301837615E+02 -0.15158152646E+03 -0.16593575307E+02  0.17233888427E+03  0.00000000000E+00 0.  1.
         21    1    1    2  505  501  0.52035271643E+02  0.58556805499E+02  0.39229805908E+02  0.87610197105E+02  0.00000000000E+00 0. -1.
         21    1    1    2  506  503 -0.14305705158E+03  0.20451613165E+03  0.30607211440E+03  0.39493329478E+03  0.00000000000E+00 0.  1.
<scales pt_clust_3="111.59628" pt_clust_4="227.28463" pt_clust_5="78.33626" pt_clust_6="14000.00000"></scales>
<clustering>
<clus scale="   78.336">  1  5  2 -1</clus>
<clus scale="  111.596">  2  3  1 -1</clus>
<clus scale="  227.285">  2  4  1 -1</clus>
<clus scale="   78.336">  1  3  2 -1</clus>
</clustering>
</event>
<event>
 6    0  0.5563122E+002  0.1358692E+03  0.7546771E-02  0.1218998E+00
         21   -1    0    0  503  501  0.00000000000E+00  0.00000000000E+00  0.22501089918E+04  0.22501089918E+04  0.00000000000E+00 0.  1.
         21   -1    0    0  505  502 -0.00000000000E+00 -0.00000000000E+00 -0.24434131953E+02  0.24434131953E+02  0.00000000000E+00 0. -1.
         21    1    1    2  503  504  0.83982268583E+02  0.77081323524E+02  0.14120349910E+04  0.14166288743E+04  0.00000000000E+00 0.  1.
         21    1    1    2  504  506 -0.23525648266E+02 -0.46532392802E+02  0.27639340077E+03  0.28126861128E+03  0.00000000000E+00 0.  1.
         21    1    1    2  505  501  0.20272428367E+02  0.74180709574E+02  0.18155953616E+03  0.19717407080E+03  0.00000000000E+00 0.  1.
         21    1    1    2  506  502 -0.80729048685E+02 -0.10472964030E+03  0.35568693198E+03  0.37947156736E+03  0.00000000000E+00 0. -1.
<scales pt_clust_3="123.11635" pt_clust_4="36.08796" pt_clust_5="76.90090" pt_clust_6="36.08796"></scales>
<clustering>
<clus scale="   36.088">  4  6 -1 -1</clus>
<clus scale="   76.901">  2  5  1 -1</clus>
<clus scale="  123.116">  1  3  2 -1</clus>
<clus scale="  123.116">  1  3  2 -1</clus>
</clustering>
</event>
<event>
 6    0  0.5563122E+002  0.9349855E+02  0.7546771E-02  0.1294594E+00
         21   -1    0    0  503  501  0.00000000000E+00  0.00000000000E+00  0.60643104260E+03  0.60643104260E+03  0.00000000000E+00 0.  1.
         21   -1    0    0  504  502 -0.00000000000E+00 -0.00000000000E+00 -0.37905063910E+03  0.37905063910E+03  0.00000000000E+00 0.  1.
         21    1    1    2  503  506  0.30036376470E+02  0.11665565744E+02  0.49002054716E+03  0.49107881850E+03  0.00000000000E+00 0.  1.
         21    1    1    2  504  505  0.49909634811E+02 -0.31562870501E+02 -0.96685680680E+02  0.11329301519E+03  0.00000000000E+00 0.  1.
         21    1    1    2  505  501 -0.11936160978E+03 -0.39126470514E+02  0.63627970986E+02  0.14080693618E+03  0.00000000000E+00 0.  1.
         21    1    1    2  506  502  0.39415598496E+02  0.59023775271E+02 -0.22958243397E+03  0.24030291184E+03  0.00000000000E+00 0.  1.
<scales pt_clust_3="32.22219" pt_clust_4="60.45322" pt_clust_5="14000.00000" pt_clust_6="93.49855"></scales>
<clustering>
<clus scale="   32.222">  1  3  2 -1</clus>
<clus scale="   60.453">  2  4  1 -1</clus>
<clus scale="   93.499">  2  6  1 -1</clus>
<clus scale="   32.222">  1  3  2 -1</clus>
</clustering>
</event>
<event>
 6    0  0.5563122E+002  0.1037381E+03  0.7546771E-02  0.1272626E+00
         21   -1    0    0  505  501  0.00000000000E+00  0.00000000000E+00  0.48491493325E+02  0.48491493325E+02  0.00000000000E+00 0.  1.
         21   -1    0    0  504  502 -0.00000000000E+00 -0.00000000000E+00 -0.31223816811E+04  0.31223816811E+04  0.00000000000E+00 0. -1.
         21    1    1    2  503  502  0.31299956341E+02 -0.37384708543E+01 -0.17072706113E+03  0.17361276690E+03  0.00000000000E+00 0.  1.
         21    1    1    2  504  506 -0.22598564859E+02  0.29009594557E+02 -0.49632434571E+03  0.49768474746E+03  0.00000000000E+00 0. -1.
         21    1    1    2  505  503 -0.86635911742E+02  0.56765714421E+02 -0.14528289291E+02  0.10459062447E+03  0.00000000000E+00 0.  1.
         21    1    1    2  506  501  0.77934520260E+02 -0.82036838124E+02 -0.23923104917E+04  0.23949850356E+04  0.00000000000E+00 0. -1.
<scales pt_clust_3="31.52243" pt_clust_4="33.25043" pt_clust_5="14000.00000" pt_clust_6="103.73813"></scales>
<clustering>
<clus scale="   31.522">  2  3  1 -1</clus>
<clus scale="   33.250">  2  4  1 -1</clus>
<clus scale="  103.738">  2  6  1 -1</clus>
<clus scale="  103.738">  1  3  2 -1</clus>
</clustering>
</event>
<event>
 6    0  0.5563122E+002  0.1898160E+03  0.7546771E-02  0.1158627E+00
         21   -1    0    0  505  501  0.00000000000E+00  0.00000000000E+00  0.37437920774E+03  0.37437920774E+03  0.00000000000E+00 0. -1.
         21   -1    0    0  506  502 -0.00000000000E+00 -0.00000000000E+00 -0.12283659304E+03  0.12283659304E+03  0.00000000000E+00 0. -1.
         21    1    1    2  503  502 -0.57624072821E+02  0.10885559973E+03 -0.19661680801E+02  0.12472632863E+03  0.00000000000E+00 0. -1.
         21    1    1    2  504  501  0.77261177470E+02 -0.12975195192E+03  0.18366039619E+03  0.23777300036E+03  0.00000000000E+00 0. -1.
         21    1    1    2  505  503 -0.53134989066E+02  0.26576205945E+02  0.26928917519E+02  0.65228738944E+02  0.00000000000E+00 0. -1.
         21    1    1    2  506  504  0.33497884417E+02 -0.56798537581E+01  0.60614981793E+02  0.69487732852E+02  0.00000000000E+00 0.  1.
<scales pt_clust_3="51.13469" pt_clust_4="186.38320" pt_clust_5="51.13469" pt_clust_6="30.48038"></scales>
<clustering>
<clus scale="   30.480">  4  6 -1 -1</clus>
<clus scale="   51.135">  3  5 -1 -1</clus>
<clus scale="  186.383">  1  4  2 -1</clus>
<clus scale="  186.383">  1  3  2 -1</clus>
</clustering>
</event>
<event>
 6    0  0.5563122E+002  0.9456499E+02  0.7546771E-02  0.1292159E+00
         21   -1    0    0  504  501  0.00000000000E+00  0.00000000000E+00  0.51411049624E+03  0.51411049624E+03  0.00000000000E+00 0.  1.
         21   -1    0    0  505  502 -0.00000000000E+00 -0.00000000000E+00 -0.11880399966E+03  0.11880399966E+03  0.00000000000E+00 0.  1.
         21    1    1    2  503  501  0.34731617510E+02  0.35220878469E+02  0.18487698301E+03  0.19137997383E+03  0.00000000000E+00 0.  1.
         21    1    1    2  504  502  0.18660254867E+02 -0.37854014574E+02 -0.73029914400E+02  0.84347495092E+02  0.00000000000E+00 0.  1.
         21    1    1    2  505  506  0.82464299853E+01 -0.71820851810E+02  0.17745580164E+02  0.74438860669E+02  0.00000000000E+00 0. -1.
         21    1    1    2  506  503 -0.61638302362E+02  0.74453987916E+02  0.26571384780E+03  0.28274816631E+03  0.00000000000E+00 0.  1.
<scales pt_clust_3="48.45027" pt_clust_4="42.20345" pt_clust_5="94.56499" pt_clust_6="14000.00000"></scales>
<clustering>
<clus scale="   42.203">  2  4  1 -1</clus>
<clus scale="   48.450">  1  3  2 -1</clus>
<clus scale="   94.565">  2  5  1 -1</clus>
<clus scale="   48.450">  1  3  2 -1</clus>
</clustering>
</event>
<event>
 6    0  0.5563122E+002  0.1136218E+03  0.7546771E-02  0.1254006E+00
         21   -1    0    0  506  501  0.00000000000E+00  0.00000000000E+00  0.40233351002E+04  0.40233351002E+04  0.00000000000E+00 0. -1.
         21   -1    0    0  505  502 -0.00000000000E+00 -0.00000000000E+00 -0.40584619092E+02  0.40584619092E+02  0.00000000000E+00 0. -1.
         21    1    1    2  503  501  0.28832548983E+02 -0.57241285316E+02  0.50532854535E+03  0.50937689324E+03  0.00000000000E+00 0. -1.
         21    1    1    2  504  502 -0.97174703733E+01 -0.11324507217E+03  0.57894380896E+02  0.12755639906E+03  0.00000000000E+00 0. -1.
         21    1    1    2  505  503 -0.33098346171E+02  0.58926755129E+02  0.42427383119E+03  0.42962326150E+03  0.00000000000E+00 0.  1.
         21    1    1    2  506  504  0.13983267561E+02  0.11155960236E+03  0.29952537237E+04  0.29973631655E+04  0.00000000000E+00 0. -1.
<scales pt_clust_3="64.09275" pt_clust_4="113.62185" pt_clust_5="59.81210" pt_clust_6="14000.00000"></scales>
<clustering>
<clus scale="   64.093">  1  3  2 -1</clus>
<clus scale="   59.812">  1  5  2 -1</clus>
<clus scale="  113.622">  2  4  1 -1</clus>
<clus scale="   64.093">  1  3  2 -1</clus>
</clustering>
</event>
<event>
 6    0  0.5563122E+002  0.1891446E+03  0.7546771E-02  0.1159235E+00
         21   -1    0    0  503  501  0.00000000000E+00  0.00000000000E+00  0.32576483501E+03  0.32576483501E+03  0.00000000000E+00 0. -1.
         21   -1    0    0  506  502 -0.00000000000E+00 -0.00000000000E+00 -0.32451370932E+03  0.32451370932E+03  0.00000000000E+00 0.  1.
         21    1    1    2  503  504  0.44844350952E+02 -0.18337683265E+02  0.36650973433E+02  0.60750146448E+02  0.00000000000E+00 0. -1.
         21    1    1    2  504  505  0.17031617088E+03  0.71328215900E+02  0.72722243729E+02  0.19845361468E+03  0.00000000000E+00 0. -1.
         21    1    1    2  505  502 -0.15363963804E+03  0.74257467562E+02 -0.16625818209E+03  0.23824586666E+03  0.00000000000E+00 0.  1.
         21    1    1    2  506  501 -0.61520883793E+02 -0.12724800020E+03  0.58136090626E+02  0.15282891654E+03  0.00000000000E+00 0. -1.
<scales pt_clust_3="40.07892" pt_clust_4="40.07892" pt_clust_5="172.20230" pt_clust_6="141.33957"></scales>
<clustering>
<clus scale="   40.079">  3  4 -1 -1</clus>
<clus scale="  141.340">  1  6  2 -1</clus>
<clus scale="  172.202">  2  5  1 -1</clus>
<clus scale="  141.340">  1  3  2 -1</clus>
</clustering>
</event>
<event>
 6    0  0.5563122E+002  0.1306703E+03  0.7546771E-02  0.1226464E+00
         21   -1    0    0  505  501  0.00000000000E+00  0.00000000000E+00  0.11118570840E+04  0.11118570840E+04  0.00000000000E+00 0. -1.
         21   -1    0    0  503  502 -0.00000000000E+00 -0.00000000000E+00 -0.20673928730E+02  0.20673928730E+02  0.00000000000E+00 0. -1.
         21    1    1    2  503  501 -0.11575035360E+03 -0.38597614638E+02  0.63446709106E+03  0.64609318976E+03  0.00000000000E+00 0. -1.
         21    1    1    2  504  506  0.32526324532E+02 -0.21411227118E+02  0.90166562593E+02  0.98216146555E+02  0.00000000000E+00 0. -1.
         21    1    1    2  505  504  0.84318890823E+02  0.24807812047E+02  0.30386768549E+03  0.31632368418E+03  0.00000000000E+00 0. -1.
         21    1    1    2  506  502 -0.10948617503E+01  0.35201029709E+02  0.62681816141E+02  0.71897992250E+02  0.00000000000E+00 0. -1.
<scales pt_clust_3="118.99075" pt_clust_4="33.07518" pt_clust_5="33.07518" pt_clust_6="35.21805"></scales>
<clustering>
<clus scale="   35.218">  2  6  1 -1</clus>
<clus scale="   33.075">  4  5 -1 -1</clus>
<clus scale="  118.991">  1  3  2 -1</clus>
<clus scale="  118.991">  1  3  2 -1</clus>
</clustering>
</event>
<event>
 6    0  0.5563122E+002  0.1429526E+03  0.7546771E-02  0.1209410E+00
         21   -1    0    0  505  501  0.00000000000E+00  0.00000000000E+00  0.11866375403E+03  0.11866375403E+03  0.00000000000E+00 0. -1.
         21   -1    0    0  503  502 -0.00000000000E+00 -0.00000000000E+00 -0.67436795939E+03  0.67436795939E+03  0.00000000000E+00 0.  1.
         21    1    1    2  503  504  0.58849965605E+02  0.16404346567E+02 -0.39769998121E+03  0.40236512783E+03  0.00000000000E+00 0.  1.
         21    1    1    2  504  501 -0.10929056878E+02  0.12900735406E+03  0.38929997274E+02  0.13519573356E+03  0.00000000000E+00 0. -1.
         21    1    1    2  505  506 -0.15400560785E+02 -0.35991515639E+02 -0.93754067561E+02  0.10159917153E+03  0.00000000000E+00 0.  1.
         21    1    1    2  506  502 -0.32520347941E+02 -0.10942018498E+03 -0.10318015386E+03  0.15387168051E+03  0.00000000000E+00 0.  1.
<scales pt_clust_3="61.09354" pt_clust_4="131.88692" pt_clust_5="32.29572" pt_clust_6="32.29572"></scales>
<clustering>
<clus scale="   32.296">  5  6 -1 -1</clus>
<clus scale="   61.094">  2  3  1 -1</clus>
<clus scale="  131.887">  1  4  2 -1</clus>
<clus scale="  131.887">  1  3  2 -1</clus>
</clustering>
</event>
<event>
 6    0  0.5563122E+002  0.6897928E+02  0.7546771E-02  0.1363599E+00
         21   -1    0    0  505  501  0.00000000000E+00  0.00000000000E+00  0.14107064333E+03  0.14107064333E+03  0.00000000000E+00 0. -1.
         21   -1    0    0  501  502 -0.00000000000E+00 -0.00000000000E+00 -0.10539507347E+04  0.10539507347E+04  0.00000000000E+00 0.  1.
         21    1    1    2  503  502 -0.44152579204E+02  0.38529665638E+02 -0.89652579902E+03  0.89843892040E+03  0.00000000000E+00 0.  1.
         21    1    1    2  504  506 -0.41532106441E+02 -0.93757731892E+01  0.27022167647E+02  0.50428350485E+02  0.00000000000E+00 0. -1.
         21    1    1    2  505  504 -0.31532783349E+02  0.60969251387E+01  0.71440876914E+02  0.78328078082E+02  0.00000000000E+00 0. -1.
         21    1    1    2  506  503  0.11721746899E+03 -0.35250817587E+02 -0.11481733695E+03  0.16782602910E+03  0.00000000000E+00 0. -1.
<scales pt_clust_3="59.00199" pt_clust_4="68.97928" pt_clust_5="32.11680" pt_clust_6="14000.00000"></scales>
<clustering>
<clus scale="   32.117">  1  5  2 -1</clus>
<clus scale="   59.002">  2  3  1 -1</clus>
<clus scale="   68.979">  1  4  2 -1</clus>
<clus scale="   32.117">  1  3  2 -1</clus>
</clustering>
</event>
<event>
 6    0  0.5563122E+002  0.1164798E+03  0.7546771E-02  0.1249020E+00
         21   -1    0    0  503  501  0.00000000000E+00  0.00000000000E+00  0.57133035958E+03  0.57133035958E+03  0.00000000000E+00 0.  1.
         21   -1    0    0  506  502 -0.00000000000E+00 -0.00000000000E+00 -0.20966849916E+03  0.20966849916E+03  0.00000000000E+00 0. -1.
         21    1    1    2  503  502 -0.25067074138E+02  0.61860258116E+02 -0.10392770317E+03  0.12351525099E+03  0.00000000000E+00 0. -1.
         21    1    1    2  504  501  0.35108566961E+02 -0.11420141860E+03  0.51656058065E+03  0.53019751882E+03  0.00000000000E+00 0.  1.
         21    1    1    2  505  504 -0.54766434120E+02  0.41047721109E+02 -0.18573848481E+02  0.70917314965E+02  0.00000000000E+00 0. -1.
         21    1    1    2  506  505  0.44724941297E+02  0.11293439376E+02 -0.32397168569E+02  0.56368773964E+02  0.00000000000E+00 0. -1.
<scales pt_clust_3="14000.00000" pt_clust_4="116.47979" pt_clust_5="61.35971" pt_clust_6="46.12876"></scales>
<clustering>
<clus scale="   46.129">  2  6  1 -1</clus>
<clus scale="   61.360">  2  5  1 -1</clus>
<clus scale="  116.480">  1  4  2 -1</clus>
<clus scale="  116.480">  1  3  2 -1</clus>
</clustering>
</event>
<event>
 6    0  0.5563122E+002  0.9086996E+02  0.7546771E-02  0.1300759E+00
         21   -1    0    0  506  501  0.00000000000E+00  0.00000000000E+00  0.36640890913E+02  0.36640890913E+02  0.00000000000E+00 0.  1.
         21   -1    0    0  504  502 -0.00000000000E+00 -0.00000000000E+00 -0.68796926495E+03  0.68796926495E+03  0.00000000000E+00 0.  1.
         21    1    1    2  503  501  0.36896213333E+02  0.11685754334E+03 -0.21006688611E+03  0.24319768221E+03  0.00000000000E+00 0.  1.
         21    1    1    2  504  503  0.35381818079E+02 -0.14124697402E+02 -0.79557284022E+02  0.88208511881E+02  0.00000000000E+00 0.  1.
         21    1    1    2  505  502 -0.47293000333E+02 -0.63984750435E+02 -0.32405442770E+03  0.33367940943E+03  0.00000000000E+00 0.  1.
         21    1    1    2  506  505 -0.24985031078E+02 -0.38748095500E+02 -0.37649776215E+02  0.59524552345E+02  0.00000000000E+00 0. -1.
<scales pt_clust_3="90.86996" pt_clust_4="38.09698" pt_clust_5="14000.00000" pt_clust_6="45.61680"></scales>
<clustering>
<clus scale="   38.097">  2  4  1 -1</clus>
<clus scale="   45.617">  1  6  2 -1</clus>
<clus scale="   90.870">  1  3  2 -1</clus>
<clus scale="   45.617">  1  3  2 -1</clus>
</clustering>
</event>
<event>
 6    0  0.5563122E+002  0.1417114E+03  0.7546771E-02  0.1211044E+00
         21   -1    0    0  506  501  0.00000000000E+00  0.00000000000E+00  0.13197432405E+04  0.13197432405E+04  0.00000000000E+00 0. -1.
         21   -1    0    0  505  502 -0.00000000000E+00 -0.00000000000E+00 -0.30549500124E+02  0.30549500124E+02  0.00000000000E+00 0. -1.
         21    1    1    2  503  501 -0.10428089289E+03  0.38842897652E+02  0.38823331806E+03  0.40386679063E+03  0.00000000000E+00 0. -1.
         21    1    1    2  504  502  0.94747643631E+02 -0.28812680061E+02  0.43153314929E+03  0.44275065832E+03  0.00000000000E+00 0. -1.
         21    1    1    2  505  503 -0.37844478658E+02  0.76248730233E+01  0.79228914496E+01  0.39409585920E+02  0.00000000000E+00 0. -1.
         21    1    1    2  506  504  0.47377727921E+02 -0.17655090615E+02  0.46150438157E+03  0.46426570575E+03  0.00000000000E+00 0. -1.
<scales pt_clust_3="131.44716" pt_clust_4="37.83465" pt_clust_5="38.60496" pt_clust_6="37.83465"></scales>
<clustering>
<clus scale="   37.835">  4  6 -1 -1</clus>
<clus scale="   38.605">  2  5  1 -1</clus>
<clus scale="  131.447">  2  3  1 -1</clus>
<clus scale="  141.711">  1  3  2 -1</clus>
</clustering>
</event>
<event>
 6    0  0.5563122E+002  0.1247945E+03  0.7546771E-02  0.1235391E+00
         21   -1    0    0  506  501  0.00000000000E+00  0.00000000000E+00  0.11082023792E+03  0.11082023792E+03  0.00000000000E+00 0. -1.
         21   -1    0    0  505  502 -0.00000000000E+00 -0.00000000000E+00 -0.43059838042E+03  0.43059838042E+03  0.00000000000E+00 0. -1.
         21    1    1    2  503  502  0.33191673133E+02  0.29897619847E+02 -0.82592141322E+02  0.93898970420E+02  0.00000000000E+00 0. -1.
         21    1    1    2  504  503 -0.81261807459E+01 -0.75671586630E+02 -0.10242678354E+03  0.12760669976E+03  0.00000000000E+00 0. -1.
         21    1    1    2  505  501 -0.14916048329E+02  0.15872823545E+03 -0.13116030104E+03  0.20644652042E+03  0.00000000000E+00 0. -1.
         21    1    1    2  506  504 -0.10149444058E+02 -0.11295426866E+03 -0.35989165919E+01  0.11346642774E+03  0.00000000000E+00 0. -1.
<scales pt_clust_3="44.67163" pt_clust_4="65.69687" pt_clust_5="124.79452" pt_clust_6="14000.00000"></scales>
<clustering>
<clus scale="   44.672">  2  3  1 -1</clus>
<clus scale="   65.697">  2  4  1 -1</clus>
<clus scale="  124.795">  2  5  1 -1</clus>
<clus scale="  124.795">  1  3  2 -1</clus>
</clustering>
</event>
<event>
 6    0  0.5563122E+002  0.1438813E+03  0.7546771E-02  0.1208200E+00
         21   -1    0    0  504  501  0.00000000000E+00  0.00000000000E+00  0.63535319598E+03  0.63535319598E+03  0.00000000000E+00 0.  1.
         21   -1    0    0  503  502 -0.00000000000E+00 -0.00000000000E+00 -0.74551191580E+03  0.74551191580E+03  0.00000000000E+00 0. -1.
         21    1    1    2  503  501  0.39448752326E+02  0.75777201773E+02  0.56922120925E+03  0.57559636329E+03  0.00000000000E+00 0.  1.
         21    1    1    2  504  506 -0.80098769628E+02 -0.14524850151E+03 -0.83822735507E+02  0.18584722509E+03  0.00000000000E+00 0. -1.
         21    1    1    2  505  502  0.72484521867E+02  0.91390010075E+02 -0.53509502361E+03  0.54766123119E+03  0.00000000000E+00 0. -1.
         21    1    1    2  506  505 -0.31834504565E+02 -0.21918710338E+02 -0.60462169948E+02  0.71760292214E+02  0.00000000000E+00 0.  1.
<scales pt_clust_3="85.43061" pt_clust_4="34.36995" pt_clust_5="125.02910" pt_clust_6="34.36995"></scales>
<clustering>
<clus scale="   34.370">  4  6 -1 -1</clus>
<clus scale="   85.431">  1  3  2 -1</clus>
<clus scale="  125.029">  2  5  1 -1</clus>
<clus scale="   85.431">  1  3  2 -1</clus>
</clustering>
</event>
<event>
 6    0  0.5563122E+002  0.1348409E+03  0.7546771E-02  0.1220444E+00
         21   -1    0    0  503  501  0.00000000000E+00  0.00000000000E+00  0.11520140526E+03  0.11520140526E+03  0.00000000000E+00 0.  1.
         21   -1    0    0  505  502 -0.00000000000E+00 -0.00000000000E+00 -0.58549133923E+03  0.58549133923E+03  0.00000000000E+00 0.  1.
         21    1    1    2  503  504 -0.45223348483E+02 -0.69655395753E+01  0.54617037917E+02  0.71250900489E+02  0.00000000000E+00 0.  1.
         21    1    1    2  504  506  0.74984532601E+01  0.14794109564E+03 -0.11163134085E+03  0.18548409862E+03  0.00000000000E+00 0.  1.
         21    1    1    2  505  501  0.88382541706E+01 -0.10982321164E+03 -0.35590797377E+03  0.37257178951E+03  0.00000000000E+00 0.  1.
         21    1    1    2  506  502  0.28886641053E+02 -0.31152344423E+02 -0.57367657274E+02  0.71385955869E+02  0.00000000000E+00 0.  1.
<scales pt_clust_3="45.38015" pt_clust_4="134.84094" pt_clust_5="14000.00000" pt_clust_6="42.48419"></scales>
<clustering>
<clus scale="   42.484">  2  6  1 -1</clus>
<clus scale="   45.380">  1  3  2 -1</clus>
<clus scale="  134.841">  1  4  2 -1</clus>
<clus scale="   45.380">  1  3  2 -1</clus>
</clustering>
</event>
<event>
 6    0  0.5563122E+002  0.1229573E+03  0.7546771E-02  0.1238297E+00
         21   -1    0    0  506  501  0.00000000000E+00  0.00000000000E+00  0.13937423088E+03  0.13937423088E+03  0.00000000000E+00 0. -1.
         21   -1    0    0  505  502 -0.00000000000E+00 -0.00000000000E+00 -0.54942650338E+03  0.54942650338E+03  0.00000000000E+00 0. -1.
         21    1    1    2  503  502  0.96641552014E+02 -0.18758009945E+02 -0.34444361517E+03  0.35823575554E+03  0.00000000000E+00 0. -1.
         21    1    1    2  504  501 -0.44173724739E+02 -0.32531024007E+02 -0.36903747214E+02  0.66117108517E+02  0.00000000000E+00 0. -1.
         21    1    1    2  505  504  0.15407216726E+02 -0.53686216833E+02 -0.10433378733E+03  0.11834327773E+03  0.00000000000E+00 0. -1.
         21    1    1    2  506  503 -0.67875044001E+02  0.10497525079E+03  0.75628877209E+02  0.14610459248E+03  0.00000000000E+00 0. -1.
<scales pt_clust_3="14000.00000" pt_clust_4="54.85969" pt_clust_5="56.99789" pt_clust_6="122.95729"></scales>
<clustering>
<clus scale="   54.860">  1  4  2 -1</clus>
<clus scale="   56.998">  2  5  1 -1</clus>
<clus scale="  122.957">  1  6  2 -1</clus>
<clus scale="   54.860">  1  3  2 -1</clus>
</clustering>
</event>
<event>
 6    0  0.5563122E+002  0.1415629E+03  0.7546771E-02  0.1211241E+00
         21   -1    0    0  504  501  0.00000000000E+00  0.00000000000E+00  0.17786706684E+04  0.17786706684E+04  0.00000000000E+00 0. -1.
         21   -1    0    0  505  502 -0.00000000000E+00 -0.00000000000E+00 -0.72554320297E+02  0.72554320297E+02  0.00000000000E+00 0. -1.
         21    1    1    2  503  501  0.62131657399E+02  0.13131989288E+02  0.15016953709E+03  0.16304503017E+03  0.00000000000E+00 0. -1.
         21    1    1    2  504  506 -0.11723880092E+03 -0.72506618739E+02  0.15601933931E+04  0.15662712313E+04  0.00000000000E+00 0. -1.
         21    1    1    2  505  503  0.44485830904E+02  0.96082946817E+01  0.35189614138E+02  0.57529274470E+02  0.00000000000E+00 0.  1.
         21    1    1    2  506  502  0.10621312615E+02  0.49766334770E+02 -0.39436196240E+02  0.64379452716E+02  0.00000000000E+00 0. -1.
<scales pt_clust_3="41.56447" pt_clust_4="132.77596" pt_clust_5="41.56447" pt_clust_6="50.88713"></scales>
<clustering>
<clus scale="   41.564">  3  5 -1 -1</clus>
<clus scale="   50.887">  2  6  1 -1</clus>
<clus scale="  132.776">  1  4  2 -1</clus>
<clus scale="  132.776">  1  3  2 -1</clus>
</clustering>
</event>
<event>
 6    0  0.5563122E+002  0.1741901E+03  0.7546771E-02  0.1173547E+00
         21   -1    0    0  503  501  0.00000000000E+00  0.00000000000E+00  0.11884092481E+04  0.11884092481E+04  0.00000000000E+00 0.  1.
         21   -1    0    0  501  502 -0.00000000000E+00 -0.00000000000E+00 -0.12236850950E+03  0.12236850950E+03  0.00000000000E+00 0.  1.
         21    1    1    2  503  504 -0.13378852692E+03  0.39150311391E+02  0.45414617189E+03  0.47505879874E+03  0.00000000000E+00 0.  1.
         21    1    1    2  504  506  0.33426995099E+02 -0.31457943519E+02  0.20015807457E+03  0.20535389217E+03  0.00000000000E+00 0.  1.
         21    1    1    2  505  502 -0.55865951074E+02 -0.12259013777E+01 -0.89385878026E+02  0.10541509623E+03  0.00000000000E+00 0.  1.
         21    1    1    2  506  505  0.15622748290E+03 -0.64664664943E+01  0.50112237012E+03  0.52494997041E+03  0.00000000000E+00 0.  1.
<scales pt_clust_3="161.86348" pt_clust_4="34.87187" pt_clust_5="55.87940" pt_clust_6="34.87187"></scales>
<clustering>
<clus scale="   34.872">  4  6 -1 -1</clus>
<clus scale="   55.879">  2  5  1 -1</clus>
<clus scale="  161.863">  1  3  2 -1</clus>
<clus scale="  161.863">  1  3  2 -1</clus>
</clustering>
</event>
<event>
 6    0  0.5563122E+002  0.1268249E+03  0.7546771E-02  0.1232245E+00
         21   -1    0    0  506  501  0.00000000000E+00  0.00000000000E+00  0.13622859983E+04  0.13622859983E+04  0.00000000000E+00 0. -1.
         21   -1    0    0  505  502 -0.00000000000E+00 -0.00000000000E+00 -0.20562393657E+02  0.20562393657E+02  0.00000000000E+00 0. -1.
         21    1    1    2  503  504  0.71858767870E+02  0.35782966333E+01  0.21072708460E+03  0.22267103743E+03  0.00000000000E+00 0. -1.
         21    1    1    2  504  501  0.57600604060E+02  0.33605004402E+02  0.13974778322E+03  0.15484369159E+03  0.00000000000E+00 0. -1.
         21    1    1    2  505  503 -0.31923031629E+02  0.28859657546E+02  0.15626926399E+03  0.16208652828E+03  0.00000000000E+00 0.  1.
         21    1    1    2  506  502 -0.97536340301E+02 -0.66042958581E+02  0.83497947279E+03  0.84324713461E+03  0.00000000000E+00 0. -1.
<scales pt_clust_3="37.81039" pt_clust_4="37.81039" pt_clust_5="43.03440" pt_clust_6="120.59079"></scales>
<clustering>
<clus scale="   37.810">  3  4 -1 -1</clus>
<clus scale="   43.034">  2  5  1 -1</clus>
<clus scale="  120.591">  1  6  2 -1</clus>
<clus scale="  120.591">  1  3  2 -1</clus>
</clustering>
</event>
<event>
 6    0  0.5563122E+002  0.1562464E+03  0.7546771E-02  0.1193001E+00
         21   -1    0    0  503  501  0.00000000000E+00  0.00000000000E+00  0.12798911379E+03  0.12798911379E+03  0.00000000000E+00 0. -1.
         21   -1    0    0  501  502 -0.00000000000E+00 -0.00000000000E+00 -0.32343045735E+03  0.32343045735E+03  0.00000000000E+00 0. -1.
         21    1    1    2  503  506 -0.60652231629E+02  0.15562428448E+03 -0.31358571311E+01  0.16705521458E+03  0.00000000000E+00 0. -1.
         21    1    1    2  504  502  0.47469310242E+02 -0.26013906991E+02 -0.11473429493E+03  0.12686219770E+03  0.00000000000E+00 0. -1.
         21    1    1    2  505  504 -0.11998235434E+02 -0.82640977208E+02 -0.42461143709E+02  0.93682642429E+02  0.00000000000E+00 0. -1.
         21    1    1    2  506  505  0.25181156821E+02 -0.46969400276E+02 -0.35110047788E+02  0.63819516426E+02  0.00000000000E+00 0.  1.
<scales pt_clust_3="150.31940" pt_clust_4="54.13002" pt_clust_5="34.05280" pt_clust_6="34.05280"></scales>
<clustering>
<clus scale="   34.053">  5  6 -1 -1</clus>
<clus scale="   54.130">  2  4  1 -1</clus>
<clus scale="  150.319">  1  3  2 -1</clus>
<clus scale="  150.319">  1  3  2 -1</clus>
</clustering>
</event>
<event>
 6    0  0.5563122E+002  0.1985719E+03  0.7546771E-02  0.1150949E+00
         21   -1    0    0  505  501  0.00000000000E+00  0.00000000000E+00  0.16822564756E+03  0.16822564756E+03  0.00000000000E+00 0.  1.
         21   -1    0    0  503  502 -0.00000000000E+00 -0.00000000000E+00 -0.17402538025E+04  0.17402538025E+04  0.00000000000E+00 0.  1.
         21    1    1    2  503  504  0.78929772818E+02  0.43151011660E+01 -0.13526848634E+04  0.13549925715E+04  0.00000000000E+00 0.  1.
         21    1    1    2  504  501 -0.10308542464E+03 -0.17921693970E+03 -0.13819032297E+03  0.24868027989E+03  0.00000000000E+00 0.  1.
         21    1    1    2  505  506 -0.59609765376E+01  0.20477810496E+03  0.91148658139E+01  0.20506751642E+03  0.00000000000E+00 0.  1.
         21    1    1    2  506  502  0.30116628357E+02 -0.29876266432E+02 -0.90267834334E+02  0.99739082184E+02  0.00000000000E+00 0.  1.
<scales pt_clust_3="105.67421" pt_clust_4="198.57192" pt_clust_5="14000.00000" pt_clust_6="42.42172"></scales>
<clustering>
<clus scale="   42.422">  2  6  1 -1</clus>
<clus scale="  105.674">  2  3  1 -1</clus>
<clus scale="  198.572">  2  4  1 -1</clus>
<clus scale="  198.572">  1  3  2 -1</clus>
</clustering>
</event>
<event>
 6    0  0.5563122E+002  0.1005741E+03  0.7546771E-02  0.1279093E+00
         21   -1    0    0  505  501  0.00000000000E+00  0.00000000000E+00  0.17746858573E+03  0.17746858573E+03  0.00000000000E+00 0.  1.
         21   -1    0    0  504  502 -0.00000000000E+00 -0.00000000000E+00 -0.11709590401E+03  0.11709590401E+03  0.00000000000E+00 0.  1.
         21    1    1    2  503  506 -0.21587073536E+02  0.44364834277E+02  0.49056396734E+02  0.69575644624E+02  0.00000000000E+00 0. -1.
         21    1    1    2  504  503 -0.14379498387E+02  0.52758764242E+02 -0.79006558889E+01  0.55251041091E+02  0.00000000000E+00 0.  1.
         21    1    1    2  505  502  0.70746499806E+02 -0.10920589808E+03  0.48325173212E+01  0.13020886542E+03  0.00000000000E+00 0.  1.
         21    1    1    2  506  501 -0.34779927883E+02  0.12082299564E+02  0.14384423550E+02  0.39528938604E+02  0.00000000000E+00 0.  1.
<scales pt_clust_3="33.63023" pt_clust_4="54.68324" pt_clust_5="92.73401" pt_clust_6="33.63023"></scales>
<clustering>
<clus scale="   33.630">  3  6 -1 -1</clus>
<clus scale="   54.683">  2  4  1 -1</clus>
<clus scale="   92.734">  2  5  1 -1</clus>
<clus scale="  100.574">  1  3  2 -1</clus>
</clustering>
</event>
<event>
 6    0  0.5563122E+002  0.1558616E+03  0.7546771E-02  0.1193450E+00
         21   -1    0    0  504  501  0.00000000000E+00  0.00000000000E+00  0.20047680509E+03  0.20047680509E+03  0.00000000000E+00 0.  1.
         21   -1    0    0  503  502 -0.00000000000E+00 -0.00000000000E+00 -0.41963898753E+03  0.41963898753E+03  0.00000000000E+00 0. -1.
         21    1    1    2  503  505 -0.87883299297E+02 -0.79531401627E+02 -0.22778023036E+03  0.25677334652E+03  0.00000000000E+00 0. -1.
         21    1    1    2  504  502  0.38447293308E+02 -0.77527730018E+02 -0.91427756398E+02  0.12588795782E+03  0.00000000000E+00 0.  1.
         21    1    1    2  505  506  0.30016969094E+02  0.18156947412E+03  0.83789395703E+02  0.20221067034E+03  0.00000000000E+00 0.  1.
         21    1    1    2  506  501  0.19419036895E+02 -0.24510342479E+02  0.16256408607E+02  0.35243817943E+02  0.00000000000E+00 0.  1.
<scales pt_clust_3="14000.00000" pt_clust_4="89.55597" pt_clust_5="155.86158" pt_clust_6="31.27069"></scales>
<clustering>
<clus scale="   31.271">  1  6  2 -1</clus>
<clus scale="   89.556">  2  4  1 -1</clus>
<clus scale="  155.862">  1  5  2 -1</clus>
<clus scale="   31.271">  1  3  2 -1</clus>
</clustering>
</event>
<event>
 6    0  0.5563122E+002  0.1749586E+03  0.7546771E-02  0.1172773E+00
         21   -1    0    0  503  501  0.00000000000E+00  0.00000000000E+00  0.53848624385E+03  0.53848624385E+03  0.00000000000E+00 0.  1.
         21   -1    0    0  504  502 -0.00000000000E+00 -0.00000000000E+00 -0.54026623241E+03  0.54026623241E+03  0.00000000000E+00 0. -1.
         21    1    1    2  503  502 -0.19600094532E+03  0.30261255499E+02  0.14270049385E+03  0.24432671793E+03  0.00000000000E+00 0.  1.
         21    1    1    2  504  506  0.26308741050E+02 -0.53738075357E+02 -0.45523729389E+03  0.45915239773E+03  0.00000000000E+00 0. -1.
         21    1    1    2  505  501  0.11994000533E+02  0.27526077641E+02  0.13841880904E+03  0.14163794582E+03  0.00000000000E+00 0.  1.
         21    1    1    2  506  505  0.15769820374E+03 -0.40492577837E+01  0.17233800244E+03  0.23363541477E+03  0.00000000000E+00 0. -1.
<scales pt_clust_3="174.95864" pt_clust_4="59.73708" pt_clust_5="30.02567" pt_clust_6="14000.00000"></scales>
<clustering>
<clus scale="   30.026">  1  5  2 -1</clus>
<clus scale="   59.737">  2  4  1 -1</clus>
<clus scale="  174.959">  2  3  1 -1</clus>
<clus scale="   30.026">  1  3  2 -1</clus>
</clustering>
</event>
<event>
 6    0  0.5563122E+002  0.3446103E+03  0.7546771E-02  0.1064849E+00
         21   -1    0    0  506  501  0.00000000000E+00  0.00000000000E+00  0.15429519968E+04  0.15429519968E+04  0.00000000000E+00 0.  1.
         21   -1    0    0  503  502 -0.00000000000E+00 -0.00000000000E+00 -0.56531691479E+03  0.56531691479E+03  0.00000000000E+00 0.  1.
         21    1    1    2  503  504 -0.31335094531E+02 -0.78680000097E+02  0.43077967641E+02  0.95016534670E+02  0.00000000000E+00 0. -1.
         21    1    1    2  504  501  0.51477925084E+03 -0.14718384508E+03  0.86558544834E+03  0.10177912014E+04  0.00000000000E+00 0.  1.
         21    1    1    2  505  502 -0.21868577983E+03  0.27727850922E+03 -0.34999186493E+03  0.49719326976E+03  0.00000000000E+00 0.  1.
         21    1    1    2  506  505 -0.26475837648E+03 -0.51414664046E+02  0.41896353091E+03  0.49826790568E+03  0.00000000000E+00 0.  1.
<scales pt_clust_3="84.69020" pt_clust_4="344.61026" pt_clust_5="14000.00000" pt_clust_6="273.11884"></scales>
<clustering>
<clus scale="   84.690">  2  3  1 -1</clus>
<clus scale="  273.119">  1  6  2 -1</clus>
<clus scale="  344.610">  1  4  2 -1</clus>
<clus scale="  273.119">  1  3  2 -1</clus>
</clustering>
</event>
<event>
 6    0  0.5563122E+002  0.9618120E+02  0.7546771E-02  0.1288538E+00
         21   -1    0    0  504  501  0.00000000000E+00  0.00000000000E+00  0.64796279869E+02  0.64796279869E+02  0.00000000000E+00 0.  1.
         21   -1    0    0  506  502 -0.00000000000E+00 -0.00000000000E+00 -0.14475708346E+04  0.14475708346E+04  0.00000000000E+00 0.  1.
         21    1    1    2  503  502 -0.81779356894E+02 -0.25332243224E+01 -0.11923975660E+04  0.11952013369E+04  0.00000000000E+00 0.  1.
         21    1    1    2  504  505 -0.11418686047E+02 -0.30183675999E+02 -0.82212786692E+01  0.33302103700E+02  0.00000000000E+00 0.  1.
         21    1    1    2  505  503  0.11034521024E+03 -0.57447896082E+02 -0.88044733962E+02  0.15240800952E+03  0.00000000000E+00 0.  1.
         21    1    1    2  506  501 -0.17147167303E+02  0.90164796403E+02 -0.94110976136E+02  0.13145566434E+03  0.00000000000E+00 0.  1.
<scales pt_clust_3="82.15373" pt_clust_4="32.27136" pt_clust_5="96.18120" pt_clust_6="14000.00000"></scales>
<clustering>
<clus scale="   32.271">  1  4  2 -1</clus>
<clus scale="   82.154">  2  3  1 -1</clus>
<clus scale="   96.181">  2  5  1 -1</clus>
<clus scale="   32.271">  1  3  2 -1</clus>
</clustering>
</event>
<event>
 6    0  0.5563122E+002  0.1042222E+03  0.7546771E-02  0.1271660E+00
         21   -1    0    0  504  501  0.00000000000E+00  0.00000000000E+00  0.24618668629E+03  0.24618668629E+03  0.00000000000E+00 0.  1.
         21   -1    0    0  503  502 -0.00000000000E+00 -0.00000000000E+00 -0.81203018804E+03  0.81203018804E+03  0.00000000000E+00 0.  1.
         21    1    1    2  503  506  0.62127343116E+02  0.83135814148E+02 -0.68813457380E+03  0.69591706547E+03  0.00000000000E+00 0.  1.
         21    1    1    2  504  502  0.64745290597E+02  0.14880270107E+01 -0.34323252852E+02  0.73295651748E+02  0.00000000000E+00 0. -1.
         21    1    1    2  505  501 -0.10277561514E+03  0.40128996791E+02  0.10353743929E+03  0.15130487364E+03  0.00000000000E+00 0.  1.
         21    1    1    2  506  505 -0.24097018569E+02 -0.12475283795E+03  0.53076885612E+02  0.13769928346E+03  0.00000000000E+00 0.  1.
<scales pt_clust_3="14000.00000" pt_clust_4="64.76239" pt_clust_5="78.00668" pt_clust_6="104.22216"></scales>
<clustering>
<clus scale="   64.762">  1  4  2 -1</clus>
<clus scale="   78.007">  1  5  2 -1</clus>
<clus scale="  104.222">  1  6  2 -1</clus>
<clus scale="   64.762">  1  3  2 -1</clus>
</clustering>
</event>
<event>
 6    0  0.5563122E+002  0.1219186E+03  0.7546771E-02  0.1239965E+00
         21   -1    0    0  503  501  0.00000000000E+00  0.00000000000E+00  0.19294365297E+04  0.19294365297E+04  0.00000000000E+00 0. -1.
         21   -1    0    0  506  502 -0.00000000000E+00 -0.00000000000E+00 -0.33452071899E+03  0.33452071899E+03  0.00000000000E+00 0.  1.
         21    1    1    2  503  504  0.14329732876E+03  0.35064443248E+02 -0.18147092783E+03  0.23387034284E+03  0.00000000000E+00 0.  1.
         21    1    1    2  504  505 -0.55700154271E+02 -0.24949500079E+02 -0.80914408623E+02  0.10135149857E+03  0.00000000000E+00 0.  1.
         21    1    1    2  505  502 -0.33742787059E+02  0.13328705869E+02 -0.25926752134E+02  0.44591776762E+02  0.00000000000E+00 0.  1.
         21    1    1    2  506  501 -0.53854387432E+02 -0.23443649038E+02  0.18832278993E+04  0.18841436305E+04  0.00000000000E+00 0. -1.
<scales pt_clust_3="114.51999" pt_clust_4="32.24682" pt_clust_5="32.24682" pt_clust_6="58.73585"></scales>
<clustering>
<clus scale="   32.247">  4  5 -1 -1</clus>
<clus scale="   58.736">  1  6  2 -1</clus>
<clus scale="  114.520">  1  3  2 -1</clus>
<clus scale="   58.736">  1  3  2 -1</clus>
</clustering>
</event>
<event>
 6    0  0.5563122E+002  0.1050248E+03  0.7546771E-02  0.1270071E+00
         21   -1    0    0  505  501  0.00000000000E+00  0.00000000000E+00  0.10951296227E+04  0.10951296227E+04  0.00000000000E+00 0. -1.
         21   -1    0    0  506  502 -0.00000000000E+00 -0.00000000000E+00 -0.30722803447E+02  0.30722803447E+02  0.00000000000E+00 0. -1.
         21    1    1    2  503  502 -0.50025622604E+02 -0.35802950778E+02  0.11553818297E+03  0.13089494232E+03  0.00000000000E+00 0. -1.
         21    1    1    2  504  501  0.12372508842E+03  0.11511421418E+02  0.50738074171E+03  0.52237498733E+03  0.00000000000E+00 0. -1.
         21    1    1    2  505  503 -0.85432700614E+02  0.52354934870E+02  0.42753133119E+03  0.43911595814E+03  0.00000000000E+00 0. -1.
         21    1    1    2  506  504  0.11733234794E+02 -0.28063405510E+02  0.13956563357E+02  0.33466538337E+02  0.00000000000E+00 0. -1.
<scales pt_clust_3="64.91900" pt_clust_4="105.02477" pt_clust_5="14000.00000" pt_clust_6="30.41749"></scales>
<clustering>
<clus scale="   30.417">  2  6  1 -1</clus>
<clus scale="   64.919">  2  3  1 -1</clus>
<clus scale="  105.025">  2  4  1 -1</clus>
<clus scale="  105.025">  1  3  2 -1</clus>
</clustering>
</event>
<event>
 6    0  0.5563122E+002  0.1556030E+03  0.7546771E-02  0.1193752E+00
         21   -1    0    0  505  501  0.00000000000E+00  0.00000000000E+00  0.11011953150E+04  0.11011953150E+04  0.00000000000E+00 0. -1.
         21   -1    0    0  506  502 -0.00000000000E+00 -0.00000000000E+00 -0.35329338101E+03  0.35329338101E+03  0.00000000000E+00 0.  1.
         21    1    1    2  503  501 -0.10200593858E+03 -0.85122272276E+02  0.10277916941E+04  0.10363429834E+04  0.00000000000E+00 0. -1.
         21    1    1    2  504  502  0.11644624313E+03  0.47548775070E+02 -0.71897033201E+02  0.14487855926E+03  0.00000000000E+00 0.  1.
         21    1    1    2  505  504 -0.32931338462E+02 -0.31647462807E+01  0.21499217820E+02  0.39455101556E+02  0.00000000000E+00 0.  1.
         21    1    1    2  506  503  0.18491033914E+02  0.40738243486E+02 -0.22949194479E+03  0.23381205175E+03  0.00000000000E+00 0.  1.
<scales pt_clust_3="14000.00000" pt_clust_4="155.60299" pt_clust_5="33.08306" pt_clust_6="44.70515"></scales>
<clustering>
<clus scale="   33.083">  1  5  2 -1</clus>
<clus scale="   44.705">  2  6  1 -1</clus>
<clus scale="  155.603">  2  4  1 -1</clus>
<clus scale="   33.083">  1  3  2 -1</clus>
</clustering>
</event>
<event>
 6    0  0.5563122E+002  0.1500449E+03  0.7546771E-02  0.1200418E+00
         21   -1    0    0  506  501  0.00000000000E+00  0.00000000000E+00  0.14940662421E+04  0.14940662421E+04  0.00000000000E+00 0. -1.
         21   -1    0    0  503  502 -0.00000000000E+00 -0.00000000000E+00 -0.84757408897E+02  0.84757408897E+02  0.00000000000E+00 0. -1.
         21    1    1    2  503  505 -0.85927355120E+02  0.88245206716E+02  0.68377458446E+02  0.14087655479E+03  0.00000000000E+00 0. -1.
         21    1    1    2  504  501  0.41447321200E+02 -0.21975824898E+02  0.12302077410E+04  0.12311019062E+04  0.00000000000E+00 0. -1.
         21    1    1    2  505  504 -0.51067793287E+02  0.37024189035E+01  0.57539646112E+02  0.77022323334E+02  0.00000000000E+00 0. -1.
         21    1    1    2  506  502  0.95547827208E+02 -0.69971800722E+02  0.53183987637E+02  0.12982286671E+03  0.00000000000E+00 0. -1.
<scales pt_clust_3="42.78130" pt_clust_4="46.91287" pt_clust_5="42.78130" pt_clust_6="134.57605"></scales>
<clustering>
<clus scale="   42.781">  3  5 -1 -1</clus>
<clus scale="   46.913">  1  4  2 -1</clus>
<clus scale="  134.576">  2  6  1 -1</clus>
<clus scale="   46.913">  1  3  2 -1</clus>
</clustering>
</event>
<event>
 6    0  0.5563122E+002  0.2303028E+03  0.7546771E-02  0.1126427E+00
         21   -1    0    0  504  501  0.00000000000E+00  0.00000000000E+00  0.10638198405E+04  0.10638198405E+04  0.00000000000E+00 0.  1.
         21   -1    0    0  503  502 -0.00000000000E+00 -0.00000000000E+00 -0.69990209334E+03  0.69990209334E+03  0.00000000000E+00 0.  1.
         21    1    1    2  503  506  0.87788553870E+02  0.21298049863E+03 -0.61448748690E+03  0.65624872917E+03  0.00000000000E+00 0.  1.
         21    1    1    2  504  505  0.69432590475E+02 -0.66137963207E+02  0.62826816214E+03  0.63554386030E+03  0.00000000000E+00 0.  1.
         21    1    1    2  505  502 -0.10044484917E+03 -0.20680564637E+03  0.22274530859E+03  0.32011437893E+03  0.00000000000E+00 0.  1.
         21    1    1    2  506  501 -0.56776295173E+02  0.59963110954E+02  0.12739176337E+03  0.15181496548E+03  0.00000000000E+00 0. -1.
<scales pt_clust_3="14000.00000" pt_clust_4="39.61313" pt_clust_5="230.30281" pt_clust_6="82.57798"></scales>
<clustering>
<clus scale="   82.578">  1  6  2 -1</clus>
<clus scale="   39.613">  1  4  2 -1</clus>
<clus scale="  230.303">  1  5  2 -1</clus>
<clus scale="   82.578">  1  3  2 -1</clus>
</clustering>
</event>
<event>
 6    0  0.5563122E+002  0.9860914E+02  0.7546771E-02  0.1283248E+00
         21   -1    0    0  506  501  0.00000000000E+00  0.00000000000E+00  0.43417896815E+03  0.43417896815E+03  0.00000000000E+00 0.  1.
         21   -1    0    0  503  502 -0.00000000000E+00 -0.00000000000E+00 -0.14520880111E+03  0.14520880111E+03  0.00000000000E+00 0.  1.
         21    1    1    2  503  501  0.76692506649E+02  0.44248026199E+01  0.35110189021E+03  0.35940764706E+03  0.00000000000E+00 0.  1.
         21    1    1    2  504  505 -0.79222872391E+02 -0.20608417024E+02 -0.36324519694E+02  0.89556915384E+02  0.00000000000E+00 0.  1.
         21    1    1    2  505  502  0.50667934732E+02  0.27289097988E+02 -0.49245301973E+02  0.75743212537E+02  0.00000000000E+00 0.  1.
         21    1    1    2  506  504 -0.48137568990E+02 -0.11105483584E+02  0.23438098499E+02  0.54679994287E+02  0.00000000000E+00 0.  1.
<scales pt_clust_3="79.44803" pt_clust_4="45.37617" pt_clust_5="57.54941" pt_clust_6="45.37617"></scales>
<clustering>
<clus scale="   45.376">  4  6 -1 -1</clus>
<clus scale="   57.549">  2  5  1 -1</clus>
<clus scale="   79.448">  1  3  2 -1</clus>
<clus scale="   79.448">  1  3  2 -1</clus>
</clustering>
</event>
<event>
 6    0  0.5563122E+002  0.1076683E+03  0.7546771E-02  0.1264950E+00
         21   -1    0    0  503  501  0.00000000000E+00  0.00000000000E+00  0.41204496717E+03  0.41204496717E+03  0.00000000000E+00 0.  1.
         21   -1    0    0  504  502 -0.00000000000E+00 -0.00000000000E+00 -0.97117610854E+02  0.97117610854E+02  0.00000000000E+00 0.  1.
         21    1    1    2  503  506 -0.12933554576E+03  0.61432257231E+02  0.50661253713E+02  0.15188208668E+03  0.00000000000E+00 0.  1.
         21    1    1    2  504  505  0.32780559364E+02 -0.20441913536E+02 -0.14790462169E+01  0.38660373497E+02  0.00000000000E+00 0.  1.
         21    1    1    2  505  501  0.76284581687E+02 -0.67553637716E+02  0.26637619686E+03  0.28520012206E+03  0.00000000000E+00 0.  1.
         21    1    1    2  506  502  0.20270404712E+02  0.26563294021E+02 -0.63104804150E+00  0.33419995782E+02  0.00000000000E+00 0.  1.
<scales pt_clust_3="107.66828" pt_clust_4="40.29170" pt_clust_5="14000.00000" pt_clust_6="33.41404"></scales>
<clustering>
<clus scale="   33.414">  2  6  1 -1</clus>
<clus scale="   40.292">  2  4  1 -1</clus>
<clus scale="  107.668">  2  3  1 -1</clus>
<clus scale="  107.668">  1  3  2 -1</clus>
</clustering>
</event>
<event>
 6    0  0.5563122E+002  0.1102183E+03  0.7546771E-02  0.1260166E+00
         21   -1    0    0  506  501  0.00000000000E+00  0.00000000000E+00  0.77280174495E+03  0.77280174495E+03  0.00000000000E+00 0. -1.
         21   -1    0    0  504  502 -0.00000000000E+00 -0.00000000000E+00 -0.38226037541E+02  0.38226037541E+02  0.00000000000E+00 0. -1.
         21    1    1    2  503  501  0.56631089167E+02  0.13233240628E+02  0.14828563817E+03  0.15928223192E+03  0.00000000000E+00 0. -1.
         21    1    1    2  504  503  0.38793688934E+02  0.87142026850E+02  0.78194886928E+02  0.12334149134E+03  0.00000000000E+00 0. -1.
         21    1    1    2  505  502 -0.33079524345E+02 -0.51626275380E+02  0.15811874927E+03  0.16959087862E+03  0.00000000000E+00 0. -1.
         21    1    1    2  506  505 -0.62345253756E+02 -0.48748992098E+02  0.34997643303E+03  0.35881318060E+03  0.00000000000E+00 0. -1.
<scales pt_clust_3="58.15668" pt_clust_4="101.38549" pt_clust_5="38.05324" pt_clust_6="38.05324"></scales>
<clustering>
<clus scale="   38.053">  5  6 -1 -1</clus>
<clus scale="   58.157">  1  3  2 -1</clus>
<clus scale="  101.385">  2  4  1 -1</clus>
<clus scale="   58.157">  1  3  2 -1</clus>
</clustering>
</event>
<event>
 6    0  0.5563122E+002  0.8722219E+02  0.7546771E-02  0.1309721E+00
         21   -1    0    0  506  501  0.00000000000E+00  0.00000000000E+00  0.39999743996E+03  0.39999743996E+03  0.00000000000E+00 0. -1.
         21   -1    0    0  505  502 -0.00000000000E+00 -0.00000000000E+00 -0.11565051438E+03  0.11565051438E+03  0.00000000000E+00 0. -1.
         21    1    1    2  503  502  0.11894388581E+02 -0.10335016817E+03 -0.36368845218E+02  0.11020629130E+03  0.00000000000E+00 0. -1.
         21    1    1    2  504  501  0.67864579608E+02  0.16971291295E+02  0.54740586393E+02  0.88826559611E+02  0.00000000000E+00 0. -1.
         21    1    1    2  505  504 -0.71489791204E+02  0.37561184449E+02  0.49877913814E+02  0.94918065246E+02  0.00000000000E+00 0. -1.
         21    1    1    2  506  503 -0.82691769856E+01  0.48817692425E+02  0.21609727059E+03  0.22169703819E+03  0.00000000000E+00 0. -1.
<scales pt_clust_3="87.22219" pt_clust_4="74.09932" pt_clust_5="14000.00000" pt_clust_6="49.51309"></scales>
<clustering>
<clus scale="   49.513">  1  6  2 -1</clus>
<clus scale="   74.099">  1  4  2 -1</clus>
<clus scale="   87.222">  2  3  1 -1</clus>
<clus scale="   49.513">  1  3  2 -1</clus>
</clustering>
</event>
<event>
 6    0  0.5563122E+002  0.2127138E+03  0.7546771E-02  0.1139435E+00
         21   -1    0    0  503  501  0.00000000000E+00  0.00000000000E+00  0.29563541536E+03  0.29563541536E+03  0.00000000000E+00 0.  1.
         21   -1    0    0  504  502 -0.00000000000E+00 -0.00000000000E+00 -0.80497420090E+03  0.80497420090E+03  0.00000000000E+00 0.  1.
         21    1    1    2  503  506  0.40636644246E+02  0.19914088865E+02  0.19296616269E+03  0.19820153313E+03  0.00000000000E+00 0.  1.
         21    1    1    2  504  505  0.15934921727E+03 -0.11344803885E+03 -0.31712252227E+03  0.37259807393E+03  0.00000000000E+00 0.  1.
         21    1    1    2  505  501 -0.48087229887E+02 -0.10395741059E+03 -0.11601893973E+03  0.16303349126E+03  0.00000000000E+00 0.  1.
         21    1    1    2  506  502 -0.15189863163E+03  0.19749136058E+03 -0.26916348624E+03  0.36677651795E+03  0.00000000000E+00 0.  1.
<scales pt_clust_3="45.25382" pt_clust_4="14000.00000" pt_clust_5="106.49663" pt_clust_6="212.71380"></scales>
<clustering>
<clus scale="   45.254">  1  3  2 -1</clus>
<clus scale="  106.497">  1  5  2 -1</clus>
<clus scale="  212.714">  1  6  2 -1</clus>
<clus scale="   45.254">  1  3  2 -1</clus>
</clustering>
</event>
<event>
 6    0  0.5563122E+002  0.9763304E+02  0.7546771E-02  0.1285354E+00
         21   -1    0    0  504  501  0.00000000000E+00  0.00000000000E+00  0.22143184540E+02  0.22143184540E+02  0.00000000000E+00 0.  1.
         21   -1    0    0  505  502 -0.00000000000E+00 -0.00000000000E+00 -0.18909867052E+04  0.18909867052E+04  0.00000000000E+00 0. -1.
         21    1    1    2  503  501 -0.30178076504E+02  0.52974924094E+02 -0.33448029747E+03  0.33999136500E+03  0.00000000000E+00 0. -1.
         21    1    1    2  504  506  0.92574125217E+02 -0.43449872381E+02 -0.13591313280E+03  0.17008891715E+03  0.00000000000E+00 0.  1.
         21    1    1    2  505  503 -0.43007601099E+01 -0.42448743769E+02 -0.37406793221E+03  0.37649330711E+03  0.00000000000E+00 0. -1.
         21    1    1    2  506  502 -0.58095288604E+02  0.32923692056E+02 -0.10243821582E+04  0.10265563005E+04  0.00000000000E+00 0. -1.
<scales pt_clust_3="53.51893" pt_clust_4="97.63304" pt_clust_5="42.66606" pt_clust_6="14000.00000"></scales>
<clustering>
<clus scale="   42.666">  2  5  1 -1</clus>
<clus scale="   53.519">  2  3  1 -1</clus>
<clus scale="   97.633">  1  4  2 -1</clus>
<clus scale="   97.633">  1  3  2 -1</clus>
</clustering>
</event>
<event>
 6    0  0.5563122E+002  0.8835834E+02  0.7546771E-02  0.1306877E+00
         21   -1    0    0  503  501  0.00000000000E+00  0.00000000000E+00  0.30565017303E+03  0.30565017303E+03  0.00000000000E+00 0.  1.
         21   -1    0    0  505  502 -0.00000000000E+00 -0.00000000000E+00 -0.27877587350E+03  0.27877587350E+03  0.00000000000E+00 0. -1.
         21    1    1    2  503  502 -0.58179562286E+02  0.23735502210E+02 -0.16301032185E+02  0.64915015083E+02  0.00000000000E+00 0. -1.
         21    1    1    2  504  506 -0.25259890534E+01 -0.55450834158E+02  0.16378288954E+02  0.57874208233E+02  0.00000000000E+00 0.  1.
         21    1    1    2  505  504  0.67566575079E+02  0.77241942371E+02 -0.20289718263E+03  0.22737375936E+03  0.00000000000E+00 0. -1.
         21    1    1    2  506  501 -0.68610237398E+01 -0.45526610423E+02  0.22969422539E+03  0.23426306385E+03  0.00000000000E+00 0.  1.
<scales pt_clust_3="61.06826" pt_clust_4="14000.00000" pt_clust_5="88.35834" pt_clust_6="46.04070"></scales>
<clustering>
<clus scale="   46.041">  1  6  2 -1</clus>
<clus scale="   61.068">  1  3  2 -1</clus>
<clus scale="   88.358">  2  5  1 -1</clus>
<clus scale="   46.041">  1  3  2 -1</clus>
</clustering>
</event>
<event>
 6    0  0.5563122E+002  0.8708165E+02  0.7546771E-02  0.1310077E+00
         21   -1    0    0  506  501  0.00000000000E+00  0.00000000000E+00  0.39938313629E+03  0.39938313629E+03  0.00000000000E+00 0.  1.
         21   -1    0    0  505  502 -0.00000000000E+00 -0.00000000000E+00 -0.11468317599E+03  0.11468317599E+03  0.00000000000E+00 0.  1.
         21    1    1    2  503  501 -0.23036818364E+02  0.24560850775E+02  0.31021603693E+02  0.45785044357E+02  0.00000000000E+00 0. -1.
         21    1    1    2  504  503  0.74138281963E+02 -0.90372871664E+02  0.15133468666E+03  0.19122219581E+03  0.00000000000E+00 0.  1.
         21    1    1    2  505  504  0.30009820294E+02  0.75596648560E+02 -0.56090242813E+02  0.98800596792E+02  0.00000000000E+00 0.  1.
         21    1    1    2  506  502 -0.81111283893E+02 -0.97846276702E+01  0.15843391276E+03  0.17825847533E+03  0.00000000000E+00 0.  1.
<scales pt_clust_3="33.67388" pt_clust_4="14000.00000" pt_clust_5="82.20278" pt_clust_6="87.08165"></scales>
<clustering>
<clus scale="   33.674">  1  3  2 -1</clus>
<clus scale="   82.203">  2  5  1 -1</clus>
<clus scale="   87.082">  1  6  2 -1</clus>
<clus scale="   33.674">  1  3  2 -1</clus>
</clustering>
</event>
<event>
 6    0  0.5563122E+002  0.1032416E+03  0.7546771E-02  0.1273623E+00
         21   -1    0    0  504  501  0.00000000000E+00  0.00000000000E+00  0.17619895557E+03  0.17619895557E+03  0.00000000000E+00 0.  1.
         21   -1    0    0  505  502 -0.00000000000E+00 -0.00000000000E+00 -0.41780911349E+03  0.41780911349E+03  0.00000000000E+00 0.  1.
         21    1    1    2  503  501 -0.69136303113E+02 -0.53452617770E+02  0.10289464896E+03  0.13499747975E+03  0.00000000000E+00 0.  1.
         21    1    1    2  504  506  0.19149672278E+02 -0.37903470496E+02 -0.17688581012E+00  0.42466625868E+02  0.00000000000E+00 0.  1.
         21    1    1    2  505  503 -0.34504023282E+01  0.98780441887E+02 -0.34867981889E+03  0.36241840058E+03  0.00000000000E+00 0.  1.
         21    1    1    2  506  502  0.53437033163E+02 -0.74243536209E+01  0.43518978196E+01  0.54125562857E+02  0.00000000000E+00 0.  1.
<scales pt_clust_3="87.38999" pt_clust_4="39.56962" pt_clust_5="93.11090" pt_clust_6="39.56962"></scales>
<clustering>
<clus scale="   39.570">  4  6 -1 -1</clus>
<clus scale="   87.390">  1  3  2 -1</clus>
<clus scale="   93.111">  2  5  1 -1</clus>
<clus scale="   87.390">  1  3  2 -1</clus>
</clustering>
</event>
<event>
 6    0  0.5563122E+002  0.9290483E+02  0.7546771E-02  0.1295966E+00
         21   -1    0    0  506  501  0.00000000000E+00  0.00000000000E+00  0.38172989110E+03  0.38172989110E+03  0.00000000000E+00 0.  1.
         21   -1    0    0  505  502 -0.00000000000E+00 -0.00000000000E+00 -0.76207667169E+02  0.76207667169E+02  0.00000000000E+00 0.  1.
         21    1    1    2  503  502 -0.64290557463E+02  0.40665729670E+02  0.42279975599E+02  0.87032026779E+02  0.00000000000E+00 0.  1.
         21    1    1    2  504  501 -0.37582198986E+02 -0.21257575039E+02  0.12186945144E+03  0.12929218604E+03  0.00000000000E+00 0.  1.
         21    1    1    2  505  504 -0.28281559234E+02 -0.46564319485E+02  0.11356007493E+02  0.55651067807E+02  0.00000000000E+00 0.  1.
         21    1    1    2  506  503  0.13015431568E+03  0.27156164854E+02  0.13001678940E+03  0.18596227764E+03  0.00000000000E+00 0.  1.
<scales pt_clust_3="92.90483" pt_clust_4="43.17761" pt_clust_5="59.47233" pt_clust_6="14000.00000"></scales>
<clustering>
<clus scale="   43.178">  1  4  2 -1</clus>
<clus scale="   59.472">  2  5  1 -1</clus>
<clus scale="   92.905">  2  3  1 -1</clus>
<clus scale="   43.178">  1  3  2 -1</clus>
</clustering>
</event>
<event>
 6    0  0.5563122E+002  0.9896693E+02  0.7546771E-02  0.1282483E+00
         21   -1    0    0  503  501  0.00000000000E+00  0.00000000000E+00  0.10602167890E+04  0.10602167890E+04  0.00000000000E+00 0. -1.
         21   -1    0    0  504  502 -0.00000000000E+00 -0.00000000000E+00 -0.91505375383E+02  0.91505375383E+02  0.00000000000E+00 0. -1.
         21    1    1    2  503  502 -0.93828761028E+01  0.92210517620E+02  0.29274924113E+03  0.30707154884E+03  0.00000000000E+00 0. -1.
         21    1    1    2  504  506  0.28273630047E+02  0.32357643317E+02 -0.70021226846E+02  0.82154655656E+02  0.00000000000E+00 0. -1.
         21    1    1    2  505  501  0.23159172977E+02 -0.10050053363E+03  0.59668933457E+03  0.60553684160E+03  0.00000000000E+00 0. -1.
         21    1    1    2  506  505 -0.42049926920E+02 -0.24067627306E+02  0.14929406473E+03  0.15695911825E+03  0.00000000000E+00 0. -1.
<scales pt_clust_3="98.96693" pt_clust_4="42.96993" pt_clust_5="14000.00000" pt_clust_6="38.51336"></scales>
<clustering>
<clus scale="   42.970">  2  4  1 -1</clus>
<clus scale="   38.513">  2  6  1 -1</clus>
<clus scale="   98.967">  2  3  1 -1</clus>
<clus scale="   98.967">  1  3  2 -1</clus>
</clustering>
</event>
<event>
 6    0  0.5563122E+002  0.8237564E+02  0.7546771E-02  0.1322442E+00
         21   -1    0    0  503  501  0.00000000000E+00  0.00000000000E+00  0.97140134212E+03  0.97140134212E+03  0.00000000000E+00 0. -1.
         21   -1    0    0  505  502 -0.00000000000E+00 -0.00000000000E+00 -0.59529929218E+02  0.59529929218E+02  0.00000000000E+00 0. -1.
         21    1    1    2  503  506  0.69055182044E+02  0.10344479105E+03  0.36466340664E+03  0.38529059566E+03  0.00000000000E+00 0. -1.
         21    1    1    2  504  501 -0.13050937060E+02 -0.41246485156E+02  0.54050581724E+03  0.54223439393E+03  0.00000000000E+00 0. -1.
         21    1    1    2  505  504 -0.33279473267E+02 -0.28001433698E+02 -0.26214279172E+02  0.50781808382E+02  0.00000000000E+00 0. -1.
         21    1    1    2  506  502 -0.22724771717E+02 -0.34196872199E+02  0.32916468188E+02  0.52624473354E+02  0.00000000000E+00 0.  1.
<scales pt_clust_3="82.37564" pt_clust_4="43.94896" pt_clust_5="14000.00000" pt_clust_6="41.05900"></scales>
<clustering>
<clus scale="   41.059">  2  6  1 -1</clus>
<clus scale="   43.949">  1  4  2 -1</clus>
<clus scale="   82.376">  1  3  2 -1</clus>
<clus scale="   43.949">  1  3  2 -1</clus>
</clustering>
</event>
<event>
 6    0  0.5563122E+002  0.1038267E+03  0.7546771E-02  0.1272449E+00
         21   -1    0    0  506  501  0.00000000000E+00  0.00000000000E+00  0.69037327142E+03  0.69037327142E+03  0.00000000000E+00 0.  1.
         21   -1    0    0  505  502 -0.00000000000E+00 -0.00000000000E+00 -0.45739756867E+02  0.45739756867E+02  0.00000000000E+00 0.  1.
         21    1    1    2  503  502  0.23444638203E+02  0.22649618104E+02  0.16757758559E+02  0.36653495504E+02  0.00000000000E+00 0.  1.
         21    1    1    2  504  503  0.95841036361E+00 -0.13840679899E+03  0.17119133820E+03  0.22014503136E+03  0.00000000000E+00 0.  1.
         21    1    1    2  505  501 -0.16970925175E+02  0.75398781025E+02  0.13942809996E+03  0.15941512958E+03  0.00000000000E+00 0.  1.
         21    1    1    2  506  504 -0.74321233913E+01  0.40358399864E+02  0.31725631783E+03  0.31989937184E+03  0.00000000000E+00 0.  1.
<scales pt_clust_3="32.59841" pt_clust_4="14000.00000" pt_clust_5="103.82667" pt_clust_6="41.71475"></scales>
<clustering>
<clus scale="   32.598">  2  3  1 -1</clus>
<clus scale="   41.715">  1  6  2 -1</clus>
<clus scale="  103.827">  1  5  2 -1</clus>
<clus scale="   41.715">  1  3  2 -1</clus>
</clustering>
</event>
<event>
 6    0  0.5563122E+002  0.1232128E+03  0.7546771E-02  0.1237889E+00
         21   -1    0    0  505  501  0.00000000000E+00  0.00000000000E+00  0.17636799868E+04  0.17636799868E+04  0.00000000000E+00 0. -1.
         21   -1    0    0  503  502 -0.00000000000E+00 -0.00000000000E+00 -0.17190406068E+02  0.17190406068E+02  0.00000000000E+00 0. -1.
         21    1    1    2  503  504 -0.59066830290E+02  0.11522359433E+03  0.40619940247E+03  0.42633709866E+03  0.00000000000E+00 0. -1.
         21    1    1    2  504  501  0.28406836723E+02 -0.17034298664E+02  0.89796695916E+03  0.89857764019E+03  0.00000000000E+00 0. -1.
         21    1    1    2  505  506  0.18700386236E+01 -0.65742387569E+02  0.30209558819E+03  0.30917196343E+03  0.00000000000E+00 0.  1.
         21    1    1    2  506  502  0.28789954944E+02 -0.32446908094E+02  0.14022763092E+03  0.14678369059E+03  0.00000000000E+00 0. -1.
<scales pt_clust_3="116.26193" pt_clust_4="33.12274" pt_clust_5="33.36467" pt_clust_6="33.36467"></scales>
<clustering>
<clus scale="   33.123">  1  4  2 -1</clus>
<clus scale="   33.365">  5  6 -1 -1</clus>
<clus scale="  116.262">  2  3  1 -1</clus>
<clus scale="   33.123">  1  3  2 -1</clus>
</clustering>
</event>
<event>
 6    0  0.5563122E+002  0.9398164E+02  0.7546771E-02  0.1293486E+00
         21   -1    0    0  503  501  0.00000000000E+00  0.00000000000E+00  0.91963004043E+03  0.91963004043E+03  0.00000000000E+00 0. -1.
         21   -1    0    0  506  502 -0.00000000000E+00 -0.00000000000E+00 -0.46645667801E+02  0.46645667801E+02  0.00000000000E+00 0.  1.
         21    1    1    2  503  502 -0.50006338697E+02 -0.31920026626E+02  0.15619304448E+03  0.16708018779E+03  0.00000000000E+00 0.  1.
         21    1    1    2  504  501  0.27376614708E+02 -0.32715745304E+02  0.93083540341E+02  0.10239308818E+03  0.00000000000E+00 0. -1.
         21    1    1    2  505  504  0.93346283905E+02 -0.13298781367E+01  0.58537914541E+03  0.59277655248E+03  0.00000000000E+00 0. -1.
         21    1    1    2  506  505 -0.70716559917E+02  0.65965650067E+02  0.38328642398E+02  0.10402587978E+03  0.00000000000E+00 0.  1.
<scales pt_clust_3="58.84034" pt_clust_4="42.65910" pt_clust_5="93.98164" pt_clust_6="14000.00000"></scales>
<clustering>
<clus scale="   42.659">  1  4  2 -1</clus>
<clus scale="   58.840">  1  3  2 -1</clus>
<clus scale="   93.982">  1  5  2 -1</clus>
<clus scale="   42.659">  1  3  2 -1</clus>
</clustering>
</event>
<event>
 6    0  0.5563122E+002  0.2335139E+03  0.7546771E-02  0.1124191E+00
         21   -1    0    0  505  501  0.00000000000E+00  0.00000000000E+00  0.94308944474E+03  0.94308944474E+03  0.00000000000E+00 0. -1.
         21   -1    0    0  506  502 -0.00000000000E+00 -0.00000000000E+00 -0.17591746202E+03  0.17591746202E+03  0.00000000000E+00 0.  1.
         21    1    1    2  503  502 -0.59885993601E+02 -0.82057976209E+02 -0.81430676768E+02  0.13019523343E+03  0.00000000000E+00 0.  1.
         21    1    1    2  504  503 -0.80768016947E+02 -0.66071439937E+02  0.20529333323E+02  0.10635018224E+03  0.00000000000E+00 0.  1.
         21    1    1    2  505  504 -0.43115117101E+02 -0.22231378693E+02  0.20982961709E+03  0.21536391464E+03  0.00000000000E+00 0.  1.
         21    1    1    2  506  501  0.18376912765E+03  0.17036079484E+03  0.61824370908E+03  0.66709757645E+03  0.00000000000E+00 0. -1.
<scales pt_clust_3="99.95817" pt_clust_4="99.95817" pt_clust_5="48.50925" pt_clust_6="209.78523"></scales>
<clustering>
<clus scale="   48.509">  1  5  2 -1</clus>
<clus scale="   99.958">  3  4 -1 -1</clus>
<clus scale="  209.785">  1  6  2 -1</clus>
<clus scale="   48.509">  1  3  2 -1</clus>
</clustering>
</event>
<event>
 6    0  0.5563122E+002  0.8083609E+02  0.7546771E-02  0.1326695E+00
         21   -1    0    0  504  501  0.00000000000E+00  0.00000000000E+00  0.52307254570E+03  0.52307254570E+03  0.00000000000E+00 0.  1.
         21   -1    0    0  506  502 -0.00000000000E+00 -0.00000000000E+00 -0.93089651426E+02  0.93089651426E+02  0.00000000000E+00 0. -1.
         21    1    1    2  503  505  0.49040552460E+02 -0.69611142600E+01  0.96820804999E+02  0.10875523517E+03  0.00000000000E+00 0. -1.
         21    1    1    2  504  502  0.42264872281E+02 -0.21194284501E+02  0.32764431122E+03  0.33103823314E+03  0.00000000000E+00 0.  1.
         21    1    1    2  505  501 -0.60120862324E+01  0.61825329105E+02  0.44824052621E+02  0.76600993421E+02  0.00000000000E+00 0. -1.
         21    1    1    2  506  503 -0.85293338509E+02 -0.33669930343E+02 -0.39306274572E+02  0.99767735386E+02  0.00000000000E+00 0. -1.
<scales pt_clust_3="80.83609" pt_clust_4="47.28126" pt_clust_5="55.65537" pt_clust_6="14000.00000"></scales>
<clustering>
<clus scale="   47.281">  1  4  2 -1</clus>
<clus scale="   55.655">  1  5  2 -1</clus>
<clus scale="   80.836">  1  3  2 -1</clus>
<clus scale="   47.281">  1  3  2 -1</clus>
</clustering>
</event>
<event>
 6    0  0.5563122E+002  0.1161200E+03  0.7546771E-02  0.1249639E+00
         21   -1    0    0  505  501  0.00000000000E+00  0.00000000000E+00  0.27663138992E+03  0.27663138992E+03  0.00000000000E+00 0.  1.
         21   -1    0    0  506  502 -0.00000000000E+00 -0.00000000000E+00 -0.16425883887E+04  0.16425883887E+04  0.00000000000E+00 0.  1.
         21    1    1    2  503  501 -0.76823709744E+01  0.66324312107E+02  0.25570260447E+03  0.26427590721E+03  0.00000000000E+00 0.  1.
         21    1    1    2  504  502  0.39000716410E+01 -0.10657331700E+03 -0.36771014272E+03  0.38286267971E+03  0.00000000000E+00 0.  1.
         21    1    1    2  505  504 -0.13399778959E+02 -0.56388817519E+02 -0.11375062917E+03  0.12766541605E+03  0.00000000000E+00 0.  1.
         21    1    1    2  506  503  0.17182078292E+02  0.96637822410E+02 -0.11401988314E+04  0.11444157756E+04  0.00000000000E+00 0.  1.
<scales pt_clust_3="66.76776" pt_clust_4="34.48031" pt_clust_5="34.48031" pt_clust_6="106.28399"></scales>
<clustering>
<clus scale="   34.480">  4  5 -1 -1</clus>
<clus scale="   66.768">  1  3  2 -1</clus>
<clus scale="  106.284">  2  6  1 -1</clus>
<clus scale="   66.768">  1  3  2 -1</clus>
</clustering>
</event>
<event>
 6    0  0.5563122E+002  0.1189283E+03  0.7546771E-02  0.1244876E+00
         21   -1    0    0  505  501  0.00000000000E+00  0.00000000000E+00  0.12533502871E+04  0.12533502871E+04  0.00000000000E+00 0.  1.
         21   -1    0    0  506  502 -0.00000000000E+00 -0.00000000000E+00 -0.13629571439E+03  0.13629571439E+03  0.00000000000E+00 0.  1.
         21    1    1    2  503  502 -0.19123996589E+02  0.10399189174E+03 -0.98702751633E+02  0.14464533858E+03  0.00000000000E+00 0.  1.
         21    1    1    2  504  503 -0.31275262562E+02 -0.31183969009E+02  0.28469793210E+03  0.28810327057E+03  0.00000000000E+00 0. -1.
         21    1    1    2  505  504 -0.16787319792E+01 -0.10789809738E+03  0.83620904484E+03  0.84314315761E+03  0.00000000000E+00 0.  1.
         21    1    1    2  506  501  0.52077991130E+02  0.35090174651E+02  0.94850347433E+02  0.11375423476E+03  0.00000000000E+00 0. -1.
<scales pt_clust_3="106.24358" pt_clust_4="34.19050" pt_clust_5="34.19050" pt_clust_6="62.79680"></scales>
<clustering>
<clus scale="   34.191">  4  5 -1 -1</clus>
<clus scale="   62.797">  1  6  2 -1</clus>
<clus scale="  106.244">  2  3  1 -1</clus>
<clus scale="   62.797">  1  3  2 -1</clus>
</clustering>
</event>
<event>
 6    0  0.5563122E+002  0.1000670E+03  0.7546771E-02  0.1280155E+00
         21   -1    0    0  505  501  0.00000000000E+00  0.00000000000E+00  0.80930346440E+02  0.80930346440E+02  0.00000000000E+00 0. -1.
         21   -1    0    0  504  502 -0.00000000000E+00 -0.00000000000E+00 -0.56742076606E+03  0.56742076606E+03  0.00000000000E+00 0.  1.
         21    1    1    2  503  502  0.10576897409E+03  0.11045267292E+02 -0.45440031795E+03  0.46667839329E+03  0.00000000000E+00 0.  1.
         21    1    1    2  504  506 -0.60786111790E+02  0.48720903225E+02  0.55193859481E+01  0.78097000063E+02  0.00000000000E+00 0. -1.
         21    1    1    2  505  503 -0.19312480510E+02 -0.42840695720E+02 -0.51602528457E+02  0.69793395507E+02  0.00000000000E+00 0. -1.
         21    1    1    2  506  501 -0.25670381793E+02 -0.16925474797E+02  0.13993040841E+02  0.33782323639E+02  0.00000000000E+00 0.  1.
<scales pt_clust_3="100.06703" pt_clust_4="14000.00000" pt_clust_5="51.20220" pt_clust_6="30.74801"></scales>
<clustering>
<clus scale="   30.748">  1  6  2 -1</clus>
<clus scale="   51.202">  1  5  2 -1</clus>
<clus scale="  100.067">  2  3  1 -1</clus>
<clus scale="   30.748">  1  3  2 -1</clus>
</clustering>
</event>
<event>
 6    0  0.5563122E+002  0.1137013E+03  0.7546771E-02  0.1253865E+00
         21   -1    0    0  505  501  0.00000000000E+00  0.00000000000E+00  0.29905689301E+03  0.29905689301E+03  0.00000000000E+00 0.  1.
         21   -1    0    0  503  502 -0.00000000000E+00 -0.00000000000E+00 -0.22230171550E+03  0.22230171550E+03  0.00000000000E+00 0. -1.
         21    1    1    2  503  506 -0.28709979208E+02 -0.46536970267E+02 -0.17665514261E+03  0.18492428699E+03  0.00000000000E+00 0. -1.
         21    1    1    2  504  501 -0.76793102524E+01  0.31482842154E+02  0.95236091221E+02  0.10059848024E+03  0.00000000000E+00 0.  1.
         21    1    1    2  505  502  0.46099319784E+02 -0.72908583410E+02  0.72881957568E+02  0.11292735965E+03  0.00000000000E+00 0. -1.
         21    1    1    2  506  504 -0.97100303230E+01  0.87962711523E+02  0.85292271332E+02  0.12290848163E+03  0.00000000000E+00 0.  1.
<scales pt_clust_3="54.68046" pt_clust_4="31.99318" pt_clust_5="100.66149" pt_clust_6="31.99318"></scales>
<clustering>
<clus scale="   31.993">  4  6 -1 -1</clus>
<clus scale="   54.680">  2  3  1 -1</clus>
<clus scale="  100.661">  2  5  1 -1</clus>
<clus scale="  113.701">  1  3  2 -1</clus>
</clustering>
</event>
<event>
 6    0  0.5563122E+002  0.2533675E+03  0.7546771E-02  0.1111195E+00
         21   -1    0    0  506  501  0.00000000000E+00  0.00000000000E+00  0.51276528805E+03  0.51276528805E+03  0.00000000000E+00 0. -1.
         21   -1    0    0  503  502 -0.00000000000E+00 -0.00000000000E+00 -0.12534880363E+04  0.12534880363E+04  0.00000000000E+00 0.  1.
         21    1    1    2  503  501 -0.32140049310E+02 -0.17921079749E+02 -0.92405773900E+01  0.37941219531E+02  0.00000000000E+00 0. -1.
         21    1    1    2  504  502  0.75431582632E+02  0.54065289940E+02 -0.10571674114E+04  0.10612332048E+04  0.00000000000E+00 0.  1.
         21    1    1    2  505  504 -0.89664576023E+02  0.21649273088E+03 -0.21384043060E+02  0.23530005528E+03  0.00000000000E+00 0.  1.
         21    1    1    2  506  505  0.46373042701E+02 -0.25263694107E+03  0.34706928364E+03  0.43177884470E+03  0.00000000000E+00 0. -1.
<scales pt_clust_3="36.79875" pt_clust_4="92.65701" pt_clust_5="253.36755" pt_clust_6="14000.00000"></scales>
<clustering>
<clus scale="   36.799">  1  3  2 -1</clus>
<clus scale="   92.657">  2  4  1 -1</clus>
<clus scale="  253.368">  2  5  1 -1</clus>
<clus scale="   36.799">  1  3  2 -1</clus>
</clustering>
</event>
<event>
 6    0  0.5563122E+002  0.1158553E+03  0.7546771E-02  0.1250095E+00
         21   -1    0    0  503  501  0.00000000000E+00  0.00000000000E+00  0.12553934853E+03  0.12553934853E+03  0.00000000000E+00 0. -1.
         21   -1    0    0  505  502 -0.00000000000E+00 -0.00000000000E+00 -0.20994431749E+03  0.20994431749E+03  0.00000000000E+00 0. -1.
         21    1    1    2  503  506  0.21633316176E+02  0.50610306216E+02  0.32325276424E+02  0.63830454800E+02  0.00000000000E+00 0. -1.
         21    1    1    2  504  502  0.23412731531E+02 -0.10761827598E+03 -0.11857514720E+03  0.16183298445E+03  0.00000000000E+00 0. -1.
         21    1    1    2  505  501 -0.44005226568E+02 -0.73444686824E+01 -0.58708308188E+01  0.44998531532E+02  0.00000000000E+00 0. -1.
         21    1    1    2  506  504 -0.10408211394E+01  0.64352438449E+02  0.77157326294E+01  0.64821695234E+02  0.00000000000E+00 0. -1.
<scales pt_clust_3="33.44009" pt_clust_4="110.06744" pt_clust_5="44.61391" pt_clust_6="33.44009"></scales>
<clustering>
<clus scale="   33.440">  3  6 -1 -1</clus>
<clus scale="   44.614">  1  5  2 -1</clus>
<clus scale="  110.067">  2  4  1 -1</clus>
<clus scale="   44.614">  1  3  2 -1</clus>
</clustering>
</event>
<event>
 6    0  0.5563122E+002  0.1127347E+03  0.7546771E-02  0.1255588E+00
         21   -1    0    0  505  501  0.00000000000E+00  0.00000000000E+00  0.77984657886E+03  0.77984657886E+03  0.00000000000E+00 0.  1.
         21   -1    0    0  503  502 -0.00000000000E+00 -0.00000000000E+00 -0.33359868176E+02  0.33359868176E+02  0.00000000000E+00 0.  1.
         21    1    1    2  503  501  0.70873892929E+02  0.15281647251E+02  0.15947087320E+03  0.17517875682E+03  0.00000000000E+00 0.  1.
         21    1    1    2  504  502 -0.65424669492E+02  0.58407336640E+01  0.49525461071E+02  0.82263435633E+02  0.00000000000E+00 0.  1.
         21    1    1    2  505  506  0.52770072505E+02 -0.42626837985E+02  0.38827341301E+03  0.39415475530E+03  0.00000000000E+00 0.  1.
         21    1    1    2  506  504 -0.58219295942E+02  0.21504457070E+02  0.14921696340E+03  0.16160949929E+03  0.00000000000E+00 0.  1.
<scales pt_clust_3="93.64430" pt_clust_4="61.01375" pt_clust_5="67.83604" pt_clust_6="61.01375"></scales>
<clustering>
<clus scale="   61.014">  4  6 -1 -1</clus>
<clus scale="   67.836">  1  5  2 -1</clus>
<clus scale="   93.644">  2  3  1 -1</clus>
<clus scale="   67.836">  1  3  2 -1</clus>
</clustering>
</event>
<event>
 6    0  0.5563122E+002  0.1370797E+03  0.7546771E-02  0.1217313E+00
         21   -1    0    0  506  501  0.00000000000E+00  0.00000000000E+00  0.35047566797E+03  0.35047566797E+03  0.00000000000E+00 0.  1.
         21   -1    0    0  505  502 -0.00000000000E+00 -0.00000000000E+00 -0.34040184856E+03  0.34040184856E+03  0.00000000000E+00 0. -1.
         21    1    1    2  503  501 -0.12527687317E+03  0.18471010607E+02  0.29042360513E+03  0.31683014945E+03  0.00000000000E+00 0.  1.
         21    1    1    2  504  502  0.49968172325E+02 -0.36771270520E+02 -0.69672817663E+02  0.93291189843E+02  0.00000000000E+00 0. -1.
         21    1    1    2  505  503 -0.26697798945E+02  0.42731681558E+02 -0.59674597797E+01  0.50738345001E+02  0.00000000000E+00 0. -1.
         21    1    1    2  506  504  0.10200649979E+03 -0.24431421645E+02 -0.20470950829E+03  0.23001783223E+03  0.00000000000E+00 0. -1.
<scales pt_clust_3="128.02282" pt_clust_4="37.68432" pt_clust_5="50.38620" pt_clust_6="37.68432"></scales>
<clustering>
<clus scale="   37.684">  4  6 -1 -1</clus>
<clus scale="   50.386">  2  5  1 -1</clus>
<clus scale="  128.023">  1  3  2 -1</clus>
<clus scale="  128.023">  1  3  2 -1</clus>
</clustering>
</event>
<event>
 6    0  0.5563122E+002  0.1169497E+03  0.7546771E-02  0.1248216E+00
         21   -1    0    0  505  501  0.00000000000E+00  0.00000000000E+00  0.18796814527E+03  0.18796814527E+03  0.00000000000E+00 0. -1.
         21   -1    0    0  503  502 -0.00000000000E+00 -0.00000000000E+00 -0.37904438266E+03  0.37904438266E+03  0.00000000000E+00 0.  1.
         21    1    1    2  503  504 -0.21115220351E+02  0.25104829929E+02 -0.30865384373E+03  0.31039217172E+03  0.00000000000E+00 0.  1.
         21    1    1    2  504  506 -0.29738258914E+01  0.65447420344E+02  0.27293424943E+02  0.70972808280E+02  0.00000000000E+00 0. -1.
         21    1    1    2  505  502  0.55867686093E+02 -0.11101749110E+03  0.65989621628E+02  0.14071500219E+03  0.00000000000E+00 0. -1.
         21    1    1    2  506  501 -0.31778639851E+02  0.20465240824E+02  0.24294559761E+02  0.44932545741E+02  0.00000000000E+00 0. -1.
<scales pt_clust_3="32.80404" pt_clust_4="35.41558" pt_clust_5="107.20648" pt_clust_6="35.41558"></scales>
<clustering>
<clus scale="   32.804">  2  3  1 -1</clus>
<clus scale="   35.416">  4  6 -1 -1</clus>
<clus scale="  107.206">  2  5  1 -1</clus>
<clus scale="  116.950">  1  3  2 -1</clus>
</clustering>
</event>
<event>
 6    0  0.5563122E+002  0.1399753E+03  0.7546771E-02  0.1213362E+00
         21   -1    0    0  505  501  0.00000000000E+00  0.00000000000E+00  0.52042552560E+02  0.52042552560E+02  0.00000000000E+00 0.  1.
         21   -1    0    0  506  502 -0.00000000000E+00 -0.00000000000E+00 -0.10989902615E+04  0.10989902615E+04  0.00000000000E+00 0.  1.
         21    1    1    2  503  502 -0.11965172386E+03 -0.83506940005E+02 -0.74134913504E+03  0.75557162736E+03  0.00000000000E+00 0.  1.
         21    1    1    2  504  501  0.62427281732E+01  0.38340611915E+02  0.79362389826E+01  0.39647926380E+02  0.00000000000E+00 0.  1.
         21    1    1    2  505  503  0.17211531752E+02 -0.35767270715E+02 -0.10579878858E+03  0.11299963780E+03  0.00000000000E+00 0. -1.
         21    1    1    2  506  504  0.96197463931E+02  0.80933598806E+02 -0.20773602430E+03  0.24281362250E+03  0.00000000000E+00 0.  1.
<scales pt_clust_3="14000.00000" pt_clust_4="38.84552" pt_clust_5="35.74754" pt_clust_6="139.97534"></scales>
<clustering>
<clus scale="   38.846">  1  4  2 -1</clus>
<clus scale="   35.748">  1  5  2 -1</clus>
<clus scale="  139.975">  1  6  2 -1</clus>
<clus scale="   38.846">  1  3  2 -1</clus>
</clustering>
</event>
<event>
 6    0  0.5563122E+002  0.1051964E+03  0.7546771E-02  0.1269733E+00
         21   -1    0    0  503  501  0.00000000000E+00  0.00000000000E+00  0.23233466175E+03  0.23233466175E+03  0.00000000000E+00 0.  1.
         21   -1    0    0  504  502 -0.00000000000E+00 -0.00000000000E+00 -0.26272804348E+03  0.26272804348E+03  0.00000000000E+00 0. -1.
         21    1    1    2  503  505  0.46852490938E+02 -0.17782916122E+02  0.14010779722E+03  0.14880048002E+03  0.00000000000E+00 0.  1.
         21    1    1    2  504  506 -0.41285470806E+02 -0.12827750485E+03 -0.82847675067E+02  0.15818769109E+03  0.00000000000E+00 0.  1.
         21    1    1    2  505  502 -0.24450476547E+02  0.92501241168E+02 -0.89834192973E+02  0.13124209556E+03  0.00000000000E+00 0. -1.
         21    1    1    2  506  501  0.18883456415E+02  0.53559179800E+02  0.21806890987E+01  0.56832438554E+02  0.00000000000E+00 0.  1.
<scales pt_clust_3="50.11375" pt_clust_4="105.19642" pt_clust_5="14000.00000" pt_clust_6="58.84577"></scales>
<clustering>
<clus scale="   50.114">  1  3  2 -1</clus>
<clus scale="   58.846">  1  6  2 -1</clus>
<clus scale="  105.196">  1  4  2 -1</clus>
<clus scale="   50.114">  1  3  2 -1</clus>
</clustering>
</event>
<event>
 6    0  0.5563122E+002  0.9936935E+02  0.7546771E-02  0.1281628E+00
         21   -1    0    0  505  501  0.00000000000E+00  0.00000000000E+00  0.15937049357E+03  0.15937049357E+03  0.00000000000E+00 0. -1.
         21   -1    0    0  504  502 -0.00000000000E+00 -0.00000000000E+00 -0.12509442758E+04  0.12509442758E+04  0.00000000000E+00 0. -1.
         21    1    1    2  503  506 -0.42309516027E+02  0.96048463104E+02  0.21537115983E+02  0.10714126085E+03  0.00000000000E+00 0. -1.
         21    1    1    2  504  501 -0.12589372672E+02 -0.86043356492E+02 -0.55269569055E+02  0.10303725911E+03  0.00000000000E+00 0. -1.
         21    1    1    2  505  503  0.49336058574E+02  0.35113956625E+02  0.57714769897E+02  0.83654236532E+02  0.00000000000E+00 0. -1.
         21    1    1    2  506  502  0.55628301242E+01 -0.45119063236E+02 -0.11155560991E+04  0.11164820129E+04  0.00000000000E+00 0. -1.
<scales pt_clust_3="14000.00000" pt_clust_4="99.36935" pt_clust_5="58.60300" pt_clust_6="45.46070"></scales>
<clustering>
<clus scale="   45.461">  2  6  1 -1</clus>
<clus scale="   58.603">  1  5  2 -1</clus>
<clus scale="   99.369">  2  4  1 -1</clus>
<clus scale="   58.603">  1  3  2 -1</clus>
</clustering>
</event>
<event>
 6    0  0.5563122E+002  0.2156342E+03  0.7546771E-02  0.1137180E+00
         21   -1    0    0  504  501  0.00000000000E+00  0.00000000000E+00  0.12127515689E+04  0.12127515689E+04  0.00000000000E+00 0.  1.
         21   -1    0    0  505  502 -0.00000000000E+00 -0.00000000000E+00 -0.69315659132E+02  0.69315659132E+02  0.00000000000E+00 0. -1.
         21    1    1    2  503  501 -0.53642133166E+02 -0.30529529410E+02  0.19204435386E+03  0.20171902356E+03  0.00000000000E+00 0.  1.
         21    1    1    2  504  506  0.25525970751E+02 -0.21088262012E+02  0.20235718534E+03  0.20504809299E+03  0.00000000000E+00 0.  1.
         21    1    1    2  505  503 -0.20548664659E+03  0.17009604299E+02  0.25667052878E+03  0.32923221123E+03  0.00000000000E+00 0. -1.
         21    1    1    2  506  502  0.23360280901E+03  0.34608187123E+02  0.49236384178E+03  0.54606790026E+03  0.00000000000E+00 0.  1.
<scales pt_clust_3="59.73417" pt_clust_4="33.11027" pt_clust_5="215.63424" pt_clust_6="14000.00000"></scales>
<clustering>
<clus scale="   33.110">  1  4  2 -1</clus>
<clus scale="   59.734">  1  3  2 -1</clus>
<clus scale="  215.634">  2  5  1 -1</clus>
<clus scale="   33.110">  1  3  2 -1</clus>
</clustering>
</event>
<event>
 6    0  0.5563122E+002  0.1806500E+03  0.7546771E-02  0.1167175E+00
         21   -1    0    0  506  501  0.00000000000E+00  0.00000000000E+00  0.52249466153E+03  0.52249466153E+03  0.00000000000E+00 0.  1.
         21   -1    0    0  504  502 -0.00000000000E+00 -0.00000000000E+00 -0.12261274719E+04  0.12261274719E+04  0.00000000000E+00 0. -1.
         21    1    1    2  503  502 -0.31018201090E+02  0.11448484857E+02 -0.51667032649E+03  0.51772717032E+03  0.00000000000E+00 0. -1.
         21    1    1    2  504  501 -0.60924819825E+02 -0.31467501792E+02 -0.95635286844E+02  0.11767814338E+03  0.00000000000E+00 0. -1.
         21    1    1    2  505  503 -0.87782781336E+02 -0.15661125073E+02 -0.58234090507E+03  0.58912818406E+03  0.00000000000E+00 0. -1.
         21    1    1    2  506  505  0.17972580225E+03  0.35680142008E+02  0.49101370805E+03  0.52408863565E+03  0.00000000000E+00 0.  1.
<scales pt_clust_3="33.06352" pt_clust_4="72.02088" pt_clust_5="14000.00000" pt_clust_6="180.64996"></scales>
<clustering>
<clus scale="   33.064">  2  3  1 -1</clus>
<clus scale="   72.021">  2  4  1 -1</clus>
<clus scale="  180.650">  1  6  2 -1</clus>
<clus scale="  180.650">  1  3  2 -1</clus>
</clustering>
</event>
<event>
 6    0  0.5563122E+002  0.1110163E+03  0.7546771E-02  0.1258699E+00
         21   -1    0    0  503  501  0.00000000000E+00  0.00000000000E+00  0.87075034088E+02  0.87075034088E+02  0.00000000000E+00 0.  1.
         21   -1    0    0  504  502 -0.00000000000E+00 -0.00000000000E+00 -0.50549971118E+03  0.50549971118E+03  0.00000000000E+00 0. -1.
         21    1    1    2  503  506  0.72918086283E+02  0.37803690413E+01 -0.71657432405E+02  0.10230408651E+03  0.00000000000E+00 0. -1.
         21    1    1    2  504  505 -0.56067259558E+02  0.94039312422E+01  0.18896828046E+02  0.59908777549E+02  0.00000000000E+00 0.  1.
         21    1    1    2  505  501 -0.72799131074E+02 -0.17548871851E+01 -0.14077941324E+02  0.74168602158E+02  0.00000000000E+00 0.  1.
         21    1    1    2  506  502  0.55948304350E+02 -0.11429413098E+02 -0.35158613141E+03  0.35619327905E+03  0.00000000000E+00 0. -1.
<scales pt_clust_3="105.05311" pt_clust_4="31.71593" pt_clust_5="31.71593" pt_clust_6="57.10380"></scales>
<clustering>
<clus scale="   31.716">  4  5 -1 -1</clus>
<clus scale="   57.104">  2  6  1 -1</clus>
<clus scale="  105.053">  2  3  1 -1</clus>
<clus scale="  111.016">  1  3  2 -1</clus>
</clustering>
</event>
<event>
 6    0  0.5563122E+002  0.2106881E+03  0.7546771E-02  0.1141022E+00
         21   -1    0    0  505  501  0.00000000000E+00  0.00000000000E+00  0.59188571122E+03  0.59188571122E+03  0.00000000000E+00 0.  1.
         21   -1    0    0  504  502 -0.00000000000E+00 -0.00000000000E+00 -0.19004048287E+03  0.19004048287E+03  0.00000000000E+00 0.  1.
         21    1    1    2  503  501 -0.21444197258E+02  0.39181618359E+02  0.19895054726E+03  0.20390285203E+03  0.00000000000E+00 0.  1.
         21    1    1    2  504  503 -0.17240570402E+03  0.13206669336E+02  0.29613520689E+03  0.34292011264E+03  0.00000000000E+00 0.  1.
         21    1    1    2  505  506  0.48153817190E+02 -0.15483391302E+02  0.11546521083E+02  0.51883019045E+02  0.00000000000E+00 0.  1.
         21    1    1    2  506  502  0.14569608409E+03 -0.36904896394E+02 -0.10478704688E+03  0.18322021037E+03  0.00000000000E+00 0.  1.
<scales pt_clust_3="44.66601" pt_clust_4="195.27432" pt_clust_5="45.16601" pt_clust_6="45.16601"></scales>
<clustering>
<clus scale="   44.666">  1  3  2 -1</clus>
<clus scale="   45.166">  5  6 -1 -1</clus>
<clus scale="  195.274">  1  4  2 -1</clus>
<clus scale="   44.666">  1  3  2 -1</clus>
</clustering>
</event>
<event>
 6    0  0.5563122E+002  0.1631748E+03  0.7546771E-02  0.1185158E+00
         21   -1    0    0  504  501  0.00000000000E+00  0.00000000000E+00  0.30017917056E+02  0.30017917056E+02  0.00000000000E+00 0.  1.
         21   -1    0    0  506  502 -0.00000000000E+00 -0.00000000000E+00 -0.14722784858E+04  0.14722784858E+04  0.00000000000E+00 0.  1.
         21    1    1    2  503  505 -0.89903292949E+02 -0.34931638212E+02 -0.27945990153E+03  0.29563602283E+03  0.00000000000E+00 0.  1.
         21    1    1    2  504  503 -0.11740398951E+02  0.84512876970E+02 -0.24024714030E+03  0.25494891991E+03  0.00000000000E+00 0.  1.
         21    1    1    2  505  502 -0.62562548911E+02 -0.14111966272E+01 -0.25735484299E+03  0.26485388276E+03  0.00000000000E+00 0.  1.
         21    1    1    2  506  501  0.16420624081E+03 -0.48170042130E+02 -0.66519868394E+03  0.68685757737E+03  0.00000000000E+00 0.  1.
<scales pt_clust_3="30.26993" pt_clust_4="85.32446" pt_clust_5="30.26993" pt_clust_6="158.78847"></scales>
<clustering>
<clus scale="   30.270">  3  5 -1 -1</clus>
<clus scale="   85.324">  1  4  2 -1</clus>
<clus scale="  158.788">  2  6  1 -1</clus>
<clus scale="   85.324">  1  3  2 -1</clus>
</clustering>
</event>
<event>
 6    0  0.5563122E+002  0.9633705E+02  0.7546771E-02  0.1288193E+00
         21   -1    0    0  505  501  0.00000000000E+00  0.00000000000E+00  0.26804579437E+04  0.26804579437E+04  0.00000000000E+00 0.  1.
         21   -1    0    0  503  502 -0.00000000000E+00 -0.00000000000E+00 -0.74986152936E+02  0.74986152936E+02  0.00000000000E+00 0.  1.
         21    1    1    2  503  501  0.50205150019E+02 -0.22359033031E+01 -0.37886810666E+02  0.62936211949E+02  0.00000000000E+00 0.  1.
         21    1    1    2  504  506 -0.10612286665E+03 -0.47318321042E+02  0.18922637750E+03  0.22205339059E+03  0.00000000000E+00 0.  1.
         21    1    1    2  505  504  0.44937825160E+02  0.85451360453E+02  0.24123680808E+04  0.24142992980E+04  0.00000000000E+00 0.  1.
         21    1    1    2  506  502  0.10979891471E+02 -0.35897136107E+02  0.41764143204E+02  0.56155196153E+02  0.00000000000E+00 0. -1.
<scales pt_clust_3="65.14630" pt_clust_4="96.33705" pt_clust_5="14000.00000" pt_clust_6="37.53881"></scales>
<clustering>
<clus scale="   37.539">  2  6  1 -1</clus>
<clus scale="   65.146">  2  3  1 -1</clus>
<clus scale="   96.337">  2  4  1 -1</clus>
<clus scale="   96.337">  1  3  2 -1</clus>
</clustering>
</event>
<event>
 6    0  0.1016783E+003  0.1030252E+03  0.7546771E-02  0.1274060E+00
         21   -1    0    0  503  501  0.00000000000E+00  0.00000000000E+00  0.29968506115E+03  0.29968506115E+03  0.00000000000E+00 0. -1.
         21   -1    0    0  505  502 -0.00000000000E+00 -0.00000000000E+00 -0.18679465078E+04  0.18679465078E+04  0.00000000000E+00 0. -1.
         21    1    1    2  503  504  0.46395890291E+01 -0.46878529891E+02  0.60937996800E+02  0.77023125132E+02  0.00000000000E+00 0. -1.
         21    1    1    2  504  502 -0.30919565349E+02 -0.44132974934E+02 -0.14362397478E+02  0.55767530510E+02  0.00000000000E+00 0.  1.
         21    1    1    2  505  506  0.91187394714E+02  0.48935789741E+02 -0.18161926843E+04  0.18191387300E+04  0.00000000000E+00 0. -1.
         21    1    1    2  506  501 -0.64907418394E+02  0.42075715085E+02  0.20135563837E+03  0.21570218327E+03  0.00000000000E+00 0. -1.
<scales pt_clust_3="47.10756" pt_clust_4="57.15918" pt_clust_5="103.02522" pt_clust_6="14000.00000"></scales>
<clustering>
<clus scale="   47.108">  1  3  2 -1</clus>
<clus scale="   57.159">  1  4  2 -1</clus>
<clus scale="  103.025">  2  5  1 -1</clus>
<clus scale="   47.108">  1  3  2 -1</clus>
</clustering>
</event>
<event>
 6    0  0.5563122E+002  0.3646419E+03  0.7546771E-02  0.1056761E+00
         21   -1    0    0  506  501  0.00000000000E+00  0.00000000000E+00  0.73215237822E+03  0.73215237822E+03  0.00000000000E+00 0. -1.
         21   -1    0    0  504  502 -0.00000000000E+00 -0.00000000000E+00 -0.33857551823E+03  0.33857551823E+03  0.00000000000E+00 0. -1.
         21    1    1    2  503  501  0.47568860595E+02 -0.11878675499E+03  0.48641735820E+02  0.13689086209E+03  0.00000000000E+00 0. -1.
         21    1    1    2  504  505  0.12150967871E+02 -0.28212803708E+02 -0.15161897609E+03  0.15469945773E+03  0.00000000000E+00 0. -1.
         21    1    1    2  505  503  0.43095795144E+02 -0.21367089028E+03  0.12529625431E+03  0.25141926787E+03  0.00000000000E+00 0. -1.
         21    1    1    2  506  502 -0.10281562361E+03  0.36067044897E+03  0.37125784595E+03  0.52771830876E+03  0.00000000000E+00 0. -1.
<scales pt_clust_3="32.50147" pt_clust_4="30.71821" pt_clust_5="32.50147" pt_clust_6="362.18993"></scales>
<clustering>
<clus scale="   30.718">  2  4  1 -1</clus>
<clus scale="   32.501">  3  5 -1 -1</clus>
<clus scale="  362.190">  1  6  2 -1</clus>
<clus scale="  362.190">  1  3  2 -1</clus>
</clustering>
</event>
<event>
 6    0  0.5563122E+002  0.1195344E+03  0.7546771E-02  0.1243867E+00
         21   -1    0    0  502  501  0.00000000000E+00  0.00000000000E+00  0.89807929810E+02  0.89807929810E+02  0.00000000000E+00 0. -1.
         21   -1    0    0  505  502 -0.00000000000E+00 -0.00000000000E+00 -0.78538402435E+03  0.78538402435E+03  0.00000000000E+00 0.  1.
         21    1    1    2  503  504 -0.38169196819E+02 -0.66246299443E+02 -0.51276519856E+01  0.76627361892E+02  0.00000000000E+00 0. -1.
         21    1    1    2  504  501  0.27368548914E+02  0.13369475450E+02  0.18149295138E+02  0.35456695524E+02  0.00000000000E+00 0.  1.
         21    1    1    2  505  506 -0.60800222029E+01  0.10609083871E+03 -0.69829943851E+03  0.70633868544E+03  0.00000000000E+00 0.  1.
         21    1    1    2  506  503  0.16880670108E+02 -0.53214014718E+02 -0.10298299182E+02  0.56769211301E+02  0.00000000000E+00 0. -1.
<scales pt_clust_3="49.91654" pt_clust_4="30.45949" pt_clust_5="107.03157" pt_clust_6="49.91654"></scales>
<clustering>
<clus scale="   30.459">  1  4  2 -1</clus>
<clus scale="   49.917">  3  6 -1 -1</clus>
<clus scale="  107.032">  2  5  1 -1</clus>
<clus scale="   30.459">  1  3  2 -1</clus>
</clustering>
</event>
<event>
 6    0  0.5563122E+002  0.1607875E+03  0.7546771E-02  0.1187811E+00
         21   -1    0    0  506  501  0.00000000000E+00  0.00000000000E+00  0.14507848560E+03  0.14507848560E+03  0.00000000000E+00 0.  1.
         21   -1    0    0  504  502 -0.00000000000E+00 -0.00000000000E+00 -0.35545736395E+03  0.35545736395E+03  0.00000000000E+00 0.  1.
         21    1    1    2  503  502 -0.69446737052E+02  0.84342298144E+02 -0.19319331746E+02  0.11094912853E+03  0.00000000000E+00 0.  1.
         21    1    1    2  504  505  0.67266568565E+02 -0.13739929475E+03 -0.25052735113E+03  0.29354269043E+03  0.00000000000E+00 0.  1.
         21    1    1    2  505  501  0.27837031176E+02  0.29970216882E+02  0.32429237081E+02  0.52199325880E+02  0.00000000000E+00 0.  1.
         21    1    1    2  506  503 -0.25656862689E+02  0.23086779724E+02  0.27038567447E+02  0.43844704705E+02  0.00000000000E+00 0.  1.
<scales pt_clust_3="32.36539" pt_clust_4="150.12250" pt_clust_5="40.90372" pt_clust_6="32.36539"></scales>
<clustering>
<clus scale="   32.365">  3  6 -1 -1</clus>
<clus scale="   40.904">  1  5  2 -1</clus>
<clus scale="  150.122">  2  4  1 -1</clus>
<clus scale="   40.904">  1  3  2 -1</clus>
</clustering>
</event>
<event>
 6    0  0.5563122E+002  0.1644974E+03  0.7546771E-02  0.1183711E+00
         21   -1    0    0  504  501  0.00000000000E+00  0.00000000000E+00  0.16580497782E+04  0.16580497782E+04  0.00000000000E+00 0. -1.
         21   -1    0    0  503  502 -0.00000000000E+00 -0.00000000000E+00 -0.16046126903E+03  0.16046126903E+03  0.00000000000E+00 0. -1.
         21    1    1    2  503  506  0.10745322251E+03  0.34240808024E+02 -0.77990698376E+02  0.13711738400E+03  0.00000000000E+00 0. -1.
         21    1    1    2  504  502 -0.58963556214E+02  0.19844224521E+03  0.39627395551E+03  0.44708955866E+03  0.00000000000E+00 0. -1.
         21    1    1    2  505  501 -0.67542286326E+02 -0.90619000615E+02  0.99214845181E+03  0.99856512764E+03  0.00000000000E+00 0. -1.
         21    1    1    2  506  505  0.19052620033E+02 -0.14206405262E+03  0.18715680024E+03  0.23573897695E+03  0.00000000000E+00 0. -1.
<scales pt_clust_3="112.77689" pt_clust_4="164.49736" pt_clust_5="107.53602" pt_clust_6="14000.00000"></scales>
<clustering>
<clus scale="  112.777">  2  3  1 -1</clus>
<clus scale="  107.536">  1  5  2 -1</clus>
<clus scale="  164.497">  1  4  2 -1</clus>
<clus scale="  107.536">  1  3  2 -1</clus>
</clustering>
</event>
<event>
 6    0  0.5563122E+002  0.1549973E+03  0.7546771E-02  0.1194463E+00
         21   -1    0    0  506  501  0.00000000000E+00  0.00000000000E+00  0.69919793533E+02  0.69919793533E+02  0.00000000000E+00 0.  1.
         21   -1    0    0  505  502 -0.00000000000E+00 -0.00000000000E+00 -0.23375889196E+04  0.23375889196E+04  0.00000000000E+00 0.  1.
         21    1    1    2  503  501 -0.29640602899E+01 -0.72169089216E+02  0.30514053528E+02  0.78410908390E+02  0.00000000000E+00 0.  1.
         21    1    1    2  504  502  0.86380117150E+02  0.14068012702E+03 -0.15906973410E+04  0.15992405865E+04  0.00000000000E+00 0.  1.
         21    1    1    2  505  503 -0.85328432959E+02 -0.10759296836E+03 -0.59875169866E+03  0.61429698433E+03  0.00000000000E+00 0.  1.
         21    1    1    2  506  504  0.19123760996E+01  0.39081930558E+02 -0.10873413990E+03  0.11556023390E+03  0.00000000000E+00 0.  1.
<scales pt_clust_3="40.18916" pt_clust_4="14000.00000" pt_clust_5="154.99725" pt_clust_6="39.12869"></scales>
<clustering>
<clus scale="   39.129">  1  6  2 -1</clus>
<clus scale="   40.189">  1  3  2 -1</clus>
<clus scale="  154.997">  1  5  2 -1</clus>
<clus scale="   39.129">  1  3  2 -1</clus>
</clustering>
</event>
<event>
 6    0  0.5563122E+002  0.1388145E+03  0.7546771E-02  0.1214933E+00
         21   -1    0    0  503  501  0.00000000000E+00  0.00000000000E+00  0.15928329403E+03  0.15928329403E+03  0.00000000000E+00 0.  1.
         21   -1    0    0  504  502 -0.00000000000E+00 -0.00000000000E+00 -0.38730552199E+03  0.38730552199E+03  0.00000000000E+00 0.  1.
         21    1    1    2  503  505 -0.16269403767E+02 -0.33803598798E+02  0.37798443818E+02  0.53255038689E+02  0.00000000000E+00 0. -1.
         21    1    1    2  504  501  0.14943311542E+03  0.51127036302E+02 -0.12683441357E+03  0.20256159135E+03  0.00000000000E+00 0.  1.
         21    1    1    2  505  506 -0.90973888540E+02 -0.16967719142E+02  0.44366187770E+02  0.10262802008E+03  0.00000000000E+00 0.  1.
         21    1    1    2  506  502 -0.42189823116E+02 -0.35571836215E+00 -0.18335244598E+03  0.18814416589E+03  0.00000000000E+00 0.  1.
<scales pt_clust_3="37.50372" pt_clust_4="125.69735" pt_clust_5="37.50372" pt_clust_6="42.19132"></scales>
<clustering>
<clus scale="   37.504">  3  5 -1 -1</clus>
<clus scale="   42.191">  2  6  1 -1</clus>
<clus scale="  125.697">  2  4  1 -1</clus>
<clus scale="  138.815">  1  3  2 -1</clus>
</clustering>
</event>
<event>
 6    0  0.5563122E+002  0.1141483E+03  0.7546771E-02  0.1253075E+00
         21   -1    0    0  503  501  0.00000000000E+00  0.00000000000E+00  0.15089942010E+03  0.15089942010E+03  0.00000000000E+00 0.  1.
         21   -1    0    0  506  502 -0.00000000000E+00 -0.00000000000E+00 -0.12546251768E+03  0.12546251768E+03  0.00000000000E+00 0.  1.
         21    1    1    2  503  504 -0.18013578363E+02  0.45746795393E+02  0.12047160331E+02  0.50620078687E+02  0.00000000000E+00 0.  1.
         21    1    1    2  504  505  0.50656053845E+02  0.12498042330E+02  0.39821931847E+02  0.65635532368E+02  0.00000000000E+00 0.  1.
         21    1    1    2  505  502  0.53610771664E+02  0.24340153849E+00 -0.11461599013E+02  0.54822826766E+02  0.00000000000E+00 0.  1.
         21    1    1    2  506  501 -0.86253247146E+02 -0.58488239261E+02 -0.14970590744E+02  0.10528349995E+03  0.00000000000E+00 0.  1.
<scales pt_clust_3="49.16562" pt_clust_4="50.37093" pt_clust_5="50.37093" pt_clust_6="101.77353"></scales>
<clustering>
<clus scale="   49.166">  1  3  2 -1</clus>
<clus scale="   50.371">  4  5 -1 -1</clus>
<clus scale="  101.774">  2  6  1 -1</clus>
<clus scale="   49.166">  1  3  2 -1</clus>
</clustering>
</event>
<event>
 6    0  0.5563122E+002  0.1283979E+03  0.7546771E-02  0.1229852E+00
         21   -1    0    0  506  501  0.00000000000E+00  0.00000000000E+00  0.51470552417E+03  0.51470552417E+03  0.00000000000E+00 0.  1.
         21   -1    0    0  505  502 -0.00000000000E+00 -0.00000000000E+00 -0.12534352453E+03  0.12534352453E+03  0.00000000000E+00 0. -1.
         21    1    1    2  503  504 -0.72759770161E+02  0.13063043606E+03 -0.15776559093E+02  0.15035689141E+03  0.00000000000E+00 0. -1.
         21    1    1    2  504  501  0.81663116613E+02 -0.32224249103E+02  0.26529536725E+03  0.27944390981E+03  0.00000000000E+00 0.  1.
         21    1    1    2  505  503  0.33730684507E+02  0.10628137464E+02  0.13113669825E+02  0.37718493071E+02  0.00000000000E+00 0. -1.
         21    1    1    2  506  502 -0.42634030959E+02 -0.10903432442E+03  0.12672952166E+03  0.17252975441E+03  0.00000000000E+00 0. -1.
<scales pt_clust_3="14000.00000" pt_clust_4="89.52132" pt_clust_5="35.36547" pt_clust_6="128.39791"></scales>
<clustering>
<clus scale="   35.365">  2  5  1 -1</clus>
<clus scale="   89.521">  1  4  2 -1</clus>
<clus scale="  128.398">  1  6  2 -1</clus>
<clus scale="   89.521">  1  3  2 -1</clus>
</clustering>
</event>
<event>
 6    0  0.5563122E+002  0.1508884E+03  0.7546771E-02  0.1199386E+00
         21   -1    0    0  502  501  0.00000000000E+00  0.00000000000E+00  0.11072274760E+02  0.11072274760E+02  0.00000000000E+00 0. -1.
         21   -1    0    0  504  502 -0.00000000000E+00 -0.00000000000E+00 -0.21894972416E+04  0.21894972416E+04  0.00000000000E+00 0. -1.
         21    1    1    2  503  501 -0.45091969714E+02  0.92062768354E+01 -0.22923758962E+03  0.23381170578E+03  0.00000000000E+00 0. -1.
         21    1    1    2  504  506  0.21902775888E+02  0.33735320211E+02 -0.48538881815E+03  0.48705246966E+03  0.00000000000E+00 0. -1.
         21    1    1    2  505  503 -0.82037276313E+02 -0.65056573350E+02 -0.57823547489E+03  0.58763827042E+03  0.00000000000E+00 0. -1.
         21    1    1    2  506  505  0.10522647014E+03  0.22114976303E+02 -0.88556308414E+03  0.89206707045E+03  0.00000000000E+00 0. -1.
<scales pt_clust_3="39.14564" pt_clust_4="34.49237" pt_clust_5="39.14564" pt_clust_6="149.87190"></scales>
<clustering>
<clus scale="   34.492">  4  6 -1 -1</clus>
<clus scale="   39.146">  3  5 -1 -1</clus>
<clus scale="  149.872">  2  4  1 -1</clus>
<clus scale="  150.888">  1  3  2 -1</clus>
</clustering>
</event>
<event>
 6    0  0.5563122E+002  0.1032576E+03  0.7546771E-02  0.1273591E+00
         21   -1    0    0  504  501  0.00000000000E+00  0.00000000000E+00  0.30142874948E+03  0.30142874948E+03  0.00000000000E+00 0. -1.
         21   -1    0    0  503  502 -0.00000000000E+00 -0.00000000000E+00 -0.27098366135E+03  0.27098366135E+03  0.00000000000E+00 0. -1.
         21    1    1    2  503  501 -0.19183986317E+02 -0.46056992144E+02  0.19133413734E+03  0.19773220266E+03  0.00000000000E+00 0. -1.
         21    1    1    2  504  506 -0.20293124900E+02  0.29835549231E+02  0.28373972761E+02  0.45902649666E+02  0.00000000000E+00 0. -1.
         21    1    1    2  505  502  0.35458508214E+02  0.10237037736E+03 -0.21331018786E+03  0.23924513833E+03  0.00000000000E+00 0. -1.
         21    1    1    2  506  505  0.40186030024E+01 -0.86148934451E+02  0.24047165887E+02  0.89532420186E+02  0.00000000000E+00 0. -1.
<scales pt_clust_3="41.77161" pt_clust_4="36.08283" pt_clust_5="103.25758" pt_clust_6="14000.00000"></scales>
<clustering>
<clus scale="   36.083">  1  4  2 -1</clus>
<clus scale="   41.772">  1  3  2 -1</clus>
<clus scale="  103.258">  2  5  1 -1</clus>
<clus scale="   36.083">  1  3  2 -1</clus>
</clustering>
</event>
<event>
 6    0  0.5563122E+002  0.1428087E+03  0.7546771E-02  0.1209599E+00
         21   -1    0    0  505  501  0.00000000000E+00  0.00000000000E+00  0.11698557317E+03  0.11698557317E+03  0.00000000000E+00 0. -1.
         21   -1    0    0  503  502 -0.00000000000E+00 -0.00000000000E+00 -0.17139188746E+03  0.17139188746E+03  0.00000000000E+00 0. -1.
         21    1    1    2  503  504  0.21099349739E+02 -0.99525723902E+02 -0.24546086206E+02  0.10465688045E+03  0.00000000000E+00 0. -1.
         21    1    1    2  504  501 -0.26038942053E+02 -0.28663168466E+02  0.65723459088E+01  0.39278485975E+02  0.00000000000E+00 0. -1.
         21    1    1    2  505  506  0.29697400865E+02  0.61852642588E+02 -0.12797622326E+02  0.69795874882E+02  0.00000000000E+00 0. -1.
         21    1    1    2  506  502 -0.24757808551E+02  0.66336249779E+02 -0.23634951667E+02  0.74646219324E+02  0.00000000000E+00 0. -1.
<scales pt_clust_3="38.71381" pt_clust_4="38.71381" pt_clust_5="54.62613" pt_clust_6="139.77191"></scales>
<clustering>
<clus scale="   38.714">  3  4 -1 -1</clus>
<clus scale="   54.626">  5  6 -1 -1</clus>
<clus scale="  139.772">  2  5  1 -1</clus>
<clus scale="  142.809">  1  3  2 -1</clus>
</clustering>
</event>
<event>
 6    0  0.5563122E+002  0.3021016E+03  0.7546771E-02  0.1084195E+00
         21   -1    0    0  505  501  0.00000000000E+00  0.00000000000E+00  0.24923754950E+03  0.24923754950E+03  0.00000000000E+00 0. -1.
         21   -1    0    0  503  502 -0.00000000000E+00 -0.00000000000E+00 -0.11096582495E+04  0.11096582495E+04  0.00000000000E+00 0. -1.
         21    1    1    2  503  506  0.81462442850E+01 -0.64539520744E+02 -0.59507882885E+02  0.88164046864E+02  0.00000000000E+00 0. -1.
         21    1    1    2  504  501 -0.18508879265E+02  0.28579284956E+02 -0.10505298354E+02  0.35633066578E+02  0.00000000000E+00 0. -1.
         21    1    1    2  505  502 -0.28178717158E+03  0.16891262307E+03 -0.84761763723E+03  0.90906058282E+03  0.00000000000E+00 0. -1.
         21    1    1    2  506  504  0.29214980656E+03 -0.13295238728E+03  0.57210118501E+02  0.32603810271E+03  0.00000000000E+00 0. -1.
<scales pt_clust_3="63.20107" pt_clust_4="34.04929" pt_clust_5="302.10165" pt_clust_6="14000.00000"></scales>
<clustering>
<clus scale="   34.049">  1  4  2 -1</clus>
<clus scale="   63.201">  2  3  1 -1</clus>
<clus scale="  302.102">  2  5  1 -1</clus>
<clus scale="   34.049">  1  3  2 -1</clus>
</clustering>
</event>
<event>
 6    0  0.5563122E+002  0.5847574E+02  0.7546771E-02  0.1404342E+00
         21   -1    0    0  506  501  0.00000000000E+00  0.00000000000E+00  0.26042396999E+04  0.26042396999E+04  0.00000000000E+00 0. -1.
         21   -1    0    0  503  502 -0.00000000000E+00 -0.00000000000E+00 -0.61402866350E+02  0.61402866350E+02  0.00000000000E+00 0.  1.
         21    1    1    2  503  504 -0.27532375264E+02  0.40750328110E+02  0.12143645136E+03  0.13101691741E+03  0.00000000000E+00 0. -1.
         21    1    1    2  504  501  0.43236072827E+00  0.76272832372E+02  0.72439813818E+02  0.10519153255E+03  0.00000000000E+00 0.  1.
         21    1    1    2  505  502  0.53196741865E+02 -0.64943619688E+02  0.43103422475E+01  0.84060371957E+02  0.00000000000E+00 0.  1.
         21    1    1    2  506  505 -0.26096727330E+02 -0.52079540794E+02  0.23446502261E+04  0.23453737444E+04  0.00000000000E+00 0. -1.
<scales pt_clust_3="49.17948" pt_clust_4="14000.00000" pt_clust_5="49.55965" pt_clust_6="58.47574"></scales>
<clustering>
<clus scale="   49.179">  2  3  1 -1</clus>
<clus scale="   49.560">  2  5  1 -1</clus>
<clus scale="   58.476">  1  6  2 -1</clus>
<clus scale="   58.476">  1  3  2 -1</clus>
</clustering>
</event>
<event>
 6    0  0.5563122E+002  0.9808079E+02  0.7546771E-02  0.1284384E+00
         21   -1    0    0  505  501  0.00000000000E+00  0.00000000000E+00  0.10604963688E+03  0.10604963688E+03  0.00000000000E+00 0.  1.
         21   -1    0    0  503  502 -0.00000000000E+00 -0.00000000000E+00 -0.74764185248E+03  0.74764185248E+03  0.00000000000E+00 0. -1.
         21    1    1    2  503  504 -0.48104385722E+02 -0.31761681160E+02 -0.58905644544E+03  0.59187019881E+03  0.00000000000E+00 0. -1.
         21    1    1    2  504  501  0.43897736829E+02  0.13784697236E+02  0.12163336740E+02  0.47591763334E+02  0.00000000000E+00 0.  1.
         21    1    1    2  505  506 -0.54374416505E+02  0.90752465189E+02 -0.10730508104E+02  0.10633781506E+03  0.00000000000E+00 0.  1.
         21    1    1    2  506  502  0.58581065398E+02 -0.72775481265E+02 -0.53968598787E+02  0.10789171215E+03  0.00000000000E+00 0.  1.
<scales pt_clust_3="56.82765" pt_clust_4="46.01119" pt_clust_5="14000.00000" pt_clust_6="98.08079"></scales>
<clustering>
<clus scale="   46.011">  1  4  2 -1</clus>
<clus scale="   56.828">  2  3  1 -1</clus>
<clus scale="   98.081">  2  6  1 -1</clus>
<clus scale="   46.011">  1  3  2 -1</clus>
</clustering>
</event>
<event>
 6    0  0.5563122E+002  0.7535241E+02  0.7546771E-02  0.1342783E+00
         21   -1    0    0  504  501  0.00000000000E+00  0.00000000000E+00  0.16769666665E+03  0.16769666665E+03  0.00000000000E+00 0. -1.
         21   -1    0    0  503  502 -0.00000000000E+00 -0.00000000000E+00 -0.18040473205E+03  0.18040473205E+03  0.00000000000E+00 0.  1.
         21    1    1    2  503  505  0.39183234263E+01 -0.43843882679E+02 -0.44872440990E+02  0.62858374678E+02  0.00000000000E+00 0.  1.
         21    1    1    2  504  506  0.63724466333E+02 -0.19314885968E+02 -0.55756673318E+02  0.86848598427E+02  0.00000000000E+00 0.  1.
         21    1    1    2  505  501 -0.77417232869E+02 -0.19309986234E+01  0.10492999055E+03  0.13041265130E+03  0.00000000000E+00 0. -1.
         21    1    1    2  506  502  0.97744431100E+01  0.65089767270E+02 -0.17008941648E+02  0.67981774303E+02  0.00000000000E+00 0.  1.
<scales pt_clust_3="44.01862" pt_clust_4="75.35241" pt_clust_5="14000.00000" pt_clust_6="51.57236"></scales>
<clustering>
<clus scale="   44.019">  2  3  1 -1</clus>
<clus scale="   51.572">  2  6  1 -1</clus>
<clus scale="   75.352">  2  4  1 -1</clus>
<clus scale="   75.352">  1  3  2 -1</clus>
</clustering>
</event>
<event>
 6    0  0.5563122E+002  0.7576735E+02  0.7546771E-02  0.1341511E+00
         21   -1    0    0  503  501  0.00000000000E+00  0.00000000000E+00  0.57443933423E+03  0.57443933423E+03  0.00000000000E+00 0.  1.
         21   -1    0    0  505  502 -0.00000000000E+00 -0.00000000000E+00 -0.11716599704E+03  0.11716599704E+03  0.00000000000E+00 0.  1.
         21    1    1    2  503  502  0.12779569951E+03  0.48820930033E+02  0.29284135940E+02  0.13990276852E+03  0.00000000000E+00 0.  1.
         21    1    1    2  504  506 -0.59419807069E+01 -0.57202698623E+02 -0.30903158099E+01  0.57593453763E+02  0.00000000000E+00 0.  1.
         21    1    1    2  505  504 -0.49130148521E+02  0.11559867533E+02 -0.61647786542E+01  0.50846892992E+02  0.00000000000E+00 0.  1.
         21    1    1    2  506  501 -0.72723570282E+02 -0.31780989436E+01  0.43724429572E+03  0.44326221599E+03  0.00000000000E+00 0.  1.
<scales pt_clust_3="75.76735" pt_clust_4="57.90526" pt_clust_5="50.47179" pt_clust_6="14000.00000"></scales>
<clustering>
<clus scale="   50.472">  2  5  1 -1</clus>
<clus scale="   57.905">  2  4  1 -1</clus>
<clus scale="   75.767">  2  3  1 -1</clus>
<clus scale="   75.767">  1  3  2 -1</clus>
</clustering>
</event>
<event>
 6    0  0.5563122E+002  0.1037912E+03  0.7546771E-02  0.1272520E+00
         21   -1    0    0  503  501  0.00000000000E+00  0.00000000000E+00  0.49953024362E+02  0.49953024362E+02  0.00000000000E+00 0.  1.
         21   -1    0    0  504  502 -0.00000000000E+00 -0.00000000000E+00 -0.64362415975E+03  0.64362415975E+03  0.00000000000E+00 0.  1.
         21    1    1    2  503  502  0.12489406009E+03  0.15264067734E+02 -0.16185314845E+03  0.20500721858E+03  0.00000000000E+00 0.  1.
         21    1    1    2  504  505 -0.56882815104E+02 -0.18199799528E+02 -0.25473282678E+03  0.26164040283E+03  0.00000000000E+00 0.  1.
         21    1    1    2  505  506 -0.92788413179E+02  0.36704986970E+02 -0.11859283455E+03  0.15498776112E+03  0.00000000000E+00 0.  1.
         21    1    1    2  506  501  0.24777168198E+02 -0.33769255175E+02 -0.58492325604E+02  0.71941801572E+02  0.00000000000E+00 0.  1.
<scales pt_clust_3="14000.00000" pt_clust_4="58.74591" pt_clust_5="103.79124" pt_clust_6="41.88401"></scales>
<clustering>
<clus scale="   41.884">  1  6  2 -1</clus>
<clus scale="   58.746">  2  4  1 -1</clus>
<clus scale="  103.791">  1  5  2 -1</clus>
<clus scale="   41.884">  1  3  2 -1</clus>
</clustering>
</event>
<event>
 6    0  0.5563122E+002  0.8386681E+02  0.7546771E-02  0.1318423E+00
         21   -1    0    0  503  501  0.00000000000E+00  0.00000000000E+00  0.30491700315E+02  0.30491700315E+02  0.00000000000E+00 0.  1.
         21   -1    0    0  506  502 -0.00000000000E+00 -0.00000000000E+00 -0.82070303809E+03  0.82070303809E+03  0.00000000000E+00 0. -1.
         21    1    1    2  503  504  0.88893465821E+01 -0.56027636555E+02 -0.72575243684E+02  0.92115593340E+02  0.00000000000E+00 0.  1.
         21    1    1    2  504  505  0.12409475015E+02  0.56937534509E+02 -0.13480916479E+03  0.14686520628E+03  0.00000000000E+00 0. -1.
         21    1    1    2  505  502  0.67604839024E+02 -0.13504261168E+02 -0.10224639365E+03  0.12331708861E+03  0.00000000000E+00 0.  1.
         21    1    1    2  506  501 -0.88903660621E+02  0.12594363214E+02 -0.48058053565E+03  0.48889685017E+03  0.00000000000E+00 0. -1.
<scales pt_clust_3="56.72845" pt_clust_4="43.31710" pt_clust_5="83.86681" pt_clust_6="14000.00000"></scales>
<clustering>
<clus scale="   56.728">  1  3  2 -1</clus>
<clus scale="   43.317">  1  4  2 -1</clus>
<clus scale="   83.867">  1  5  2 -1</clus>
<clus scale="   56.728">  1  3  2 -1</clus>
</clustering>
</event>
<event>
 6    0  0.5563122E+002  0.1614493E+03  0.7546771E-02  0.1187070E+00
         21   -1    0    0  506  501  0.00000000000E+00  0.00000000000E+00  0.14432306512E+04  0.14432306512E+04  0.00000000000E+00 0. -1.
         21   -1    0    0  501  502 -0.00000000000E+00 -0.00000000000E+00 -0.25186734676E+03  0.25186734676E+03  0.00000000000E+00 0.  1.
         21    1    1    2  503  502 -0.41589132262E+02  0.22777340975E+02 -0.44575388293E+02  0.65080169220E+02  0.00000000000E+00 0. -1.
         21    1    1    2  504  503 -0.17110104206E+02  0.83299300158E+02 -0.10001204200E+03  0.13127809268E+03  0.00000000000E+00 0.  1.
         21    1    1    2  505  504  0.26781168842E+02  0.45270702495E+02 -0.68182141483E+02  0.86113134458E+02  0.00000000000E+00 0.  1.
         21    1    1    2  506  505  0.31918067625E+02 -0.15134734363E+03  0.14041328762E+04  0.14126266016E+04  0.00000000000E+00 0. -1.
<scales pt_clust_3="47.41796" pt_clust_4="38.09213" pt_clust_5="38.09213" pt_clust_6="154.01300"></scales>
<clustering>
<clus scale="   38.092">  4  5 -1 -1</clus>
<clus scale="   47.418">  2  3  1 -1</clus>
<clus scale="  154.013">  1  6  2 -1</clus>
<clus scale="  154.013">  1  3  2 -1</clus>
</clustering>
</event>
<event>
 6    0  0.5563122E+002  0.8865698E+02  0.7546771E-02  0.1306137E+00
         21   -1    0    0  505  501  0.00000000000E+00  0.00000000000E+00  0.38413896338E+03  0.38413896338E+03  0.00000000000E+00 0.  1.
         21   -1    0    0  506  502 -0.00000000000E+00 -0.00000000000E+00 -0.18157508525E+03  0.18157508525E+03  0.00000000000E+00 0.  1.
         21    1    1    2  503  502 -0.95230466010E+02 -0.25562507259E+02 -0.10953434357E+03  0.14737725691E+03  0.00000000000E+00 0.  1.
         21    1    1    2  504  501 -0.69206976734E+01 -0.37061487847E+02  0.31816937345E+01  0.37836135013E+02  0.00000000000E+00 0. -1.
         21    1    1    2  505  503  0.71653865950E+02  0.51918977339E+02  0.33016716617E+03  0.34181897889E+03  0.00000000000E+00 0.  1.
         21    1    1    2  506  504  0.30497297734E+02  0.10705017767E+02 -0.21250638201E+02  0.38681677812E+02  0.00000000000E+00 0.  1.
<scales pt_clust_3="88.65698" pt_clust_4="36.00228" pt_clust_5="14000.00000" pt_clust_6="32.32155"></scales>
<clustering>
<clus scale="   32.322">  2  6  1 -1</clus>
<clus scale="   36.002">  2  4  1 -1</clus>
<clus scale="   88.657">  2  3  1 -1</clus>
<clus scale="   88.657">  1  3  2 -1</clus>
</clustering>
</event>
<event>
 6    0  0.5563122E+002  0.5771806E+02  0.7546771E-02  0.1407665E+00
         21   -1    0    0  505  501  0.00000000000E+00  0.00000000000E+00  0.62556683972E+03  0.62556683972E+03  0.00000000000E+00 0. -1.
         21   -1    0    0  506  502 -0.00000000000E+00 -0.00000000000E+00 -0.23379291465E+04  0.23379291465E+04  0.00000000000E+00 0.  1.
         21    1    1    2  503  501  0.37059561328E+02  0.44236753967E+02  0.61083858138E+03  0.61355853347E+03  0.00000000000E+00 0. -1.
         21    1    1    2  504  502 -0.37294700787E+02  0.15318536763E+02 -0.11455707520E+04  0.11462800269E+04  0.00000000000E+00 0.  1.
         21    1    1    2  505  504 -0.23328384089E+02  0.45445526144E+02 -0.51995748987E+02  0.72890789976E+02  0.00000000000E+00 0. -1.
         21    1    1    2  506  503  0.23563523547E+02 -0.10500081687E+03 -0.11256343872E+04  0.11307666359E+04  0.00000000000E+00 0.  1.
<scales pt_clust_3="57.71806" pt_clust_4="40.31814" pt_clust_5="52.70730" pt_clust_6="14000.00000"></scales>
<clustering>
<clus scale="   40.318">  2  4  1 -1</clus>
<clus scale="   52.707">  2  5  1 -1</clus>
<clus scale="   57.718">  1  3  2 -1</clus>
<clus scale="   57.718">  1  3  2 -1</clus>
</clustering>
</event>
<event>
 6    0  0.5563122E+002  0.1274971E+03  0.7546771E-02  0.1231218E+00
         21   -1    0    0  503  501  0.00000000000E+00  0.00000000000E+00  0.39633477442E+03  0.39633477442E+03  0.00000000000E+00 0.  1.
         21   -1    0    0  505  502 -0.00000000000E+00 -0.00000000000E+00 -0.75365809890E+02  0.75365809890E+02  0.00000000000E+00 0.  1.
         21    1    1    2  503  504  0.20456185060E+02  0.84909974136E+02  0.13711288005E+03  0.16256722022E+03  0.00000000000E+00 0.  1.
         21    1    1    2  504  502 -0.95108034513E+01  0.41159700488E+02  0.14219806892E+03  0.14834037593E+03  0.00000000000E+00 0.  1.
         21    1    1    2  505  506  0.11920047598E+02 -0.28058046346E+02 -0.25546705089E+02  0.39774057379E+02  0.00000000000E+00 0.  1.
         21    1    1    2  506  501 -0.22865429206E+02 -0.98011628278E+02  0.67204720657E+02  0.12101893079E+03  0.00000000000E+00 0.  1.
<scales pt_clust_3="36.28980" pt_clust_4="36.28980" pt_clust_5="30.48510" pt_clust_6="116.70452"></scales>
<clustering>
<clus scale="   30.485">  2  5  1 -1</clus>
<clus scale="   36.290">  3  4 -1 -1</clus>
<clus scale="  116.705">  2  6  1 -1</clus>
<clus scale="  127.497">  1  3  2 -1</clus>
</clustering>
</event>
<event>
 6    0  0.5563122E+002  0.1441381E+03  0.7546771E-02  0.1207867E+00
         21   -1    0    0  504  501  0.00000000000E+00  0.00000000000E+00  0.70028083389E+03  0.70028083389E+03  0.00000000000E+00 0.  1.
         21   -1    0    0  505  502 -0.00000000000E+00 -0.00000000000E+00 -0.36459336022E+03  0.36459336022E+03  0.00000000000E+00 0. -1.
         21    1    1    2  503  501  0.28769251435E+02 -0.36216438428E+02  0.53606982970E+03  0.53806148585E+03  0.00000000000E+00 0.  1.
         21    1    1    2  504  506  0.11983017049E+03  0.58998319330E+02  0.96282193651E+02  0.16465215534E+03  0.00000000000E+00 0.  1.
         21    1    1    2  505  503 -0.13933462086E+03  0.14447619251E+02 -0.29154921207E+03  0.32345604544E+03  0.00000000000E+00 0. -1.
         21    1    1    2  506  502 -0.92648010587E+01 -0.37229500153E+02 -0.51153376000E+01  0.38704507477E+02  0.00000000000E+00 0. -1.
<scales pt_clust_3="46.32062" pt_clust_4="14000.00000" pt_clust_5="144.13808" pt_clust_6="38.36499"></scales>
<clustering>
<clus scale="   38.365">  2  6  1 -1</clus>
<clus scale="   46.321">  1  3  2 -1</clus>
<clus scale="  144.138">  2  5  1 -1</clus>
<clus scale="   46.321">  1  3  2 -1</clus>
</clustering>
</event>
<event>
 6    0  0.7408445E+002  0.9348042E+02  0.7546771E-02  0.1294636E+00
         21   -1    0    0  505  501  0.00000000000E+00  0.00000000000E+00  0.10530939363E+04  0.10530939363E+04  0.00000000000E+00 0. -1.
         21   -1    0    0  503  502 -0.00000000000E+00 -0.00000000000E+00 -0.30524346105E+03  0.30524346105E+03  0.00000000000E+00 0. -1.
         21    1    1    2  503  504 -0.91375308089E+02  0.21493557651E+02 -0.28735273016E+03  0.30229623133E+03  0.00000000000E+00 0. -1.
         21    1    1    2  504  501 -0.23959406345E+02 -0.23473732081E+02  0.41533487351E+02  0.53386326168E+02  0.00000000000E+00 0.  1.
         21    1    1    2  505  506  0.56101107630E+02  0.34583896402E+02  0.45123281614E+03  0.45602021285E+03  0.00000000000E+00 0. -1.
         21    1    1    2  506  502  0.59233606803E+02 -0.32603721972E+02  0.54243690196E+03  0.54663462703E+03  0.00000000000E+00 0. -1.
<scales pt_clust_3="14000.00000" pt_clust_4="33.54205" pt_clust_5="51.25682" pt_clust_6="93.48042"></scales>
<clustering>
<clus scale="   33.542">  1  4  2 -1</clus>
<clus scale="   51.257">  1  5  2 -1</clus>
<clus scale="   93.480">  1  6  2 -1</clus>
<clus scale="   33.542">  1  3  2 -1</clus>
</clustering>
</event>
<event>
 6    0  0.5563122E+002  0.1509742E+03  0.7546771E-02  0.1199281E+00
         21   -1    0    0  503  501  0.00000000000E+00  0.00000000000E+00  0.62351391622E+02  0.62351391622E+02  0.00000000000E+00 0. -1.
         21   -1    0    0  504  502 -0.00000000000E+00 -0.00000000000E+00 -0.13760965406E+04  0.13760965406E+04  0.00000000000E+00 0. -1.
         21    1    1    2  503  502 -0.47432359252E+02 -0.12831396678E+03 -0.60572366855E+03  0.62097944042E+03  0.00000000000E+00 0. -1.
         21    1    1    2  504  506 -0.13475450750E+02 -0.36531399881E+02 -0.57325284668E+03  0.57457371779E+03  0.00000000000E+00 0. -1.
         21    1    1    2  505  501 -0.11717696973E+02  0.57043811913E+02 -0.37784426831E+01  0.58357326267E+02  0.00000000000E+00 0. -1.
         21    1    1    2  506  505  0.72625506975E+02  0.10780155475E+03 -0.13099019109E+03  0.18453744777E+03  0.00000000000E+00 0. -1.
<scales pt_clust_3="150.97425" pt_clust_4="38.93753" pt_clust_5="56.95956" pt_clust_6="14000.00000"></scales>
<clustering>
<clus scale="   38.938">  2  4  1 -1</clus>
<clus scale="   56.960">  1  5  2 -1</clus>
<clus scale="  150.974">  2  3  1 -1</clus>
<clus scale="   56.960">  1  3  2 -1</clus>
</clustering>
</event>
<event>
 6    0  0.5563122E+002  0.1490943E+03  0.7546771E-02  0.1201590E+00
         21   -1    0    0  504  501  0.00000000000E+00  0.00000000000E+00  0.37735297167E+03  0.37735297167E+03  0.00000000000E+00 0.  1.
         21   -1    0    0  503  502 -0.00000000000E+00 -0.00000000000E+00 -0.92661967271E+02  0.92661967271E+02  0.00000000000E+00 0.  1.
         21    1    1    2  503  501  0.32592611564E+02 -0.11265907469E+03  0.67777431534E+02  0.13545525337E+03  0.00000000000E+00 0.  1.
         21    1    1    2  504  506  0.10083177433E+01 -0.42193145004E+02  0.14246014806E+03  0.14858052354E+03  0.00000000000E+00 0.  1.
         21    1    1    2  505  502  0.28173914863E+01  0.11845611747E+03  0.45624349437E+02  0.12696995992E+03  0.00000000000E+00 0.  1.
         21    1    1    2  506  505 -0.36418320794E+02  0.36396102228E+02  0.28829075364E+02  0.59009202106E+02  0.00000000000E+00 0.  1.
<scales pt_clust_3="135.24945" pt_clust_4="42.20519" pt_clust_5="41.35971" pt_clust_6="41.35971"></scales>
<clustering>
<clus scale="   41.360">  5  6 -1 -1</clus>
<clus scale="   42.205">  1  4  2 -1</clus>
<clus scale="  135.249">  2  3  1 -1</clus>
<clus scale="   42.205">  1  3  2 -1</clus>
</clustering>
</event>
<event>
 6    0  0.5563122E+002  0.9693188E+02  0.7546771E-02  0.1286883E+00
         21   -1    0    0  506  501  0.00000000000E+00  0.00000000000E+00  0.51860728516E+03  0.51860728516E+03  0.00000000000E+00 0.  1.
         21   -1    0    0  505  502 -0.00000000000E+00 -0.00000000000E+00 -0.25980035592E+03  0.25980035592E+03  0.00000000000E+00 0.  1.
         21    1    1    2  503  504  0.36739942264E+02 -0.10930814531E+03  0.10897966775E+03  0.15866525131E+03  0.00000000000E+00 0.  1.
         21    1    1    2  504  502  0.42586493801E+02  0.21806644792E+02 -0.57840572362E+02  0.75064445795E+02  0.00000000000E+00 0.  1.
         21    1    1    2  505  501 -0.46403756897E+02  0.75054940455E+02 -0.15604458951E+03  0.17926646830E+03  0.00000000000E+00 0.  1.
         21    1    1    2  506  503 -0.32922679168E+02  0.12446560067E+02  0.36371242336E+03  0.36541147569E+03  0.00000000000E+00 0.  1.
<scales pt_clust_3="96.93188" pt_clust_4="46.54668" pt_clust_5="14000.00000" pt_clust_6="35.19687"></scales>
<clustering>
<clus scale="   35.197">  1  6  2 -1</clus>
<clus scale="   46.547">  2  4  1 -1</clus>
<clus scale="   96.932">  1  3  2 -1</clus>
<clus scale="   35.197">  1  3  2 -1</clus>
</clustering>
</event>
<event>
 6    0  0.5563122E+002  0.9821369E+02  0.7546771E-02  0.1284098E+00
         21   -1    0    0  505  501  0.00000000000E+00  0.00000000000E+00  0.24946088109E+03  0.24946088109E+03  0.00000000000E+00 0. -1.
         21   -1    0    0  504  502 -0.00000000000E+00 -0.00000000000E+00 -0.75767433870E+03  0.75767433870E+03  0.00000000000E+00 0. -1.
         21    1    1    2  503  502 -0.26782927163E+02  0.42917924870E+02 -0.45392191089E+03  0.45673227897E+03  0.00000000000E+00 0. -1.
         21    1    1    2  504  501 -0.30288810950E+02  0.67036729290E+02 -0.16815423397E+03  0.18354068090E+03  0.00000000000E+00 0.  1.
         21    1    1    2  505  506 -0.41767076268E+02 -0.41253718239E+02  0.20668419359E+03  0.21485975381E+03  0.00000000000E+00 0. -1.
         21    1    1    2  506  503  0.98838814381E+02 -0.68700935921E+02 -0.92821506334E+02  0.15200250611E+03  0.00000000000E+00 0.  1.
<scales pt_clust_3="50.58926" pt_clust_4="14000.00000" pt_clust_5="58.55936" pt_clust_6="98.21369"></scales>
<clustering>
<clus scale="   50.589">  2  3  1 -1</clus>
<clus scale="   58.559">  1  5  2 -1</clus>
<clus scale="   98.214">  1  6  2 -1</clus>
<clus scale="   58.559">  1  3  2 -1</clus>
</clustering>
</event>
<event>
 6    0  0.5563122E+002  0.8584196E+02  0.7546771E-02  0.1313245E+00
         21   -1    0    0  506  501  0.00000000000E+00  0.00000000000E+00  0.27510032971E+03  0.27510032971E+03  0.00000000000E+00 0.  1.
         21   -1    0    0  504  502 -0.00000000000E+00 -0.00000000000E+00 -0.10172728122E+03  0.10172728122E+03  0.00000000000E+00 0. -1.
         21    1    1    2  503  505  0.27210822621E+02  0.24891454059E+02  0.33893566023E+02  0.50087794627E+02  0.00000000000E+00 0. -1.
         21    1    1    2  504  501 -0.44620389514E+02 -0.10346461598E+03  0.17340932771E+02  0.11400269238E+03  0.00000000000E+00 0. -1.
         21    1    1    2  505  502  0.41852100082E+02  0.60680786764E+02 -0.12470895903E+02  0.74761483454E+02  0.00000000000E+00 0. -1.
         21    1    1    2  506  503 -0.24442533189E+02  0.17892375160E+02  0.13460944560E+03  0.13797564047E+03  0.00000000000E+00 0.  1.
<scales pt_clust_3="36.20827" pt_clust_4="14000.00000" pt_clust_5="85.84196" pt_clust_6="30.29149"></scales>
<clustering>
<clus scale="   30.291">  1  6  2 -1</clus>
<clus scale="   36.208">  1  3  2 -1</clus>
<clus scale="   85.842">  2  5  1 -1</clus>
<clus scale="   30.291">  1  3  2 -1</clus>
</clustering>
</event>
<event>
 6    0  0.5563122E+002  0.9720066E+02  0.7546771E-02  0.1286295E+00
         21   -1    0    0  504  501  0.00000000000E+00  0.00000000000E+00  0.20681178679E+03  0.20681178679E+03  0.00000000000E+00 0. -1.
         21   -1    0    0  505  502 -0.00000000000E+00 -0.00000000000E+00 -0.43642602746E+03  0.43642602746E+03  0.00000000000E+00 0. -1.
         21    1    1    2  503  501 -0.57006529732E+00 -0.47335849618E+02 -0.64921080647E+02  0.80347709027E+02  0.00000000000E+00 0. -1.
         21    1    1    2  504  506  0.29042531271E+02  0.76417078950E+02  0.16653717609E+03  0.18551999784E+03  0.00000000000E+00 0. -1.
         21    1    1    2  505  503 -0.24664568417E+02 -0.91451725191E+02 -0.28301349320E+03  0.29844328826E+03  0.00000000000E+00 0. -1.
         21    1    1    2  506  502 -0.38078975565E+01  0.62370495859E+02 -0.48216842909E+02  0.78926819127E+02  0.00000000000E+00 0. -1.
<scales pt_clust_3="35.52665" pt_clust_4="83.20213" pt_clust_5="35.52665" pt_clust_6="62.48663"></scales>
<clustering>
<clus scale="   35.527">  3  5 -1 -1</clus>
<clus scale="   62.487">  2  6  1 -1</clus>
<clus scale="   83.202">  1  4  2 -1</clus>
<clus scale="   83.202">  1  3  2 -1</clus>
</clustering>
</event>
<event>
 6    0  0.5563122E+002  0.1155139E+03  0.7546771E-02  0.1250687E+00
         21   -1    0    0  506  501  0.00000000000E+00  0.00000000000E+00  0.10815922432E+04  0.10815922432E+04  0.00000000000E+00 0.  1.
         21   -1    0    0  504  502 -0.00000000000E+00 -0.00000000000E+00 -0.68155688889E+02  0.68155688889E+02  0.00000000000E+00 0. -1.
         21    1    1    2  503  502 -0.28892614391E+02 -0.30588950689E+02  0.62638301841E+02  0.75458756471E+02  0.00000000000E+00 0.  1.
         21    1    1    2  504  505 -0.75135887350E+02 -0.43778711396E+02 -0.18517599279E+02  0.88909384333E+02  0.00000000000E+00 0. -1.
         21    1    1    2  505  501  0.65171622166E+02 -0.13706112437E+01  0.17912996814E+03  0.19062204593E+03  0.00000000000E+00 0.  1.
         21    1    1    2  506  503  0.38856879575E+02  0.75738273329E+02  0.79018588361E+03  0.79475774535E+03  0.00000000000E+00 0.  1.
<scales pt_clust_3="42.07692" pt_clust_4="14000.00000" pt_clust_5="62.62503" pt_clust_6="115.51393"></scales>
<clustering>
<clus scale="   42.077">  2  3  1 -1</clus>
<clus scale="   62.625">  1  5  2 -1</clus>
<clus scale="  115.514">  1  6  2 -1</clus>
<clus scale="   62.625">  1  3  2 -1</clus>
</clustering>
</event>
<event>
 6    0  0.5563122E+002  0.7739150E+02  0.7546771E-02  0.1336621E+00
         21   -1    0    0  505  501  0.00000000000E+00  0.00000000000E+00  0.19488867571E+03  0.19488867571E+03  0.00000000000E+00 0. -1.
         21   -1    0    0  506  502 -0.00000000000E+00 -0.00000000000E+00 -0.29603190151E+03  0.29603190151E+03  0.00000000000E+00 0. -1.
         21    1    1    2  503  502  0.89459343755E+02  0.38499420278E+02  0.39455861986E+02  0.10508065755E+03  0.00000000000E+00 0. -1.
         21    1    1    2  504  503 -0.23910375909E+02  0.49635933992E+02  0.76900002271E+02  0.94599378268E+02  0.00000000000E+00 0. -1.
         21    1    1    2  505  504 -0.28860367634E+02 -0.20068972415E+02  0.20707432624E+02  0.40798066616E+02  0.00000000000E+00 0.  1.
         21    1    1    2  506  501 -0.36688600211E+02 -0.68066381856E+02 -0.23820652269E+03  0.25044247478E+03  0.00000000000E+00 0. -1.
<scales pt_clust_3="14000.00000" pt_clust_4="55.25288" pt_clust_5="35.15230" pt_clust_6="77.39150"></scales>
<clustering>
<clus scale="   35.152">  1  5  2 -1</clus>
<clus scale="   55.253">  1  4  2 -1</clus>
<clus scale="   77.391">  2  6  1 -1</clus>
<clus scale="   35.152">  1  3  2 -1</clus>
</clustering>
</event>
<event>
 6    0  0.5563122E+002  0.1365188E+03  0.7546771E-02  0.1218091E+00
         21   -1    0    0  503  501  0.00000000000E+00  0.00000000000E+00  0.26086021061E+03  0.26086021061E+03  0.00000000000E+00 0. -1.
         21   -1    0    0  504  502 -0.00000000000E+00 -0.00000000000E+00 -0.66589496465E+03  0.66589496465E+03  0.00000000000E+00 0. -1.
         21    1    1    2  503  506  0.88872441478E+01  0.33714304062E+02  0.18683672539E+03  0.19006209344E+03  0.00000000000E+00 0. -1.
         21    1    1    2  504  505 -0.13145017746E+01 -0.13613620411E+03 -0.47566059118E+03  0.49476033793E+03  0.00000000000E+00 0. -1.
         21    1    1    2  505  501 -0.46159248149E+02 -0.33896161028E+02  0.21712638962E+01  0.57309164267E+02  0.00000000000E+00 0. -1.
         21    1    1    2  506  502  0.38586505776E+02  0.13631806108E+03 -0.11838215215E+03  0.18462357962E+03  0.00000000000E+00 0. -1.
<scales pt_clust_3="34.86599" pt_clust_4="14000.00000" pt_clust_5="46.99995" pt_clust_6="136.51883"></scales>
<clustering>
<clus scale="   34.866">  1  3  2 -1</clus>
<clus scale="   47.000">  1  5  2 -1</clus>
<clus scale="  136.519">  1  6  2 -1</clus>
<clus scale="   34.866">  1  3  2 -1</clus>
</clustering>
</event>
<event>
 6    0  0.5563122E+002  0.1069046E+03  0.7546771E-02  0.1266412E+00
         21   -1    0    0  503  501  0.00000000000E+00  0.00000000000E+00  0.43725599592E+03  0.43725599592E+03  0.00000000000E+00 0.  1.
         21   -1    0    0  506  502 -0.00000000000E+00 -0.00000000000E+00 -0.57632047578E+02  0.57632047578E+02  0.00000000000E+00 0.  1.
         21    1    1    2  503  504  0.89656448789E+01 -0.34743668750E+02  0.55910571196E+02  0.66434157463E+02  0.00000000000E+00 0. -1.
         21    1    1    2  504  502  0.12209936308E+03 -0.52038795044E+00  0.20399185171E+03  0.23774187858E+03  0.00000000000E+00 0.  1.
         21    1    1    2  505  501 -0.31098364290E+02  0.16425279472E+02  0.68081834063E+02  0.76629199374E+02  0.00000000000E+00 0.  1.
         21    1    1    2  506  505 -0.99966643669E+02  0.18838777228E+02  0.51639691371E+02  0.11408280808E+03  0.00000000000E+00 0.  1.
<scales pt_clust_3="32.20942" pt_clust_4="14000.00000" pt_clust_5="35.16956" pt_clust_6="106.90458"></scales>
<clustering>
<clus scale="   35.170">  1  5  2 -1</clus>
<clus scale="   32.209">  1  3  2 -1</clus>
<clus scale="  106.905">  2  6  1 -1</clus>
<clus scale="   35.170">  1  3  2 -1</clus>
</clustering>
</event>
<event>
 6    0  0.5563122E+002  0.1390357E+03  0.7546771E-02  0.1214632E+00
         21   -1    0    0  505  501  0.00000000000E+00  0.00000000000E+00  0.55381180205E+03  0.55381180205E+03  0.00000000000E+00 0. -1.
         21   -1    0    0  506  502 -0.00000000000E+00 -0.00000000000E+00 -0.35208811973E+03  0.35208811973E+03  0.00000000000E+00 0. -1.
         21    1    1    2  503  501  0.80473328217E+02  0.85074712571E+02  0.24749950102E+03  0.27380589161E+03  0.00000000000E+00 0.  1.
         21    1    1    2  504  503 -0.33265654176E+02 -0.11017292067E+03 -0.12769256527E+03  0.17190133048E+03  0.00000000000E+00 0. -1.
         21    1    1    2  505  502 -0.44717400240E+01  0.40193911322E+02  0.26679350958E+03  0.26984129357E+03  0.00000000000E+00 0. -1.
         21    1    1    2  506  504 -0.42735934018E+02 -0.15095703219E+02 -0.18487676301E+03  0.19035140612E+03  0.00000000000E+00 0. -1.
<scales pt_clust_3="139.03574" pt_clust_4="14000.00000" pt_clust_5="40.44190" pt_clust_6="45.23738"></scales>
<clustering>
<clus scale="   40.442">  1  5  2 -1</clus>
<clus scale="   45.237">  2  6  1 -1</clus>
<clus scale="  139.036">  1  3  2 -1</clus>
<clus scale="   40.442">  1  3  2 -1</clus>
</clustering>
</event>
<event>
 6    0  0.5563122E+002  0.1790633E+03  0.7546771E-02  0.1168713E+00
         21   -1    0    0  505  501  0.00000000000E+00  0.00000000000E+00  0.69278834502E+02  0.69278834502E+02  0.00000000000E+00 0.  1.
         21   -1    0    0  503  502 -0.00000000000E+00 -0.00000000000E+00 -0.18597488854E+04  0.18597488854E+04  0.00000000000E+00 0. -1.
         21    1    1    2  503  504  0.33785171218E+02 -0.77290732947E+01 -0.91332486458E+03  0.91398221243E+03  0.00000000000E+00 0. -1.
         21    1    1    2  504  501  0.13322364446E+03  0.11969626991E+03 -0.66275120649E+03  0.68652377831E+03  0.00000000000E+00 0. -1.
         21    1    1    2  505  506 -0.44585019136E+02 -0.88068336351E+01  0.15814252742E+02  0.48119381125E+02  0.00000000000E+00 0.  1.
         21    1    1    2  506  502 -0.12242379654E+03 -0.10316036298E+03 -0.23020823260E+03  0.28040234808E+03  0.00000000000E+00 0.  1.
<scales pt_clust_3="34.65799" pt_clust_4="179.06330" pt_clust_5="44.90684" pt_clust_6="14000.00000"></scales>
<clustering>
<clus scale="   34.658">  2  3  1 -1</clus>
<clus scale="   44.907">  1  5  2 -1</clus>
<clus scale="  179.063">  2  4  1 -1</clus>
<clus scale="   44.907">  1  3  2 -1</clus>
</clustering>
</event>
<event>
 6    0  0.5563122E+002  0.1038906E+03  0.7546771E-02  0.1272321E+00
         21   -1    0    0  504  501  0.00000000000E+00  0.00000000000E+00  0.25209902638E+03  0.25209902638E+03  0.00000000000E+00 0.  1.
         21   -1    0    0  503  502 -0.00000000000E+00 -0.00000000000E+00 -0.16039218183E+03  0.16039218183E+03  0.00000000000E+00 0.  1.
         21    1    1    2  503  506 -0.41657341506E+01  0.34018353550E+02 -0.59136405142E+02  0.68349953419E+02  0.00000000000E+00 0.  1.
         21    1    1    2  504  505  0.70992938409E+02  0.70222498505E+02  0.12554698138E+03  0.16041583817E+03  0.00000000000E+00 0.  1.
         21    1    1    2  505  502 -0.97452562704E+02 -0.59700837142E+02 -0.16403610222E+02  0.11545679002E+03  0.00000000000E+00 0.  1.
         21    1    1    2  506  501  0.30625358445E+02 -0.44540014913E+02  0.41699878532E+02  0.68268626600E+02  0.00000000000E+00 0.  1.
<scales pt_clust_3="34.27246" pt_clust_4="103.89056" pt_clust_5="14000.00000" pt_clust_6="49.92318"></scales>
<clustering>
<clus scale="   34.272">  2  3  1 -1</clus>
<clus scale="   49.923">  1  6  2 -1</clus>
<clus scale="  103.891">  1  4  2 -1</clus>
<clus scale="   49.923">  1  3  2 -1</clus>
</clustering>
</event>
<event>
 6    0  0.5563122E+002  0.1006732E+03  0.7546771E-02  0.1278887E+00
         21   -1    0    0  504  501  0.00000000000E+00  0.00000000000E+00  0.16735004965E+03  0.16735004965E+03  0.00000000000E+00 0.  1.
         21   -1    0    0  503  502 -0.00000000000E+00 -0.00000000000E+00 -0.30390137416E+03  0.30390137416E+03  0.00000000000E+00 0. -1.
         21    1    1    2  503  505 -0.32929751654E+02  0.74051197790E+01 -0.30217817325E+02  0.45302547685E+02  0.00000000000E+00 0.  1.
         21    1    1    2  504  506 -0.10084365514E+03  0.13331124772E+02  0.99742684035E+02  0.14246320469E+03  0.00000000000E+00 0.  1.
         21    1    1    2  505  501  0.63006503482E+01 -0.33798319134E+02  0.67727466624E+01  0.35041328006E+02  0.00000000000E+00 0.  1.
         21    1    1    2  506  502  0.12747275645E+03  0.13062074583E+02 -0.21284893788E+03  0.24844434343E+03  0.00000000000E+00 0. -1.
<scales pt_clust_3="33.75210" pt_clust_4="14000.00000" pt_clust_5="33.71374" pt_clust_6="100.67325"></scales>
<clustering>
<clus scale="   33.752">  2  3  1 -1</clus>
<clus scale="   33.714">  1  5  2 -1</clus>
<clus scale="  100.673">  2  6  1 -1</clus>
<clus scale="   33.714">  1  3  2 -1</clus>
</clustering>
</event>
<event>
 6    0  0.5563122E+002  0.1286214E+03  0.7546771E-02  0.1229516E+00
         21   -1    0    0  503  501  0.00000000000E+00  0.00000000000E+00  0.38765566023E+03  0.38765566023E+03  0.00000000000E+00 0. -1.
         21   -1    0    0  506  502 -0.00000000000E+00 -0.00000000000E+00 -0.18270410160E+03  0.18270410160E+03  0.00000000000E+00 0.  1.
         21    1    1    2  503  502 -0.92107556227E+02  0.55689462762E+02 -0.63064069977E+02  0.12474852744E+03  0.00000000000E+00 0.  1.
         21    1    1    2  504  505  0.43440727521E+02 -0.29252636584E+02  0.87299135936E+01  0.53094490732E+02  0.00000000000E+00 0.  1.
         21    1    1    2  505  501  0.35345658429E+02  0.63711099137E+02  0.28792114467E+03  0.29699664185E+03  0.00000000000E+00 0. -1.
         21    1    1    2  506  504  0.13321170276E+02 -0.90147925315E+02 -0.28635429659E+02  0.95520101800E+02  0.00000000000E+00 0.  1.
<scales pt_clust_3="111.04867" pt_clust_4="49.19858" pt_clust_5="72.85890" pt_clust_6="49.19858"></scales>
<clustering>
<clus scale="   49.199">  4  6 -1 -1</clus>
<clus scale="   72.859">  1  5  2 -1</clus>
<clus scale="  111.049">  2  3  1 -1</clus>
<clus scale="   72.859">  1  3  2 -1</clus>
</clustering>
</event>
<event>
 6    0  0.5563122E+002  0.2332636E+03  0.7546771E-02  0.1124364E+00
         21   -1    0    0  506  501  0.00000000000E+00  0.00000000000E+00  0.12500691138E+04  0.12500691138E+04  0.00000000000E+00 0. -1.
         21   -1    0    0  504  502 -0.00000000000E+00 -0.00000000000E+00 -0.40106971142E+03  0.40106971142E+03  0.00000000000E+00 0. -1.
         21    1    1    2  503  502 -0.12743268123E+02 -0.44534250760E+02  0.18029709787E+02  0.49706748115E+02  0.00000000000E+00 0. -1.
         21    1    1    2  504  505  0.13771899109E+03 -0.18996954718E+03 -0.29859440835E+03  0.37975461822E+03  0.00000000000E+00 0. -1.
         21    1    1    2  505  501 -0.11840211850E+03  0.19061856779E+03  0.23110870321E+03  0.32212688921E+03  0.00000000000E+00 0. -1.
         21    1    1    2  506  503 -0.65736044710E+01  0.43885230144E+02  0.89845539774E+03  0.89955056968E+03  0.00000000000E+00 0. -1.
<scales pt_clust_3="42.46279" pt_clust_4="14000.00000" pt_clust_5="233.26365" pt_clust_6="44.37483"></scales>
<clustering>
<clus scale="   44.375">  1  6  2 -1</clus>
<clus scale="   42.463">  1  3  2 -1</clus>
<clus scale="  233.264">  1  5  2 -1</clus>
<clus scale="   44.375">  1  3  2 -1</clus>
</clustering>
</event>
<event>
 6    0  0.5563122E+002  0.1120462E+03  0.7546771E-02  0.1256827E+00
         21   -1    0    0  506  501  0.00000000000E+00  0.00000000000E+00  0.23979293724E+04  0.23979293724E+04  0.00000000000E+00 0.  1.
         21   -1    0    0  504  502 -0.00000000000E+00 -0.00000000000E+00 -0.10271440341E+02  0.10271440341E+02  0.00000000000E+00 0.  1.
         21    1    1    2  503  501 -0.38443692727E+02  0.34257210460E+02  0.62270603431E+03  0.62483140058E+03  0.00000000000E+00 0.  1.
         21    1    1    2  504  505  0.48913840806E+02  0.52460550415E+02  0.44566813315E+03  0.45140309932E+03  0.00000000000E+00 0.  1.
         21    1    1    2  505  503 -0.15707160174E+02  0.46925708139E+02  0.37981549610E+03  0.38302551879E+03  0.00000000000E+00 0.  1.
         21    1    1    2  506  502  0.52370120950E+01 -0.13364346901E+03  0.93946826855E+03  0.94894079411E+03  0.00000000000E+00 0.  1.
<scales pt_clust_3="34.00378" pt_clust_4="71.72638" pt_clust_5="34.00378" pt_clust_6="106.54192"></scales>
<clustering>
<clus scale="   34.004">  3  5 -1 -1</clus>
<clus scale="   71.726">  2  4  1 -1</clus>
<clus scale="  106.542">  2  6  1 -1</clus>
<clus scale="  112.046">  1  3  2 -1</clus>
</clustering>
</event>
<event>
 6    0  0.5563122E+002  0.1173663E+03  0.7546771E-02  0.1247506E+00
         21   -1    0    0  503  501  0.00000000000E+00  0.00000000000E+00  0.64438776657E+03  0.64438776657E+03  0.00000000000E+00 0. -1.
         21   -1    0    0  506  502 -0.00000000000E+00 -0.00000000000E+00 -0.64931757527E+02  0.64931757527E+02  0.00000000000E+00 0. -1.
         21    1    1    2  503  505 -0.15447174126E+02 -0.70843044066E+02  0.35592909840E+02  0.80772565342E+02  0.00000000000E+00 0. -1.
         21    1    1    2  504  501  0.10014215804E+03  0.48889876843E+02  0.34769332056E+03  0.36511548452E+03  0.00000000000E+00 0. -1.
         21    1    1    2  505  502 -0.91226741350E+01 -0.62040980926E+02  0.74849564387E+02  0.97646115061E+02  0.00000000000E+00 0. -1.
         21    1    1    2  506  504 -0.75572309781E+02  0.83994148149E+02  0.12132021425E+03  0.16578535917E+03  0.00000000000E+00 0. -1.
<scales pt_clust_3="34.46980" pt_clust_4="111.43909" pt_clust_5="34.46980" pt_clust_6="111.35978"></scales>
<clustering>
<clus scale="   34.470">  3  5 -1 -1</clus>
<clus scale="  111.439">  1  4  2 -1</clus>
<clus scale="  111.360">  1  6  2 -1</clus>
<clus scale="  111.439">  1  3  2 -1</clus>
</clustering>
</event>
<event>
 6    0  0.5563122E+002  0.1445200E+03  0.7546771E-02  0.1207373E+00
         21   -1    0    0  503  501  0.00000000000E+00  0.00000000000E+00  0.18802432572E+03  0.18802432572E+03  0.00000000000E+00 0.  1.
         21   -1    0    0  505  502 -0.00000000000E+00 -0.00000000000E+00 -0.51118250716E+03  0.51118250716E+03  0.00000000000E+00 0.  1.
         21    1    1    2  503  504  0.12300880217E+03 -0.94908295511E+02 -0.33859962635E+03  0.37254322827E+03  0.00000000000E+00 0.  1.
         21    1    1    2  504  502  0.25306480997E+02  0.19218357681E+02 -0.29758982603E+02  0.43535735872E+02  0.00000000000E+00 0.  1.
         21    1    1    2  505  506 -0.10847447646E+02  0.31791333840E+02 -0.83351837555E+02  0.89865927089E+02  0.00000000000E+00 0.  1.
         21    1    1    2  506  501 -0.13746783553E+03  0.43898603990E+02  0.12855226506E+03  0.19326194165E+03  0.00000000000E+00 0.  1.
<scales pt_clust_3="144.51996" pt_clust_4="31.77677" pt_clust_5="35.84427" pt_clust_6="14000.00000"></scales>
<clustering>
<clus scale="   31.777">  2  4  1 -1</clus>
<clus scale="   35.844">  2  5  1 -1</clus>
<clus scale="  144.520">  2  3  1 -1</clus>
<clus scale="  144.520">  1  3  2 -1</clus>
</clustering>
</event>
<event>
 6    0  0.5563122E+002  0.2026446E+03  0.7546771E-02  0.1147527E+00
         21   -1    0    0  505  501  0.00000000000E+00  0.00000000000E+00  0.87090458920E+02  0.87090458920E+02  0.00000000000E+00 0.  1.
         21   -1    0    0  503  502 -0.00000000000E+00 -0.00000000000E+00 -0.24557063991E+04  0.24557063991E+04  0.00000000000E+00 0.  1.
         21    1    1    2  503  501 -0.19660955538E+03 -0.72770772510E+02 -0.89038230807E+02  0.22776898196E+03  0.00000000000E+00 0.  1.
         21    1    1    2  504  506  0.62327360222E+02 -0.32073237064E+02 -0.62853442546E+03  0.63243095778E+03  0.00000000000E+00 0. -1.
         21    1    1    2  505  504  0.12860982367E+03  0.14573485653E+03 -0.59904385464E+03  0.62978780151E+03  0.00000000000E+00 0.  1.
         21    1    1    2  506  502  0.56723714902E+01 -0.40890846953E+02 -0.10519994293E+04  0.10528091168E+04  0.00000000000E+00 0.  1.
<scales pt_clust_3="14000.00000" pt_clust_4="82.18008" pt_clust_5="202.64462" pt_clust_6="41.28241"></scales>
<clustering>
<clus scale="   41.282">  2  6  1 -1</clus>
<clus scale="   82.180">  2  4  1 -1</clus>
<clus scale="  202.645">  2  5  1 -1</clus>
<clus scale="  202.645">  1  3  2 -1</clus>
</clustering>
</event>
<event>
 6    0  0.5563122E+002  0.6758852E+02  0.7546771E-02  0.1368491E+00
         21   -1    0    0  503  501  0.00000000000E+00  0.00000000000E+00  0.10428381212E+04  0.10428381212E+04  0.00000000000E+00 0. -1.
         21   -1    0    0  506  502 -0.00000000000E+00 -0.00000000000E+00 -0.90859474480E+02  0.90859474480E+02  0.00000000000E+00 0.  1.
         21    1    1    2  503  504 -0.19115681181E+02 -0.35337293058E+02  0.52675621199E+03  0.52828613499E+03  0.00000000000E+00 0. -1.
         21    1    1    2  504  502 -0.81149474452E+02  0.23861371066E+02  0.23543910348E+03  0.25017228799E+03  0.00000000000E+00 0.  1.
         21    1    1    2  505  501  0.42127314845E+02  0.44212380220E+02  0.25483749047E+03  0.26205265076E+03  0.00000000000E+00 0. -1.
         21    1    1    2  506  505  0.58137840788E+02 -0.32736458227E+02 -0.65054159255E+02  0.93186521907E+02  0.00000000000E+00 0.  1.
<scales pt_clust_3="40.17628" pt_clust_4="14000.00000" pt_clust_5="41.95927" pt_clust_6="67.58852"></scales>
<clustering>
<clus scale="   40.176">  1  3  2 -1</clus>
<clus scale="   41.959">  1  5  2 -1</clus>
<clus scale="   67.589">  2  6  1 -1</clus>
<clus scale="   40.176">  1  3  2 -1</clus>
</clustering>
</event>
<event>
 6    0  0.5563122E+002  0.1198370E+03  0.7546771E-02  0.1243366E+00
         21   -1    0    0  503  501  0.00000000000E+00  0.00000000000E+00  0.87553746809E+03  0.87553746809E+03  0.00000000000E+00 0. -1.
         21   -1    0    0  504  502 -0.00000000000E+00 -0.00000000000E+00 -0.50699089920E+03  0.50699089920E+03  0.00000000000E+00 0. -1.
         21    1    1    2  503  502 -0.47366522667E+02  0.19631151609E+02 -0.54510441374E+02  0.74835538362E+02  0.00000000000E+00 0. -1.
         21    1    1    2  504  505 -0.71126377623E+02 -0.46512642811E+02 -0.39191584857E+03  0.40102421360E+03  0.00000000000E+00 0. -1.
         21    1    1    2  505  506  0.12542818316E+03  0.65398544724E+02  0.64996671947E+02  0.15567198254E+03  0.00000000000E+00 0.  1.
         21    1    1    2  506  501 -0.69352828726E+01 -0.38517053522E+02  0.74997618689E+03  0.75099663279E+03  0.00000000000E+00 0. -1.
<scales pt_clust_3="50.69102" pt_clust_4="14000.00000" pt_clust_5="119.83701" pt_clust_6="39.13645"></scales>
<clustering>
<clus scale="   39.136">  1  6  2 -1</clus>
<clus scale="   50.691">  2  3  1 -1</clus>
<clus scale="  119.837">  1  5  2 -1</clus>
<clus scale="   39.136">  1  3  2 -1</clus>
</clustering>
</event>
<event>
 6    0  0.5563122E+002  0.7971530E+02  0.7546771E-02  0.1329861E+00
         21   -1    0    0  505  501  0.00000000000E+00  0.00000000000E+00  0.13757004551E+03  0.13757004551E+03  0.00000000000E+00 0. -1.
         21   -1    0    0  503  502 -0.00000000000E+00 -0.00000000000E+00 -0.29186013214E+03  0.29186013214E+03  0.00000000000E+00 0. -1.
         21    1    1    2  503  504  0.10783726439E+02  0.83087397084E+02 -0.11228785442E+03  0.14010127252E+03  0.00000000000E+00 0. -1.
         21    1    1    2  504  506  0.76959240863E+02  0.71994544261E+01 -0.17456746918E+02  0.79242002190E+02  0.00000000000E+00 0. -1.
         21    1    1    2  505  502 -0.32585954394E+02 -0.70283898960E+02 -0.92271385778E+02  0.12048103382E+03  0.00000000000E+00 0. -1.
         21    1    1    2  506  501 -0.55157012908E+02 -0.20002952550E+02  0.67725900495E+02  0.89605869124E+02  0.00000000000E+00 0. -1.
<scales pt_clust_3="14000.00000" pt_clust_4="48.14445" pt_clust_5="79.71530" pt_clust_6="58.67209"></scales>
<clustering>
<clus scale="   58.672">  1  6  2 -1</clus>
<clus scale="   48.144">  1  4  2 -1</clus>
<clus scale="   79.715">  1  5  2 -1</clus>
<clus scale="   58.672">  1  3  2 -1</clus>
</clustering>
</event>
<event>
 6    0  0.5563122E+002  0.9989143E+02  0.7546771E-02  0.1280524E+00
         21   -1    0    0  503  501  0.00000000000E+00  0.00000000000E+00  0.96085912996E+03  0.96085912996E+03  0.00000000000E+00 0. -1.
         21   -1    0    0  504  502 -0.00000000000E+00 -0.00000000000E+00 -0.19549806600E+03  0.19549806600E+03  0.00000000000E+00 0. -1.
         21    1    1    2  503  505  0.39808229144E+02 -0.26177714313E+02  0.81534173549E+03  0.81673258381E+03  0.00000000000E+00 0. -1.
         21    1    1    2  504  501 -0.97960322829E+02  0.15440452022E+02 -0.12714921127E+03  0.16124997468E+03  0.00000000000E+00 0. -1.
         21    1    1    2  505  506 -0.46544254474E+02  0.15333182439E+02  0.13442137177E+01  0.49023270176E+02  0.00000000000E+00 0. -1.
         21    1    1    2  506  502  0.10469634816E+03 -0.45959201479E+01  0.75824326031E+02  0.12935136728E+03  0.00000000000E+00 0. -1.
<scales pt_clust_3="47.64418" pt_clust_4="99.89143" pt_clust_5="41.06238" pt_clust_6="14000.00000"></scales>
<clustering>
<clus scale="   47.644">  1  3  2 -1</clus>
<clus scale="   41.062">  1  5  2 -1</clus>
<clus scale="   99.891">  2  4  1 -1</clus>
<clus scale="   47.644">  1  3  2 -1</clus>
</clustering>
</event>
<event>
 6    0  0.5563122E+002  0.1046548E+03  0.7546771E-02  0.1270801E+00
         21   -1    0    0  504  501  0.00000000000E+00  0.00000000000E+00  0.29705546981E+03  0.29705546981E+03  0.00000000000E+00 0.  1.
         21   -1    0    0  503  502 -0.00000000000E+00 -0.00000000000E+00 -0.92275792827E+03  0.92275792827E+03  0.00000000000E+00 0. -1.
         21    1    1    2  503  501  0.26120466685E+02 -0.29490615232E+02  0.39001777230E+01  0.39587707093E+02  0.00000000000E+00 0. -1.
         21    1    1    2  504  505  0.65231664071E+02 -0.28400852529E+02  0.25777512800E+03  0.26741315420E+03  0.00000000000E+00 0.  1.
         21    1    1    2  505  506 -0.99330310919E+02  0.16629485637E+02 -0.19787847929E+03  0.22203365292E+03  0.00000000000E+00 0. -1.
         21    1    1    2  506  502  0.79781801624E+01  0.41261982124E+02 -0.68949928489E+03  0.69077888387E+03  0.00000000000E+00 0. -1.
<scales pt_clust_3="39.39512" pt_clust_4="104.65475" pt_clust_5="14000.00000" pt_clust_6="41.97051"></scales>
<clustering>
<clus scale="   39.395">  1  3  2 -1</clus>
<clus scale="   41.971">  2  6  1 -1</clus>
<clus scale="  104.655">  1  4  2 -1</clus>
<clus scale="   39.395">  1  3  2 -1</clus>
</clustering>
</event>
<event>
 6    0  0.5563122E+002  0.1626120E+03  0.7546771E-02  0.1185779E+00
         21   -1    0    0  506  501  0.00000000000E+00  0.00000000000E+00  0.61860137649E+03  0.61860137649E+03  0.00000000000E+00 0. -1.
         21   -1    0    0  503  502 -0.00000000000E+00 -0.00000000000E+00 -0.10029620727E+03  0.10029620727E+03  0.00000000000E+00 0. -1.
         21    1    1    2  503  504 -0.15850718764E+02 -0.15901363942E+03  0.47526994926E+02  0.16671951912E+03  0.00000000000E+00 0. -1.
         21    1    1    2  504  501 -0.18244569203E+02  0.25934274635E+02  0.10383562778E+03  0.10856927974E+03  0.00000000000E+00 0. -1.
         21    1    1    2  505  502 -0.13703225967E+01  0.16851356885E+03  0.16615214364E+03  0.23665425309E+03  0.00000000000E+00 0. -1.
         21    1    1    2  506  505  0.35465610564E+02 -0.35434204067E+02  0.20079040287E+03  0.20695453181E+03  0.00000000000E+00 0.  1.
<scales pt_clust_3="162.61200" pt_clust_4="31.70885" pt_clust_5="14000.00000" pt_clust_6="37.76765"></scales>
<clustering>
<clus scale="   31.709">  1  4  2 -1</clus>
<clus scale="   37.768">  1  6  2 -1</clus>
<clus scale="  162.612">  2  3  1 -1</clus>
<clus scale="   31.709">  1  3  2 -1</clus>
</clustering>
</event>
<event>
 6    0  0.5563122E+002  0.1861118E+03  0.7546771E-02  0.1162016E+00
         21   -1    0    0  506  501  0.00000000000E+00  0.00000000000E+00  0.49133246104E+03  0.49133246104E+03  0.00000000000E+00 0. -1.
         21   -1    0    0  505  502 -0.00000000000E+00 -0.00000000000E+00 -0.12513038014E+04  0.12513038014E+04  0.00000000000E+00 0. -1.
         21    1    1    2  503  502  0.54617810853E+02  0.51531236700E+02 -0.11812552223E+04  0.11836395034E+04  0.00000000000E+00 0. -1.
         21    1    1    2  504  503 -0.76710339168E+02 -0.11024852261E+03  0.16186684831E+03  0.21033328185E+03  0.00000000000E+00 0. -1.
         21    1    1    2  505  501  0.10222913763E+03  0.92435140214E+02  0.11232065977E+03  0.17779477590E+03  0.00000000000E+00 0.  1.
         21    1    1    2  506  504 -0.80136609314E+02 -0.33717854304E+02  0.14709637394E+03  0.17086870128E+03  0.00000000000E+00 0.  1.
<scales pt_clust_3="75.09044" pt_clust_4="54.14752" pt_clust_5="173.51711" pt_clust_6="54.14752"></scales>
<clustering>
<clus scale="   54.148">  4  6 -1 -1</clus>
<clus scale="   75.090">  2  3  1 -1</clus>
<clus scale="  173.517">  1  5  2 -1</clus>
<clus scale="  173.517">  1  3  2 -1</clus>
</clustering>
</event>
<event>
 6    0  0.5563122E+002  0.1017779E+03  0.7546771E-02  0.1276601E+00
         21   -1    0    0  503  501  0.00000000000E+00  0.00000000000E+00  0.14221558626E+04  0.14221558626E+04  0.00000000000E+00 0. -1.
         21   -1    0    0  505  502 -0.00000000000E+00 -0.00000000000E+00 -0.80086726382E+02  0.80086726382E+02  0.00000000000E+00 0. -1.
         21    1    1    2  503  502  0.12379902339E+02  0.92503937745E+02 -0.25041986069E+02  0.96629920556E+02  0.00000000000E+00 0. -1.
         21    1    1    2  504  506  0.44124652078E+02 -0.12431910700E+02  0.59120408672E+02  0.74811496751E+02  0.00000000000E+00 0. -1.
         21    1    1    2  505  504 -0.31224116761E+02  0.18828472490E+02  0.26071197856E+02  0.44823701336E+02  0.00000000000E+00 0.  1.
         21    1    1    2  506  501 -0.25280437656E+02 -0.98900499536E+02  0.12819195158E+04  0.12859774704E+04  0.00000000000E+00 0. -1.
<scales pt_clust_3="14000.00000" pt_clust_4="41.95509" pt_clust_5="36.46172" pt_clust_6="101.77788"></scales>
<clustering>
<clus scale="   36.462">  2  5  1 -1</clus>
<clus scale="   41.955">  2  4  1 -1</clus>
<clus scale="  101.778">  1  6  2 -1</clus>
<clus scale="  101.778">  1  3  2 -1</clus>
</clustering>
</event>
<event>
 6    0  0.5563122E+002  0.7574840E+02  0.7546771E-02  0.1341569E+00
         21   -1    0    0  505  501  0.00000000000E+00  0.00000000000E+00  0.33809930156E+03  0.33809930156E+03  0.00000000000E+00 0. -1.
         21   -1    0    0  506  502 -0.00000000000E+00 -0.00000000000E+00 -0.16923057416E+03  0.16923057416E+03  0.00000000000E+00 0. -1.
         21    1    1    2  503  501  0.72172598541E+02  0.19390023650E+02  0.26091282669E+03  0.27140442172E+03  0.00000000000E+00 0. -1.
         21    1    1    2  504  503 -0.95675693154E+02 -0.18732454973E+02 -0.89689689904E+02  0.13247257680E+03  0.00000000000E+00 0. -1.
         21    1    1    2  505  502  0.61257601498E+02  0.94911021269E+01 -0.12107705094E+02  0.63159886664E+02  0.00000000000E+00 0. -1.
         21    1    1    2  506  504 -0.37754506885E+02 -0.10148670803E+02  0.97532957022E+01  0.40292990535E+02  0.00000000000E+00 0.  1.
<scales pt_clust_3="75.74840" pt_clust_4="14000.00000" pt_clust_5="52.49914" pt_clust_6="39.09474"></scales>
<clustering>
<clus scale="   39.095">  2  6  1 -1</clus>
<clus scale="   52.499">  2  5  1 -1</clus>
<clus scale="   75.748">  1  3  2 -1</clus>
<clus scale="   75.748">  1  3  2 -1</clus>
</clustering>
</event>
<event>
 6    0  0.5563122E+002  0.1405748E+03  0.7546771E-02  0.1212558E+00
         21   -1    0    0  503  501  0.00000000000E+00  0.00000000000E+00  0.27102568498E+03  0.27102568498E+03  0.00000000000E+00 0. -1.
         21   -1    0    0  506  502 -0.00000000000E+00 -0.00000000000E+00 -0.12005565470E+03  0.12005565470E+03  0.00000000000E+00 0. -1.
         21    1    1    2  503  502 -0.11286084558E+03  0.19632100304E+02  0.10682932456E+03  0.15663810013E+03  0.00000000000E+00 0. -1.
         21    1    1    2  504  505  0.82055140247E+02  0.92319064943E+01  0.18030586691E+02  0.84518496171E+02  0.00000000000E+00 0. -1.
         21    1    1    2  505  501 -0.21740925228E+02 -0.55952040409E+02  0.57384876016E+02  0.83044100640E+02  0.00000000000E+00 0. -1.
         21    1    1    2  506  504  0.52546630557E+02  0.27088033611E+02 -0.31274756996E+02  0.66880642738E+02  0.00000000000E+00 0. -1.
<scales pt_clust_3="128.26440" pt_clust_4="48.67687" pt_clust_5="60.02748" pt_clust_6="48.67687"></scales>
<clustering>
<clus scale="   48.677">  4  6 -1 -1</clus>
<clus scale="   60.027">  1  5  2 -1</clus>
<clus scale="  128.264">  1  3  2 -1</clus>
<clus scale="   60.027">  1  3  2 -1</clus>
</clustering>
</event>
<event>
 6    0  0.5563122E+002  0.7899527E+02  0.7546771E-02  0.1331927E+00
         21   -1    0    0  503  501  0.00000000000E+00  0.00000000000E+00  0.12255590271E+04  0.12255590271E+04  0.00000000000E+00 0.  1.
         21   -1    0    0  504  502 -0.00000000000E+00 -0.00000000000E+00 -0.33124469841E+02  0.33124469841E+02  0.00000000000E+00 0.  1.
         21    1    1    2  503  506  0.35873063158E+02  0.68771072804E+02  0.38679955856E+03  0.39449998177E+03  0.00000000000E+00 0.  1.
         21    1    1    2  504  505 -0.48566617739E+02  0.16266652545E+01  0.26499511904E+03  0.26941376266E+03  0.00000000000E+00 0.  1.
         21    1    1    2  505  501 -0.34148173596E+02 -0.72475187279E+02  0.54197337456E+03  0.54786302053E+03  0.00000000000E+00 0.  1.
         21    1    1    2  506  502  0.46841728176E+02  0.20774492202E+01 -0.13334949231E+01  0.46906731953E+02  0.00000000000E+00 0.  1.
<scales pt_clust_3="14000.00000" pt_clust_4="37.13497" pt_clust_5="78.99527" pt_clust_6="46.88777"></scales>
<clustering>
<clus scale="   46.888">  2  6  1 -1</clus>
<clus scale="   37.135">  2  4  1 -1</clus>
<clus scale="   78.995">  1  5  2 -1</clus>
<clus scale="   78.995">  1  3  2 -1</clus>
</clustering>
</event>
<event>
 6    0  0.5563122E+002  0.1259341E+03  0.7546771E-02  0.1233617E+00
         21   -1    0    0  505  501  0.00000000000E+00  0.00000000000E+00  0.46328552392E+03  0.46328552392E+03  0.00000000000E+00 0.  1.
         21   -1    0    0  504  502 -0.00000000000E+00 -0.00000000000E+00 -0.10118039064E+03  0.10118039064E+03  0.00000000000E+00 0.  1.
         21    1    1    2  503  502 -0.37268621906E+02  0.21812209425E+01  0.19357620480E+02  0.42052650026E+02  0.00000000000E+00 0.  1.
         21    1    1    2  504  501  0.25773281892E+02 -0.14615633987E+03  0.79080670246E+01  0.14862192055E+03  0.00000000000E+00 0.  1.
         21    1    1    2  505  506  0.15150662465E+02  0.70391108750E+02  0.76090374215E+02  0.10475779595E+03  0.00000000000E+00 0.  1.
         21    1    1    2  506  503 -0.36553224513E+01  0.73584010176E+02  0.25874907156E+03  0.26903354804E+03  0.00000000000E+00 0.  1.
<scales pt_clust_3="37.33240" pt_clust_4="14000.00000" pt_clust_5="71.33542" pt_clust_6="125.93405"></scales>
<clustering>
<clus scale="   37.332">  2  3  1 -1</clus>
<clus scale="   71.335">  1  5  2 -1</clus>
<clus scale="  125.934">  1  6  2 -1</clus>
<clus scale="   71.335">  1  3  2 -1</clus>
</clustering>
</event>
<event>
 6    0  0.5563122E+002  0.1462226E+03  0.7546771E-02  0.1205193E+00
         21   -1    0    0  505  501  0.00000000000E+00  0.00000000000E+00  0.22640413797E+03  0.22640413797E+03  0.00000000000E+00 0. -1.
         21   -1    0    0  503  502 -0.00000000000E+00 -0.00000000000E+00 -0.59244713182E+03  0.59244713182E+03  0.00000000000E+00 0. -1.
         21    1    1    2  503  501  0.43724480206E+02 -0.42328282367E+02 -0.37658239513E+03  0.38146797241E+03  0.00000000000E+00 0. -1.
         21    1    1    2  504  502 -0.49915753627E+02  0.87060249332E+02 -0.38588697160E+02  0.10751817066E+03  0.00000000000E+00 0. -1.
         21    1    1    2  505  506  0.54153297707E+02 -0.11474980773E+03  0.15102551432E+03  0.19725314700E+03  0.00000000000E+00 0. -1.
         21    1    1    2  506  504 -0.47962024287E+02  0.70017840766E+02 -0.10189741588E+03  0.13261197971E+03  0.00000000000E+00 0. -1.
<scales pt_clust_3="60.85650" pt_clust_4="55.73031" pt_clust_5="133.07323" pt_clust_6="55.73031"></scales>
<clustering>
<clus scale="   55.730">  4  6 -1 -1</clus>
<clus scale="   60.857">  2  3  1 -1</clus>
<clus scale="  133.073">  1  5  2 -1</clus>
<clus scale="  133.073">  1  3  2 -1</clus>
</clustering>
</event>
<event>
 6    0  0.5563122E+002  0.9966661E+02  0.7546771E-02  0.1280999E+00
         21   -1    0    0  503  501  0.00000000000E+00  0.00000000000E+00  0.74966836347E+03  0.74966836347E+03  0.00000000000E+00 0.  1.
         21   -1    0    0  504  502 -0.00000000000E+00 -0.00000000000E+00 -0.41957548222E+02  0.41957548222E+02  0.00000000000E+00 0.  1.
         21    1    1    2  503  506  0.83206831853E+02  0.16692609658E+02  0.18603937171E+03  0.20448146105E+03  0.00000000000E+00 0.  1.
         21    1    1    2  504  505  0.37185229573E+02 -0.77652408037E+02  0.11536973114E+03  0.14395420326E+03  0.00000000000E+00 0.  1.
         21    1    1    2  505  501 -0.18378290433E+02 -0.26705423130E+02  0.15294050103E+03  0.15633853664E+03  0.00000000000E+00 0.  1.
         21    1    1    2  506  502 -0.10201377099E+03  0.87665221508E+02  0.25336121135E+03  0.28685171074E+03  0.00000000000E+00 0.  1.
<scales pt_clust_3="77.58220" pt_clust_4="99.66661" pt_clust_5="32.41822" pt_clust_6="14000.00000"></scales>
<clustering>
<clus scale="   32.418">  1  5  2 -1</clus>
<clus scale="   77.582">  1  3  2 -1</clus>
<clus scale="   99.667">  2  4  1 -1</clus>
<clus scale="   32.418">  1  3  2 -1</clus>
</clustering>
</event>
<event>
 6    0  0.5563122E+002  0.7914404E+02  0.7546771E-02  0.1331498E+00
         21   -1    0    0  503  501  0.00000000000E+00  0.00000000000E+00  0.13140135665E+03  0.13140135665E+03  0.00000000000E+00 0.  1.
         21   -1    0    0  504  502 -0.00000000000E+00 -0.00000000000E+00 -0.24756648137E+04  0.24756648137E+04  0.00000000000E+00 0.  1.
         21    1    1    2  503  505  0.39004316784E+02  0.10313706398E+03 -0.13181752133E+04  0.13227790759E+04  0.00000000000E+00 0.  1.
         21    1    1    2  504  506 -0.64101273184E+01 -0.35005421049E+02 -0.10929792187E+03  0.11494566090E+03  0.00000000000E+00 0.  1.
         21    1    1    2  505  502  0.43599205208E+02 -0.46279293502E+02 -0.10295488046E+04  0.10315102543E+04  0.00000000000E+00 0.  1.
         21    1    1    2  506  501 -0.76193394674E+02 -0.21852349426E+02  0.11275848268E+03  0.13783117928E+03  0.00000000000E+00 0.  1.
<scales pt_clust_3="14000.00000" pt_clust_4="35.58749" pt_clust_5="73.84046" pt_clust_6="79.14404"></scales>
<clustering>
<clus scale="   35.587">  2  4  1 -1</clus>
<clus scale="   73.840">  2  5  1 -1</clus>
<clus scale="   79.144">  1  6  2 -1</clus>
<clus scale="   79.144">  1  3  2 -1</clus>
</clustering>
</event>
<event>
 6    0  0.5563122E+002  0.1407070E+03  0.7546771E-02  0.1212381E+00
         21   -1    0    0  506  501  0.00000000000E+00  0.00000000000E+00  0.43992322756E+03  0.43992322756E+03  0.00000000000E+00 0.  1.
         21   -1    0    0  505  502 -0.00000000000E+00 -0.00000000000E+00 -0.27945731965E+03  0.27945731965E+03  0.00000000000E+00 0.  1.
         21    1    1    2  503  501 -0.30283665530E+02  0.47102214789E+02  0.44972937274E+02  0.71821195500E+02  0.00000000000E+00 0.  1.
         21    1    1    2  504  503  0.92736251616E+02  0.66455049823E+02 -0.22501074380E+02  0.11628664738E+03  0.00000000000E+00 0.  1.
         21    1    1    2  505  504  0.76553745448E+01  0.44978962000E+02 -0.17099658761E+03  0.17697893874E+03  0.00000000000E+00 0.  1.
         21    1    1    2  506  502 -0.70107960631E+02 -0.15853622661E+03  0.30899063262E+03  0.35429376559E+03  0.00000000000E+00 0.  1.
<scales pt_clust_3="60.41307" pt_clust_4="14000.00000" pt_clust_5="45.62578" pt_clust_6="140.70704"></scales>
<clustering>
<clus scale="   45.626">  2  5  1 -1</clus>
<clus scale="   60.413">  1  3  2 -1</clus>
<clus scale="  140.707">  1  6  2 -1</clus>
<clus scale="   60.413">  1  3  2 -1</clus>
</clustering>
</event>
<event>
 6    0  0.5563122E+002  0.1191439E+03  0.7546771E-02  0.1244516E+00
         21   -1    0    0  505  501  0.00000000000E+00  0.00000000000E+00  0.82005489855E+03  0.82005489855E+03  0.00000000000E+00 0.  1.
         21   -1    0    0  503  502 -0.00000000000E+00 -0.00000000000E+00 -0.81183986036E+02  0.81183986036E+02  0.00000000000E+00 0.  1.
         21    1    1    2  503  506  0.45652174829E+02 -0.22486301961E+02  0.13709660270E+03  0.14623690818E+03  0.00000000000E+00 0. -1.
         21    1    1    2  504  502 -0.22205257893E+02 -0.28223864373E+02 -0.58857582261E+02  0.68948350146E+02  0.00000000000E+00 0.  1.
         21    1    1    2  505  504 -0.81932662115E+02  0.76507521931E+02  0.31007376899E+03  0.32971518656E+03  0.00000000000E+00 0.  1.
         21    1    1    2  506  501  0.58485745178E+02 -0.25797355598E+02  0.35055812309E+03  0.35633843970E+03  0.00000000000E+00 0.  1.
<scales pt_clust_3="35.67706" pt_clust_4="35.91184" pt_clust_5="112.23380" pt_clust_6="35.67706"></scales>
<clustering>
<clus scale="   35.677">  3  6 -1 -1</clus>
<clus scale="   35.912">  2  4  1 -1</clus>
<clus scale="  112.234">  2  5  1 -1</clus>
<clus scale="  119.144">  1  3  2 -1</clus>
</clustering>
</event>
<event>
 6    0  0.5563122E+002  0.1010195E+03  0.7546771E-02  0.1278167E+00
         21   -1    0    0  503  501  0.00000000000E+00  0.00000000000E+00  0.45383033747E+03  0.45383033747E+03  0.00000000000E+00 0. -1.
         21   -1    0    0  501  502 -0.00000000000E+00 -0.00000000000E+00 -0.10814274879E+04  0.10814274879E+04  0.00000000000E+00 0.  1.
         21    1    1    2  503  504  0.48963599711E+01 -0.61727683529E+02  0.43303843638E+03  0.43744321761E+03  0.00000000000E+00 0. -1.
         21    1    1    2  504  505 -0.11642566091E+02  0.95555020934E+02 -0.14604828841E+03  0.17491830641E+03  0.00000000000E+00 0.  1.
         21    1    1    2  505  506 -0.10470967473E+02  0.38340826862E+02 -0.16826755126E+03  0.17289774137E+03  0.00000000000E+00 0.  1.
         21    1    1    2  506  502  0.17217173593E+02 -0.72168164267E+02 -0.74631974716E+03  0.74999856000E+03  0.00000000000E+00 0.  1.
<scales pt_clust_3="61.92157" pt_clust_4="39.42439" pt_clust_5="39.42439" pt_clust_6="80.25264"></scales>
<clustering>
<clus scale="   39.424">  4  5 -1 -1</clus>
<clus scale="   61.922">  1  3  2 -1</clus>
<clus scale="   80.253">  2  6  1 -1</clus>
<clus scale="   61.922">  1  3  2 -1</clus>
</clustering>
</event>
<event>
 6    0  0.5563122E+002  0.2339892E+03  0.7546771E-02  0.1123863E+00
         21   -1    0    0  505  501  0.00000000000E+00  0.00000000000E+00  0.16926158890E+04  0.16926158890E+04  0.00000000000E+00 0. -1.
         21   -1    0    0  504  502 -0.00000000000E+00 -0.00000000000E+00 -0.59562373120E+02  0.59562373120E+02  0.00000000000E+00 0.  1.
         21    1    1    2  503  502 -0.63594200276E+02 -0.20878348234E+03  0.26865140207E+03  0.34613341451E+03  0.00000000000E+00 0.  1.
         21    1    1    2  504  506  0.43829374275E+02  0.11133149985E+03  0.29403768320E+03  0.31744901331E+03  0.00000000000E+00 0. -1.
         21    1    1    2  505  503  0.92799748574E+01 -0.31855988548E+02  0.59268055828E+03  0.59360859672E+03  0.00000000000E+00 0. -1.
         21    1    1    2  506  501  0.10484851143E+02  0.12930797104E+03  0.47768387235E+03  0.49498723759E+03  0.00000000000E+00 0. -1.
<scales pt_clust_3="226.07483" pt_clust_4="59.38732" pt_clust_5="33.18014" pt_clust_6="59.38732"></scales>
<clustering>
<clus scale="   33.180">  1  5  2 -1</clus>
<clus scale="   59.387">  4  6 -1 -1</clus>
<clus scale="  226.075">  2  3  1 -1</clus>
<clus scale="   33.180">  1  3  2 -1</clus>
</clustering>
</event>
<event>
 6    0  0.5563122E+002  0.7193929E+02  0.7546771E-02  0.1353620E+00
         21   -1    0    0  504  501  0.00000000000E+00  0.00000000000E+00  0.44427203472E+03  0.44427203472E+03  0.00000000000E+00 0.  1.
         21   -1    0    0  503  502 -0.00000000000E+00 -0.00000000000E+00 -0.21777582976E+03  0.21777582976E+03  0.00000000000E+00 0. -1.
         21    1    1    2  503  505 -0.77034786326E+02 -0.28970059950E+02 -0.12572304848E+03  0.15026612258E+03  0.00000000000E+00 0. -1.
         21    1    1    2  504  502  0.13594497960E+02  0.70236212565E+02 -0.72912343980E+01  0.71910347164E+02  0.00000000000E+00 0. -1.
         21    1    1    2  505  506  0.41903175353E+02 -0.67185150115E+02  0.39938552661E+00  0.79182573900E+02  0.00000000000E+00 0. -1.
         21    1    1    2  506  501  0.21537113013E+02  0.25918997500E+02  0.35911110231E+03  0.36068882083E+03  0.00000000000E+00 0.  1.
<scales pt_clust_3="14000.00000" pt_clust_4="71.93929" pt_clust_5="75.70362" pt_clust_6="33.69928"></scales>
<clustering>
<clus scale="   33.699">  1  6  2 -1</clus>
<clus scale="   75.704">  1  5  2 -1</clus>
<clus scale="   71.939">  1  4  2 -1</clus>
<clus scale="   33.699">  1  3  2 -1</clus>
</clustering>
</event>
<event>
 6    0  0.5563122E+002  0.1191269E+03  0.7546771E-02  0.1244544E+00
         21   -1    0    0  504  501  0.00000000000E+00  0.00000000000E+00  0.17479851245E+03  0.17479851245E+03  0.00000000000E+00 0.  1.
         21   -1    0    0  505  502 -0.00000000000E+00 -0.00000000000E+00 -0.18009795754E+03  0.18009795754E+03  0.00000000000E+00 0. -1.
         21    1    1    2  503  502  0.72152772535E+02  0.79907594082E+02 -0.10813850906E+03  0.15259483385E+03  0.00000000000E+00 0. -1.
         21    1    1    2  504  503  0.33939642072E+02  0.13883829224E+01  0.18522264737E+02  0.38689807470E+02  0.00000000000E+00 0. -1.
         21    1    1    2  505  506 -0.25916632408E+02 -0.38637988121E+02  0.44736261050E+02  0.64543775952E+02  0.00000000000E+00 0.  1.
         21    1    1    2  506  501 -0.80175782199E+02 -0.42657988884E+02  0.39580538176E+02  0.99068052717E+02  0.00000000000E+00 0.  1.
<scales pt_clust_3="111.33884" pt_clust_4="33.96803" pt_clust_5="30.32313" pt_clust_6="30.32313"></scales>
<clustering>
<clus scale="   30.323">  5  6 -1 -1</clus>
<clus scale="   33.968">  1  4  2 -1</clus>
<clus scale="  111.339">  2  3  1 -1</clus>
<clus scale="   33.968">  1  3  2 -1</clus>
</clustering>
</event>
<event>
 6    0  0.5563122E+002  0.1497329E+03  0.7546771E-02  0.1200802E+00
         21   -1    0    0  504  501  0.00000000000E+00  0.00000000000E+00  0.70168847295E+03  0.70168847295E+03  0.00000000000E+00 0.  1.
         21   -1    0    0  506  502 -0.00000000000E+00 -0.00000000000E+00 -0.15266031035E+04  0.15266031035E+04  0.00000000000E+00 0.  1.
         21    1    1    2  503  501 -0.15145700376E+02  0.18009487754E+03  0.66367319508E+03  0.68784130948E+03  0.00000000000E+00 0.  1.
         21    1    1    2  504  502  0.76959621827E+00 -0.32619588228E+02 -0.26346999271E+01  0.32734866094E+02  0.00000000000E+00 0. -1.
         21    1    1    2  505  503  0.28650093736E+02 -0.17885705854E+03 -0.77340195790E+03  0.79433070175E+03  0.00000000000E+00 0.  1.
         21    1    1    2  506  505 -0.14273989578E+02  0.31381769227E+02 -0.71255116785E+03  0.71338469918E+03  0.00000000000E+00 0.  1.
<scales pt_clust_3="149.73287" pt_clust_4="32.62867" pt_clust_5="14000.00000" pt_clust_6="34.45732"></scales>
<clustering>
<clus scale="   32.629">  1  4  2 -1</clus>
<clus scale="   34.457">  2  6  1 -1</clus>
<clus scale="  149.733">  1  3  2 -1</clus>
<clus scale="   32.629">  1  3  2 -1</clus>
</clustering>
</event>
<event>
 6    0  0.5563122E+002  0.1587836E+03  0.7546771E-02  0.1190077E+00
         21   -1    0    0  505  501  0.00000000000E+00  0.00000000000E+00  0.10202132985E+04  0.10202132985E+04  0.00000000000E+00 0. -1.
         21   -1    0    0  503  502 -0.00000000000E+00 -0.00000000000E+00 -0.16367397471E+03  0.16367397471E+03  0.00000000000E+00 0.  1.
         21    1    1    2  503  501 -0.15744082248E+03 -0.86431333234E+01 -0.93305563395E+02  0.18321638709E+03  0.00000000000E+00 0.  1.
         21    1    1    2  504  506  0.27287098921E+02 -0.48200040898E+02  0.81502325794E+02  0.98541660327E+02  0.00000000000E+00 0. -1.
         21    1    1    2  505  504 -0.41200515716E+02 -0.29902229279E+02  0.14305428645E+03  0.15184253253E+03  0.00000000000E+00 0. -1.
         21    1    1    2  506  502  0.17135423927E+03  0.86745403500E+02  0.72528827498E+03  0.75028669332E+03  0.00000000000E+00 0. -1.
<scales pt_clust_3="158.78361" pt_clust_4="56.22105" pt_clust_5="50.90801" pt_clust_6="14000.00000"></scales>
<clustering>
<clus scale="   50.908">  1  5  2 -1</clus>
<clus scale="   56.221">  1  4  2 -1</clus>
<clus scale="  158.784">  2  3  1 -1</clus>
<clus scale="   50.908">  1  3  2 -1</clus>
</clustering>
</event>
<event>
 6    0  0.5563122E+002  0.1180706E+03  0.7546771E-02  0.1246314E+00
         21   -1    0    0  503  501  0.00000000000E+00  0.00000000000E+00  0.45987561017E+03  0.45987561017E+03  0.00000000000E+00 0. -1.
         21   -1    0    0  506  502 -0.00000000000E+00 -0.00000000000E+00 -0.20497643018E+03  0.20497643018E+03  0.00000000000E+00 0.  1.
         21    1    1    2  503  502  0.98059285477E+02  0.14045118247E+02 -0.14316625578E+03  0.17409613898E+03  0.00000000000E+00 0.  1.
         21    1    1    2  504  505  0.42648891001E+02  0.47748091682E-02  0.77076106677E+01  0.43339764519E+02  0.00000000000E+00 0.  1.
         21    1    1    2  505  501 -0.11794365225E+03  0.18431191060E+02  0.38988326195E+03  0.40774915311E+03  0.00000000000E+00 0. -1.
         21    1    1    2  506  504 -0.22764524230E+02 -0.32481084116E+02  0.47456314792E+00  0.39666983739E+02  0.00000000000E+00 0.  1.
<scales pt_clust_3="118.07058" pt_clust_4="40.58096" pt_clust_5="14000.00000" pt_clust_6="39.66414"></scales>
<clustering>
<clus scale="   39.664">  2  6  1 -1</clus>
<clus scale="   40.581">  2  4  1 -1</clus>
<clus scale="  118.071">  2  3  1 -1</clus>
<clus scale="  118.071">  1  3  2 -1</clus>
</clustering>
</event>
<event>
 6    0  0.5563122E+002  0.1057803E+03  0.7546771E-02  0.1268590E+00
         21   -1    0    0  505  501  0.00000000000E+00  0.00000000000E+00  0.62805706324E+03  0.62805706324E+03  0.00000000000E+00 0. -1.
         21   -1    0    0  503  502 -0.00000000000E+00 -0.00000000000E+00 -0.11983305947E+03  0.11983305947E+03  0.00000000000E+00 0.  1.
         21    1    1    2  503  506 -0.43327532235E+02 -0.62552161963E+01  0.24691574107E+01  0.43846317035E+02  0.00000000000E+00 0.  1.
         21    1    1    2  504  502  0.19787346739E+02 -0.10381683729E+03 -0.57538929813E+02  0.12033371614E+03  0.00000000000E+00 0.  1.
         21    1    1    2  505  504 -0.54865532586E+01  0.52018896313E+02  0.76892627463E+02  0.92997548347E+02  0.00000000000E+00 0.  1.
         21    1    1    2  506  501  0.29026738754E+02  0.58053157173E+02  0.48640114870E+03  0.49071254119E+03  0.00000000000E+00 0. -1.
<scales pt_clust_3="43.77674" pt_clust_4="14000.00000" pt_clust_5="52.29215" pt_clust_6="105.78034"></scales>
<clustering>
<clus scale="   43.777">  2  3  1 -1</clus>
<clus scale="   52.292">  1  5  2 -1</clus>
<clus scale="  105.780">  1  6  2 -1</clus>
<clus scale="   52.292">  1  3  2 -1</clus>
</clustering>
</event>
<event>
 6    0  0.5563122E+002  0.8393718E+02  0.7546771E-02  0.1318236E+00
         21   -1    0    0  503  501  0.00000000000E+00  0.00000000000E+00  0.89414642419E+03  0.89414642419E+03  0.00000000000E+00 0.  1.
         21   -1    0    0  505  502 -0.00000000000E+00 -0.00000000000E+00 -0.55489895816E+02  0.55489895816E+02  0.00000000000E+00 0. -1.
         21    1    1    2  503  504  0.58918944757E+02 -0.63865043202E+02  0.65131885149E+02  0.10859257920E+03  0.00000000000E+00 0. -1.
         21    1    1    2  504  502 -0.26470036986E+02  0.18457450878E+02 -0.13342797118E+02  0.34919487194E+02  0.00000000000E+00 0. -1.
         21    1    1    2  505  506  0.47123956403E+02  0.16638991627E+02  0.80808427780E+02  0.95013290174E+02  0.00000000000E+00 0. -1.
         21    1    1    2  506  501 -0.79572864174E+02  0.28768600697E+02  0.70605901256E+03  0.71111096344E+03  0.00000000000E+00 0.  1.
<scales pt_clust_3="14000.00000" pt_clust_4="32.26981" pt_clust_5="46.09798" pt_clust_6="83.93718"></scales>
<clustering>
<clus scale="   32.270">  2  4  1 -1</clus>
<clus scale="   46.098">  2  5  1 -1</clus>
<clus scale="   83.937">  1  6  2 -1</clus>
<clus scale="   83.937">  1  3  2 -1</clus>
</clustering>
</event>
<event>
 6    0  0.5563122E+002  0.6496041E+02  0.7546771E-02  0.1378120E+00
         21   -1    0    0  503  501  0.00000000000E+00  0.00000000000E+00  0.15203954498E+04  0.15203954498E+04  0.00000000000E+00 0.  1.
         21   -1    0    0  506  502 -0.00000000000E+00 -0.00000000000E+00 -0.30177833567E+03  0.30177833567E+03  0.00000000000E+00 0. -1.
         21    1    1    2  503  505  0.90110688704E+02  0.86531508124E+01  0.11975907197E+04  0.12010072211E+04  0.00000000000E+00 0.  1.
         21    1    1    2  504  501 -0.47742241551E+02 -0.50947061847E+01  0.17318139641E+03  0.17971386625E+03  0.00000000000E+00 0.  1.
         21    1    1    2  505  502  0.35474335123E+02 -0.53790383327E+02 -0.27789602081E+03  0.28526835116E+03  0.00000000000E+00 0. -1.
         21    1    1    2  506  504 -0.77842782276E+02  0.50231938700E+02  0.12574101885E+03  0.15618434698E+03  0.00000000000E+00 0. -1.
<scales pt_clust_3="47.68411" pt_clust_4="48.01331" pt_clust_5="64.96041" pt_clust_6="14000.00000"></scales>
<clustering>
<clus scale="   48.013">  1  4  2 -1</clus>
<clus scale="   47.684">  1  3  2 -1</clus>
<clus scale="   64.960">  2  5  1 -1</clus>
<clus scale="   48.013">  1  3  2 -1</clus>
</clustering>
</event>
<event>
 6    0  0.5563122E+002  0.2196833E+03  0.7546771E-02  0.1134119E+00
         21   -1    0    0  505  501  0.00000000000E+00  0.00000000000E+00  0.11701861160E+03  0.11701861160E+03  0.00000000000E+00 0. -1.
         21   -1    0    0  504  502 -0.00000000000E+00 -0.00000000000E+00 -0.97102872751E+03  0.97102872751E+03  0.00000000000E+00 0. -1.
         21    1    1    2  503  501  0.17016634499E+03 -0.16537699902E+03 -0.38974849273E+03  0.45630036638E+03  0.00000000000E+00 0. -1.
         21    1    1    2  504  503  0.44587116147E+02 -0.53901851237E+01 -0.19850888767E+03  0.20352602661E+03  0.00000000000E+00 0. -1.
         21    1    1    2  505  506 -0.10759043132E+03  0.18583884914E+03 -0.11783304102E+03  0.24494163451E+03  0.00000000000E+00 0. -1.
         21    1    1    2  506  502 -0.10716302982E+03 -0.15071665000E+02 -0.14791969449E+03  0.18327931161E+03  0.00000000000E+00 0. -1.
<scales pt_clust_3="219.68329" pt_clust_4="44.91175" pt_clust_5="14000.00000" pt_clust_6="98.91482"></scales>
<clustering>
<clus scale="   44.912">  2  4  1 -1</clus>
<clus scale="   98.915">  2  6  1 -1</clus>
<clus scale="  219.683">  2  3  1 -1</clus>
<clus scale="  219.683">  1  3  2 -1</clus>
</clustering>
</event>
<event>
 6    0  0.5563122E+002  0.1721332E+03  0.7546771E-02  0.1175641E+00
         21   -1    0    0  505  501  0.00000000000E+00  0.00000000000E+00  0.54984716071E+03  0.54984716071E+03  0.00000000000E+00 0. -1.
         21   -1    0    0  503  502 -0.00000000000E+00 -0.00000000000E+00 -0.16962634455E+03  0.16962634455E+03  0.00000000000E+00 0. -1.
         21    1    1    2  503  504  0.10229319835E+03 -0.70253412275E+02  0.13630149600E+02  0.12484078398E+03  0.00000000000E+00 0. -1.
         21    1    1    2  504  501  0.36023751312E+02 -0.10277793287E+03  0.34388407991E+03  0.36071772144E+03  0.00000000000E+00 0. -1.
         21    1    1    2  505  506 -0.10062233592E+03  0.68678543903E+02  0.99461875287E+01  0.12223143428E+03  0.00000000000E+00 0.  1.
         21    1    1    2  506  502 -0.37694613742E+02  0.10435280125E+03  0.12760399121E+02  0.11168356557E+03  0.00000000000E+00 0. -1.
<scales pt_clust_3="156.52677" pt_clust_4="108.90828" pt_clust_5="68.34759" pt_clust_6="68.34759"></scales>
<clustering>
<clus scale="   68.348">  5  6 -1 -1</clus>
<clus scale="  108.908">  1  4  2 -1</clus>
<clus scale="  156.527">  2  3  1 -1</clus>
<clus scale="  108.908">  1  3  2 -1</clus>
</clustering>
</event>
<event>
 6    0  0.5563122E+002  0.2168156E+03  0.7546771E-02  0.1136280E+00
         21   -1    0    0  503  501  0.00000000000E+00  0.00000000000E+00  0.32311372526E+04  0.32311372526E+04  0.00000000000E+00 0.  1.
         21   -1    0    0  505  502 -0.00000000000E+00 -0.00000000000E+00 -0.10717214019E+03  0.10717214019E+03  0.00000000000E+00 0. -1.
         21    1    1    2  503  502 -0.57988844511E+02 -0.19850771465E+03  0.51070798376E+02  0.21301700709E+03  0.00000000000E+00 0. -1.
         21    1    1    2  504  506  0.32059321074E+01  0.12931663080E+03  0.26904112374E+03  0.29852335799E+03  0.00000000000E+00 0.  1.
         21    1    1    2  505  504 -0.18728744049E+02  0.12281865708E+03  0.35295622959E+03  0.37418349561E+03  0.00000000000E+00 0.  1.
         21    1    1    2  506  501  0.73511656453E+02 -0.53627573229E+02  0.24508969607E+04  0.24525855321E+04  0.00000000000E+00 0.  1.
<scales pt_clust_3="212.52845" pt_clust_4="42.04543" pt_clust_5="42.04543" pt_clust_6="90.99385"></scales>
<clustering>
<clus scale="   42.045">  4  5 -1 -1</clus>
<clus scale="   90.994">  1  6  2 -1</clus>
<clus scale="  212.528">  2  3  1 -1</clus>
<clus scale="   90.994">  1  3  2 -1</clus>
</clustering>
</event>
<event>
 6    0  0.5563122E+002  0.7517071E+02  0.7546771E-02  0.1343343E+00
         21   -1    0    0  506  501  0.00000000000E+00  0.00000000000E+00  0.23383221026E+03  0.23383221026E+03  0.00000000000E+00 0. -1.
         21   -1    0    0  504  502 -0.00000000000E+00 -0.00000000000E+00 -0.23797873325E+03  0.23797873325E+03  0.00000000000E+00 0. -1.
         21    1    1    2  503  501 -0.79338785931E+01  0.70176313335E+02  0.18558985314E+02  0.73021211430E+02  0.00000000000E+00 0. -1.
         21    1    1    2  504  503 -0.22827759073E+02 -0.54946542221E+02 -0.14881660033E+03  0.16027042653E+03  0.00000000000E+00 0. -1.
         21    1    1    2  505  502 -0.32317667388E+02 -0.60668960616E+02 -0.21215704670E+02  0.71939283651E+02  0.00000000000E+00 0. -1.
         21    1    1    2  506  505  0.63079305054E+02  0.45439189502E+02  0.14732679670E+03  0.16658002189E+03  0.00000000000E+00 0. -1.
<scales pt_clust_3="54.46122" pt_clust_4="59.49982" pt_clust_5="14000.00000" pt_clust_6="75.17071"></scales>
<clustering>
<clus scale="   59.500">  2  4  1 -1</clus>
<clus scale="   54.461">  2  3  1 -1</clus>
<clus scale="   75.171">  1  6  2 -1</clus>
<clus scale="   75.171">  1  3  2 -1</clus>
</clustering>
</event>
<event>
 6    0  0.5563122E+002  0.1850563E+03  0.7546771E-02  0.1162997E+00
         21   -1    0    0  505  501  0.00000000000E+00  0.00000000000E+00  0.83721888066E+03  0.83721888066E+03  0.00000000000E+00 0. -1.
         21   -1    0    0  504  502 -0.00000000000E+00 -0.00000000000E+00 -0.69421863617E+02  0.69421863617E+02  0.00000000000E+00 0. -1.
         21    1    1    2  503  506  0.90315238969E+02  0.29124842504E+01  0.53724725845E+02  0.10512692862E+03  0.00000000000E+00 0. -1.
         21    1    1    2  504  501 -0.25893216869E+02  0.26106811003E+02  0.29167149621E+03  0.29398007749E+03  0.00000000000E+00 0.  1.
         21    1    1    2  505  503 -0.13503664524E+03 -0.96671919434E+02  0.34473733703E+03  0.38265413509E+03  0.00000000000E+00 0. -1.
         21    1    1    2  506  502  0.70614623140E+02  0.67652624181E+02  0.77663457961E+02  0.12487960307E+03  0.00000000000E+00 0. -1.
<scales pt_clust_3="64.97456" pt_clust_4="36.76988" pt_clust_5="171.70767" pt_clust_6="64.97456"></scales>
<clustering>
<clus scale="   36.770">  1  4  2 -1</clus>
<clus scale="   64.975">  3  6 -1 -1</clus>
<clus scale="  171.708">  1  5  2 -1</clus>
<clus scale="   36.770">  1  3  2 -1</clus>
</clustering>
</event>
<event>
 6    0  0.5563122E+002  0.2045060E+03  0.7546771E-02  0.1145992E+00
         21   -1    0    0  505  501  0.00000000000E+00  0.00000000000E+00  0.34238793716E+03  0.34238793716E+03  0.00000000000E+00 0. -1.
         21   -1    0    0  503  502 -0.00000000000E+00 -0.00000000000E+00 -0.56341484377E+03  0.56341484377E+03  0.00000000000E+00 0.  1.
         21    1    1    2  503  506 -0.18504358345E+03  0.63584114435E+01 -0.35718821799E+03  0.40232447134E+03  0.00000000000E+00 0.  1.
         21    1    1    2  504  502  0.13978886671E+03 -0.88836636511E+02  0.53935453898E+02  0.17418928908E+03  0.00000000000E+00 0. -1.
         21    1    1    2  505  504  0.14910753148E+03 -0.41182408470E+02  0.18937029310E+02  0.15584498000E+03  0.00000000000E+00 0. -1.
         21    1    1    2  506  501 -0.10385281474E+03  0.12366063354E+03  0.63288828177E+02  0.17344404051E+03  0.00000000000E+00 0. -1.
<scales pt_clust_3="196.40918" pt_clust_4="55.06138" pt_clust_5="55.06138" pt_clust_6="161.48486"></scales>
<clustering>
<clus scale="   55.061">  4  5 -1 -1</clus>
<clus scale="  161.485">  1  6  2 -1</clus>
<clus scale="  196.409">  2  3  1 -1</clus>
<clus scale="  161.485">  1  3  2 -1</clus>
</clustering>
</event>
<event>
 6    0  0.5563122E+002  0.8831458E+02  0.7546771E-02  0.1306985E+00
         21   -1    0    0  505  501  0.00000000000E+00  0.00000000000E+00  0.43135172734E+03  0.43135172734E+03  0.00000000000E+00 0.  1.
         21   -1    0    0  506  502 -0.00000000000E+00 -0.00000000000E+00 -0.93614511125E+03  0.93614511125E+03  0.00000000000E+00 0.  1.
         21    1    1    2  503  502 -0.79931170352E+02 -0.22641861349E+02 -0.30374677916E+03  0.31490276551E+03  0.00000000000E+00 0.  1.
         21    1    1    2  504  501  0.82856000746E+02  0.27530122070E+02 -0.55674539520E+03  0.56354987318E+03  0.00000000000E+00 0.  1.
         21    1    1    2  505  503 -0.42507695565E+02 -0.77785659640E+01  0.41524290328E+03  0.41748542369E+03  0.00000000000E+00 0.  1.
         21    1    1    2  506  504  0.39582865170E+02  0.28903052421E+01 -0.59544112835E+02  0.71558776211E+02  0.00000000000E+00 0. -1.
<scales pt_clust_3="88.31458" pt_clust_4="14000.00000" pt_clust_5="43.16273" pt_clust_6="39.68825"></scales>
<clustering>
<clus scale="   39.688">  2  6  1 -1</clus>
<clus scale="   43.163">  1  5  2 -1</clus>
<clus scale="   88.315">  1  3  2 -1</clus>
<clus scale="   43.163">  1  3  2 -1</clus>
</clustering>
</event>
<event>
 6    0  0.5563122E+002  0.1122269E+03  0.7546771E-02  0.1256501E+00
         21   -1    0    0  503  501  0.00000000000E+00  0.00000000000E+00  0.74001531518E+02  0.74001531518E+02  0.00000000000E+00 0.  1.
         21   -1    0    0  506  502 -0.00000000000E+00 -0.00000000000E+00 -0.19687980963E+04  0.19687980963E+04  0.00000000000E+00 0.  1.
         21    1    1    2  503  502 -0.35144059746E+02  0.16486848957E+02 -0.31698132231E+03  0.31934946346E+03  0.00000000000E+00 0.  1.
         21    1    1    2  504  501 -0.22286402737E+02 -0.10061214766E+03  0.33450724365E+02  0.10834407674E+03  0.00000000000E+00 0.  1.
         21    1    1    2  505  504  0.46028738320E+02  0.30867760701E+02 -0.68372405816E+03  0.68596650874E+03  0.00000000000E+00 0.  1.
         21    1    1    2  506  505  0.11401724163E+02  0.53257538006E+02 -0.92754190866E+03  0.92913957885E+03  0.00000000000E+00 0. -1.
<scales pt_clust_3="38.81908" pt_clust_4="102.86174" pt_clust_5="39.59486" pt_clust_6="39.59486"></scales>
<clustering>
<clus scale="   38.819">  2  3  1 -1</clus>
<clus scale="   39.595">  5  6 -1 -1</clus>
<clus scale="  102.862">  1  4  2 -1</clus>
<clus scale="  102.862">  1  3  2 -1</clus>
</clustering>
</event>
<event>
 6    0  0.5563122E+002  0.1060168E+03  0.7546771E-02  0.1268129E+00
         21   -1    0    0  505  501  0.00000000000E+00  0.00000000000E+00  0.60228263165E+02  0.60228263165E+02  0.00000000000E+00 0.  1.
         21   -1    0    0  503  502 -0.00000000000E+00 -0.00000000000E+00 -0.46524201994E+03  0.46524201994E+03  0.00000000000E+00 0.  1.
         21    1    1    2  503  506  0.57958723094E+02 -0.10201443149E+02 -0.16312202243E+03  0.17341302497E+03  0.00000000000E+00 0.  1.
         21    1    1    2  504  501 -0.61438231050E+02 -0.10525803171E+02  0.48885804601E+01  0.62524770978E+02  0.00000000000E+00 0.  1.
         21    1    1    2  505  502 -0.54217271804E+02  0.59886274914E+02 -0.11655239124E+03  0.14181092478E+03  0.00000000000E+00 0.  1.
         21    1    1    2  506  504  0.57696779760E+02 -0.39159028593E+02 -0.13022792356E+03  0.14772156237E+03  0.00000000000E+00 0.  1.
<scales pt_clust_3="32.61714" pt_clust_4="62.33337" pt_clust_5="99.89480" pt_clust_6="32.61714"></scales>
<clustering>
<clus scale="   32.617">  3  6 -1 -1</clus>
<clus scale="   62.333">  1  4  2 -1</clus>
<clus scale="   99.895">  2  5  1 -1</clus>
<clus scale="   62.333">  1  3  2 -1</clus>
</clustering>
</event>
<event>
 6    0  0.5563122E+002  0.1415088E+03  0.7546771E-02  0.1211313E+00
         21   -1    0    0  505  501  0.00000000000E+00  0.00000000000E+00  0.39937177543E+03  0.39937177543E+03  0.00000000000E+00 0. -1.
         21   -1    0    0  506  502 -0.00000000000E+00 -0.00000000000E+00 -0.13865644662E+03  0.13865644662E+03  0.00000000000E+00 0. -1.
         21    1    1    2  503  501 -0.55061057692E+02  0.13185509895E+03  0.19966638829E+03  0.24552831569E+03  0.00000000000E+00 0. -1.
         21    1    1    2  504  502 -0.13014224516E+02 -0.17013808036E+03 -0.32172144403E+01  0.17066542385E+03  0.00000000000E+00 0. -1.
         21    1    1    2  505  504  0.33077674965E+02 -0.17178994152E+01  0.59972901241E+02  0.68511551163E+02  0.00000000000E+00 0.  1.
         21    1    1    2  506  503  0.34997607243E+02  0.40000880829E+02  0.42932537128E+01  0.53322931346E+02  0.00000000000E+00 0. -1.
<scales pt_clust_3="141.50881" pt_clust_4="14000.00000" pt_clust_5="33.12225" pt_clust_6="54.95652"></scales>
<clustering>
<clus scale="   33.122">  1  5  2 -1</clus>
<clus scale="   54.957">  2  6  1 -1</clus>
<clus scale="  141.509">  1  3  2 -1</clus>
<clus scale="   33.122">  1  3  2 -1</clus>
</clustering>
</event>
<event>
 6    0  0.5563122E+002  0.8702948E+02  0.7546771E-02  0.1310209E+00
         21   -1    0    0  502  501  0.00000000000E+00  0.00000000000E+00  0.22228820812E+03  0.22228820812E+03  0.00000000000E+00 0. -1.
         21   -1    0    0  505  502 -0.00000000000E+00 -0.00000000000E+00 -0.90938018409E+03  0.90938018409E+03  0.00000000000E+00 0.  1.
         21    1    1    2  503  501 -0.11962417700E+02 -0.38117409455E+02  0.20458007584E+03  0.20844434214E+03  0.00000000000E+00 0. -1.
         21    1    1    2  504  506 -0.28884804179E+02 -0.48418277768E+02 -0.10590382673E+03  0.11997617284E+03  0.00000000000E+00 0.  1.
         21    1    1    2  505  504  0.27158534460E+00  0.11383684336E+03 -0.62208054288E+03  0.63241054901E+03  0.00000000000E+00 0.  1.
         21    1    1    2  506  503  0.40575636534E+02 -0.27301156135E+02 -0.16368768220E+03  0.17083732821E+03  0.00000000000E+00 0.  1.
<scales pt_clust_3="39.95042" pt_clust_4="14000.00000" pt_clust_5="87.02948" pt_clust_6="52.20472"></scales>
<clustering>
<clus scale="   39.950">  1  3  2 -1</clus>
<clus scale="   52.205">  1  6  2 -1</clus>
<clus scale="   87.029">  2  5  1 -1</clus>
<clus scale="   39.950">  1  3  2 -1</clus>
</clustering>
</event>
<event>
 6    0  0.5563122E+002  0.5568252E+02  0.7546771E-02  0.1416898E+00
         21   -1    0    0  503  501  0.00000000000E+00  0.00000000000E+00  0.25010120861E+04  0.25010120861E+04  0.00000000000E+00 0.  1.
         21   -1    0    0  504  502 -0.00000000000E+00 -0.00000000000E+00 -0.11514183569E+02  0.11514183569E+02  0.00000000000E+00 0.  1.
         21    1    1    2  503  505 -0.65182288597E+02 -0.91809446441E+01  0.12531103536E+04  0.12548380687E+04  0.00000000000E+00 0.  1.
         21    1    1    2  504  501  0.32588575518E+02 -0.80251007323E+02  0.24683674882E+03  0.26159246931E+03  0.00000000000E+00 0.  1.
         21    1    1    2  505  506  0.33346035280E+02  0.41318283134E+02  0.74289467677E+03  0.74478967458E+03  0.00000000000E+00 0.  1.
         21    1    1    2  506  502 -0.75232220132E+00  0.48113668833E+02  0.24665612337E+03  0.25130605705E+03  0.00000000000E+00 0.  1.
<scales pt_clust_3="14000.00000" pt_clust_4="52.49144" pt_clust_5="55.68252" pt_clust_6="48.11955"></scales>
<clustering>
<clus scale="   48.120">  2  6  1 -1</clus>
<clus scale="   52.491">  2  4  1 -1</clus>
<clus scale="   55.683">  2  5  1 -1</clus>
<clus scale="   55.683">  1  3  2 -1</clus>
</clustering>
</event>
<event>
 6    0  0.5563122E+002  0.9963923E+02  0.7546771E-02  0.1281056E+00
         21   -1    0    0  505  501  0.00000000000E+00  0.00000000000E+00  0.76204584768E+03  0.76204584768E+03  0.00000000000E+00 0.  1.
         21   -1    0    0  503  502 -0.00000000000E+00 -0.00000000000E+00 -0.25450575860E+03  0.25450575860E+03  0.00000000000E+00 0.  1.
         21    1    1    2  503  506  0.93506347828E+02  0.80346380563E+00 -0.15513762191E+03  0.18114017878E+03  0.00000000000E+00 0.  1.
         21    1    1    2  504  502 -0.41485813836E+02  0.22751065484E+02  0.10053925040E+02  0.48371118853E+02  0.00000000000E+00 0.  1.
         21    1    1    2  505  504 -0.77461238067E+02  0.64764216871E+02  0.68286025623E+03  0.69028456214E+03  0.00000000000E+00 0.  1.
         21    1    1    2  506  501  0.25440704075E+02 -0.88318746161E+02 -0.30236470287E+02  0.96755746510E+02  0.00000000000E+00 0. -1.
<scales pt_clust_3="66.10626" pt_clust_4="47.31473" pt_clust_5="99.63923" pt_clust_6="14000.00000"></scales>
<clustering>
<clus scale="   47.315">  2  4  1 -1</clus>
<clus scale="   66.106">  2  3  1 -1</clus>
<clus scale="   99.639">  1  5  2 -1</clus>
<clus scale="   99.639">  1  3  2 -1</clus>
</clustering>
</event>
<event>
 6    0  0.5563122E+002  0.9032444E+02  0.7546771E-02  0.1302068E+00
         21   -1    0    0  506  501  0.00000000000E+00  0.00000000000E+00  0.12094518839E+03  0.12094518839E+03  0.00000000000E+00 0.  1.
         21   -1    0    0  504  502 -0.00000000000E+00 -0.00000000000E+00 -0.51034853788E+03  0.51034853788E+03  0.00000000000E+00 0.  1.
         21    1    1    2  503  501 -0.29696411298E+02 -0.26235747066E+02 -0.25089524725E+02  0.46900698492E+02  0.00000000000E+00 0.  1.
         21    1    1    2  504  503 -0.58800607720E+02  0.76382263320E+01 -0.36026041644E+03  0.36510741108E+03  0.00000000000E+00 0.  1.
         21    1    1    2  505  502  0.13292205276E+03  0.46707010207E+02 -0.49966925464E+02  0.14948749296E+03  0.00000000000E+00 0.  1.
         21    1    1    2  506  505 -0.44425033740E+02 -0.28109489472E+02  0.45913517139E+02  0.69798123737E+02  0.00000000000E+00 0.  1.
<scales pt_clust_3="39.62564" pt_clust_4="59.87239" pt_clust_5="90.32444" pt_clust_6="14000.00000"></scales>
<clustering>
<clus scale="   39.626">  1  3  2 -1</clus>
<clus scale="   59.872">  2  4  1 -1</clus>
<clus scale="   90.324">  2  5  1 -1</clus>
<clus scale="   39.626">  1  3  2 -1</clus>
</clustering>
</event>
<event>
 6    0  0.5563122E+002  0.1255907E+03  0.7546771E-02  0.1234149E+00
         21   -1    0    0  506  501  0.00000000000E+00  0.00000000000E+00  0.12946130350E+03  0.12946130350E+03  0.00000000000E+00 0. -1.
         21   -1    0    0  505  502 -0.00000000000E+00 -0.00000000000E+00 -0.19566596906E+03  0.19566596906E+03  0.00000000000E+00 0. -1.
         21    1    1    2  503  502 -0.66851491485E+02  0.97725197618E+02 -0.71829698226E+02  0.13848769516E+03  0.00000000000E+00 0. -1.
         21    1    1    2  504  503  0.49936281615E+02 -0.11370804255E+02  0.12492128135E+01  0.51229756427E+02  0.00000000000E+00 0. -1.
         21    1    1    2  505  501 -0.39012607137E+02 -0.32979486105E+02 -0.19218117041E+02  0.54579905112E+02  0.00000000000E+00 0. -1.
         21    1    1    2  506  504  0.55927817007E+02 -0.53374907259E+02  0.23593936889E+02  0.80829915860E+02  0.00000000000E+00 0. -1.
<scales pt_clust_3="119.79009" pt_clust_4="30.70696" pt_clust_5="51.08454" pt_clust_6="30.70696"></scales>
<clustering>
<clus scale="   30.707">  4  6 -1 -1</clus>
<clus scale="   51.085">  2  5  1 -1</clus>
<clus scale="  119.790">  2  3  1 -1</clus>
<clus scale="  125.591">  1  3  2 -1</clus>
</clustering>
</event>
<event>
 6    0  0.5563122E+002  0.5405458E+03  0.7546771E-02  0.1003706E+00
         21   -1    0    0  506  501  0.00000000000E+00  0.00000000000E+00  0.69751496000E+03  0.69751496000E+03  0.00000000000E+00 0. -1.
         21   -1    0    0  504  502 -0.00000000000E+00 -0.00000000000E+00 -0.71528920742E+03  0.71528920742E+03  0.00000000000E+00 0. -1.
         21    1    1    2  503  502  0.49988629019E+03  0.93054565386E+02 -0.19508975616E+03  0.54461497245E+03  0.00000000000E+00 0. -1.
         21    1    1    2  504  505 -0.59839803629E+03 -0.11885683003E+02 -0.18447608843E+02  0.59880029523E+03  0.00000000000E+00 0. -1.
         21    1    1    2  505  501  0.85070701767E+02 -0.11793456302E+03  0.14584430925E+03  0.20595180988E+03  0.00000000000E+00 0. -1.
         21    1    1    2  506  503  0.13441044338E+02  0.36765680635E+02  0.49918808329E+02  0.63437089864E+02  0.00000000000E+00 0. -1.
<scales pt_clust_3="540.54577" pt_clust_4="14000.00000" pt_clust_5="139.67271" pt_clust_6="39.14559"></scales>
<clustering>
<clus scale="   39.146">  1  6  2 -1</clus>
<clus scale="  139.673">  1  5  2 -1</clus>
<clus scale="  540.546">  2  3  1 -1</clus>
<clus scale="   39.146">  1  3  2 -1</clus>
</clustering>
</event>
<event>
 6    0  0.5563122E+002  0.1929940E+03  0.7546771E-02  0.1155788E+00
         21   -1    0    0  505  501  0.00000000000E+00  0.00000000000E+00  0.12885086969E+04  0.12885086969E+04  0.00000000000E+00 0. -1.
         21   -1    0    0  504  502 -0.00000000000E+00 -0.00000000000E+00 -0.56198214905E+02  0.56198214905E+02  0.00000000000E+00 0. -1.
         21    1    1    2  503  502  0.20521267425E+01 -0.35159566369E+02 -0.13397595186E+02  0.37681585532E+02  0.00000000000E+00 0. -1.
         21    1    1    2  504  501 -0.18113409877E+03  0.24879141293E+01  0.80943350479E+03  0.82945665959E+03  0.00000000000E+00 0. -1.
         21    1    1    2  505  506  0.31551585815E+02  0.13406813333E+02  0.16150368218E+03  0.16510204289E+03  0.00000000000E+00 0. -1.
         21    1    1    2  506  503  0.14753038621E+03  0.19264838907E+02  0.27477089021E+03  0.31246662378E+03  0.00000000000E+00 0. -1.
<scales pt_clust_3="35.21940" pt_clust_4="180.68793" pt_clust_5="32.55109" pt_clust_6="32.55109"></scales>
<clustering>
<clus scale="   32.551">  5  6 -1 -1</clus>
<clus scale="   35.219">  2  3  1 -1</clus>
<clus scale="  180.688">  1  4  2 -1</clus>
<clus scale="  180.688">  1  3  2 -1</clus>
</clustering>
</event>
<event>
 6    0  0.5563122E+002  0.1979239E+03  0.7546771E-02  0.1151503E+00
         21   -1    0    0  503  501  0.00000000000E+00  0.00000000000E+00  0.85291882792E+03  0.85291882792E+03  0.00000000000E+00 0. -1.
         21   -1    0    0  505  502 -0.00000000000E+00 -0.00000000000E+00 -0.81725820898E+03  0.81725820898E+03  0.00000000000E+00 0. -1.
         21    1    1    2  503  506  0.59086561239E+02 -0.34962201274E+02 -0.59490298593E+02  0.90844223062E+02  0.00000000000E+00 0. -1.
         21    1    1    2  504  501 -0.19354542636E+02 -0.36897771947E+02  0.78817936118E+03  0.78927989286E+03  0.00000000000E+00 0. -1.
         21    1    1    2  505  504 -0.60423313241E+02  0.17835921978E+03 -0.64405397183E+03  0.67102049648E+03  0.00000000000E+00 0. -1.
         21    1    1    2  506  502  0.20691294637E+02 -0.10649924656E+03 -0.48974471809E+02  0.11903242449E+03  0.00000000000E+00 0. -1.
<scales pt_clust_3="57.02160" pt_clust_4="41.66586" pt_clust_5="182.39003" pt_clust_6="57.02160"></scales>
<clustering>
<clus scale="   41.666">  1  4  2 -1</clus>
<clus scale="   57.022">  3  6 -1 -1</clus>
<clus scale="  182.390">  2  5  1 -1</clus>
<clus scale="   41.666">  1  3  2 -1</clus>
</clustering>
</event>
<event>
 6    0  0.5563122E+002  0.1797544E+03  0.7546771E-02  0.1168041E+00
         21   -1    0    0  502  501  0.00000000000E+00  0.00000000000E+00  0.47386647480E+03  0.47386647480E+03  0.00000000000E+00 0.  1.
         21   -1    0    0  503  502 -0.00000000000E+00 -0.00000000000E+00 -0.21244904598E+03  0.21244904598E+03  0.00000000000E+00 0.  1.
         21    1    1    2  503  505 -0.69211991866E+02  0.52472993244E+02 -0.70105696644E+02  0.11161775638E+03  0.00000000000E+00 0.  1.
         21    1    1    2  504  506  0.13679963884E+03 -0.50634067673E+02  0.80163402468E+02  0.16644554993E+03  0.00000000000E+00 0.  1.
         21    1    1    2  505  504 -0.85887615888E+02  0.60392114882E+02 -0.38039034708E+02  0.11167299702E+03  0.00000000000E+00 0.  1.
         21    1    1    2  506  501  0.18299968917E+02 -0.62231040452E+02  0.28939875770E+03  0.29657921744E+03  0.00000000000E+00 0.  1.
<scales pt_clust_3="33.65296" pt_clust_4="175.90501" pt_clust_5="33.65296" pt_clust_6="64.86595"></scales>
<clustering>
<clus scale="   33.653">  3  5 -1 -1</clus>
<clus scale="   64.866">  1  6  2 -1</clus>
<clus scale="  175.905">  1  4  2 -1</clus>
<clus scale="   64.866">  1  3  2 -1</clus>
</clustering>
</event>
<event>
 6    0  0.5563122E+002  0.1015044E+03  0.7546771E-02  0.1277164E+00
         21   -1    0    0  503  501  0.00000000000E+00  0.00000000000E+00  0.37538210956E+03  0.37538210956E+03  0.00000000000E+00 0.  1.
         21   -1    0    0  506  502 -0.00000000000E+00 -0.00000000000E+00 -0.11390689889E+03  0.11390689889E+03  0.00000000000E+00 0.  1.
         21    1    1    2  503  505  0.70381639263E+02  0.65223719937E+02  0.57873263157E+02  0.11205812499E+03  0.00000000000E+00 0. -1.
         21    1    1    2  504  501  0.23568383269E+01 -0.11622957214E+03  0.23212200955E+03  0.25960642412E+03  0.00000000000E+00 0.  1.
         21    1    1    2  505  502 -0.17877205664E+02  0.52392537289E+02  0.88202413691E+00  0.55365606766E+02  0.00000000000E+00 0.  1.
         21    1    1    2  506  504 -0.54861271926E+02 -0.13866850876E+01 -0.29402086177E+02  0.62258852579E+02  0.00000000000E+00 0.  1.
<scales pt_clust_3="101.50440" pt_clust_4="14000.00000" pt_clust_5="65.37300" pt_clust_6="54.87879"></scales>
<clustering>
<clus scale="   54.879">  2  6  1 -1</clus>
<clus scale="   65.373">  2  5  1 -1</clus>
<clus scale="  101.504">  2  3  1 -1</clus>
<clus scale="  101.504">  1  3  2 -1</clus>
</clustering>
</event>
<event>
 6    0  0.5563122E+002  0.2121790E+03  0.7546771E-02  0.1139852E+00
         21   -1    0    0  506  501  0.00000000000E+00  0.00000000000E+00  0.40469901945E+03  0.40469901945E+03  0.00000000000E+00 0.  1.
         21   -1    0    0  505  502 -0.00000000000E+00 -0.00000000000E+00 -0.94026285712E+03  0.94026285712E+03  0.00000000000E+00 0.  1.
         21    1    1    2  503  502  0.58715217381E+02  0.16434124341E+01 -0.47625906875E+03  0.47986756311E+03  0.00000000000E+00 0.  1.
         21    1    1    2  504  503  0.82336312194E+02 -0.66921109119E+02 -0.36650517059E+03  0.38155437780E+03  0.00000000000E+00 0.  1.
         21    1    1    2  505  501  0.10678286987E+02 -0.56525945525E+02 -0.50368625630E+02  0.76460491617E+02  0.00000000000E+00 0.  1.
         21    1    1    2  506  504 -0.15172981656E+03  0.12180364221E+03  0.35756902729E+03  0.40707944405E+03  0.00000000000E+00 0.  1.
<scales pt_clust_3="65.57031" pt_clust_4="65.57031" pt_clust_5="57.52572" pt_clust_6="193.34027"></scales>
<clustering>
<clus scale="   57.526">  2  5  1 -1</clus>
<clus scale="   65.570">  3  4 -1 -1</clus>
<clus scale="  193.340">  1  6  2 -1</clus>
<clus scale="  193.340">  1  3  2 -1</clus>
</clustering>
</event>
<event>
 6    0  0.5563122E+002  0.1824040E+03  0.7546771E-02  0.1165496E+00
         21   -1    0    0  504  501  0.00000000000E+00  0.00000000000E+00  0.41595253348E+02  0.41595253348E+02  0.00000000000E+00 0.  1.
         21   -1    0    0  506  502 -0.00000000000E+00 -0.00000000000E+00 -0.74939277719E+03  0.74939277719E+03  0.00000000000E+00 0.  1.
         21    1    1    2  503  501 -0.48193591085E+02 -0.74155154534E+02 -0.17618910835E+03  0.19714007981E+03  0.00000000000E+00 0.  1.
         21    1    1    2  504  505  0.76077512513E+02  0.30284238804E+02 -0.15000273371E+03  0.17089687871E+03  0.00000000000E+00 0.  1.
         21    1    1    2  505  502  0.21456646670E+02  0.97565867350E+02 -0.15069520610E+03  0.18079969939E+03  0.00000000000E+00 0.  1.
         21    1    1    2  506  503 -0.49340568098E+02 -0.53694951620E+02 -0.23091047567E+03  0.24215137263E+03  0.00000000000E+00 0.  1.
<scales pt_clust_3="165.06638" pt_clust_4="77.94868" pt_clust_5="77.94868" pt_clust_6="33.83411"></scales>
<clustering>
<clus scale="   33.834">  3  6 -1 -1</clus>
<clus scale="   77.949">  4  5 -1 -1</clus>
<clus scale="  165.066">  2  3  1 -1</clus>
<clus scale="  182.404">  1  3  2 -1</clus>
</clustering>
</event>
<event>
 6    0  0.5563122E+002  0.1429213E+03  0.7546771E-02  0.1209451E+00
         21   -1    0    0  503  501  0.00000000000E+00  0.00000000000E+00  0.21744518649E+03  0.21744518649E+03  0.00000000000E+00 0. -1.
         21   -1    0    0  505  502 -0.00000000000E+00 -0.00000000000E+00 -0.86151629988E+03  0.86151629988E+03  0.00000000000E+00 0.  1.
         21    1    1    2  503  504  0.18218995975E+02  0.28048136111E+02  0.90843482993E+02  0.96804794075E+02  0.00000000000E+00 0.  1.
         21    1    1    2  504  506  0.27145792197E+02 -0.52214781957E+02  0.11101024485E+02  0.59887479772E+02  0.00000000000E+00 0. -1.
         21    1    1    2  505  501  0.80318020300E+02  0.11763861721E+03 -0.75214936887E+03  0.76551845291E+03  0.00000000000E+00 0.  1.
         21    1    1    2  506  502 -0.12568280847E+03 -0.93471971367E+02  0.61337479997E+01  0.15675075962E+03  0.00000000000E+00 0. -1.
<scales pt_clust_3="33.44592" pt_clust_4="54.75860" pt_clust_5="142.92129" pt_clust_6="14000.00000"></scales>
<clustering>
<clus scale="   33.446">  1  3  2 -1</clus>
<clus scale="   54.759">  1  4  2 -1</clus>
<clus scale="  142.921">  2  5  1 -1</clus>
<clus scale="   33.446">  1  3  2 -1</clus>
</clustering>
</event>
<event>
 6    0  0.5563122E+002  0.1118345E+03  0.7546771E-02  0.1257210E+00
         21   -1    0    0  503  501  0.00000000000E+00  0.00000000000E+00  0.13833619904E+03  0.13833619904E+03  0.00000000000E+00 0. -1.
         21   -1    0    0  504  502 -0.00000000000E+00 -0.00000000000E+00 -0.39123308326E+03  0.39123308326E+03  0.00000000000E+00 0.  1.
         21    1    1    2  503  505 -0.35358357265E+02 -0.22463317325E+02  0.44723424377E+02  0.61278044532E+02  0.00000000000E+00 0. -1.
         21    1    1    2  504  501 -0.84909016708E+02 -0.39498516366E+02 -0.30774140615E+03  0.32167444253E+03  0.00000000000E+00 0.  1.
         21    1    1    2  505  506  0.31670373264E+02  0.21595496039E+02  0.28206417409E+02  0.47591805754E+02  0.00000000000E+00 0. -1.
         21    1    1    2  506  502  0.88597000710E+02  0.40366337652E+02 -0.18085319854E+02  0.99024989495E+02  0.00000000000E+00 0. -1.
<scales pt_clust_3="41.89050" pt_clust_4="97.03826" pt_clust_5="34.88280" pt_clust_6="34.88280"></scales>
<clustering>
<clus scale="   34.883">  5  6 -1 -1</clus>
<clus scale="   41.891">  1  3  2 -1</clus>
<clus scale="   97.038">  2  4  1 -1</clus>
<clus scale="   41.891">  1  3  2 -1</clus>
</clustering>
</event>
<event>
 6    0  0.5563122E+002  0.7877790E+02  0.7546771E-02  0.1332556E+00
         21   -1    0    0  503  501  0.00000000000E+00  0.00000000000E+00  0.57183408522E+03  0.57183408522E+03  0.00000000000E+00 0.  1.
         21   -1    0    0  504  502 -0.00000000000E+00 -0.00000000000E+00 -0.14971344667E+04  0.14971344667E+04  0.00000000000E+00 0.  1.
         21    1    1    2  503  506  0.21243177395E+02 -0.68499979094E+02  0.53582892302E+03  0.54060720904E+03  0.00000000000E+00 0.  1.
         21    1    1    2  504  505 -0.90291113049E+02  0.42812191901E+02 -0.48396975450E+03  0.49417819877E+03  0.00000000000E+00 0.  1.
         21    1    1    2  505  501  0.59315589124E+02  0.63919850017E+02 -0.39562301259E+02  0.95756263608E+02  0.00000000000E+00 0. -1.
         21    1    1    2  506  502  0.97323465306E+01 -0.38232062825E+02 -0.93759724878E+03  0.93842688054E+03  0.00000000000E+00 0.  1.
<scales pt_clust_3="71.88669" pt_clust_4="14000.00000" pt_clust_5="78.77790" pt_clust_6="39.45135"></scales>
<clustering>
<clus scale="   39.451">  2  6  1 -1</clus>
<clus scale="   71.887">  1  3  2 -1</clus>
<clus scale="   78.778">  1  5  2 -1</clus>
<clus scale="   71.887">  1  3  2 -1</clus>
</clustering>
</event>
<event>
 6    0  0.5563122E+002  0.1133143E+03  0.7546771E-02  0.1254552E+00
         21   -1    0    0  506  501  0.00000000000E+00  0.00000000000E+00  0.36391072908E+03  0.36391072908E+03  0.00000000000E+00 0. -1.
         21   -1    0    0  503  502 -0.00000000000E+00 -0.00000000000E+00 -0.34861215187E+03  0.34861215187E+03  0.00000000000E+00 0. -1.
         21    1    1    2  503  504  0.90583291667E+02 -0.76109903752E+02 -0.24864840094E+03  0.27536172114E+03  0.00000000000E+00 0. -1.
         21    1    1    2  504  501 -0.79503366253E+01  0.59618273688E+02  0.37902610705E+02  0.71092575620E+02  0.00000000000E+00 0. -1.
         21    1    1    2  505  502 -0.88958803856E+02  0.47978562153E+02 -0.32012584229E+02  0.10602083172E+03  0.00000000000E+00 0. -1.
         21    1    1    2  506  505  0.63258488147E+01 -0.31486932089E+02  0.25805695168E+03  0.26004775247E+03  0.00000000000E+00 0. -1.
<scales pt_clust_3="14000.00000" pt_clust_4="43.50429" pt_clust_5="113.31433" pt_clust_6="32.11609"></scales>
<clustering>
<clus scale="   32.116">  1  6  2 -1</clus>
<clus scale="   43.504">  1  4  2 -1</clus>
<clus scale="  113.314">  1  5  2 -1</clus>
<clus scale="   32.116">  1  3  2 -1</clus>
</clustering>
</event>
<event>
 6    0  0.5563122E+002  0.1658390E+03  0.7546771E-02  0.1182258E+00
         21   -1    0    0  503  501  0.00000000000E+00  0.00000000000E+00  0.47341270317E+03  0.47341270317E+03  0.00000000000E+00 0.  1.
         21   -1    0    0  505  502 -0.00000000000E+00 -0.00000000000E+00 -0.35541392428E+03  0.35541392428E+03  0.00000000000E+00 0. -1.
         21    1    1    2  503  502  0.14353100598E+03 -0.97255253134E+02  0.18709558809E+03  0.25507742555E+03  0.00000000000E+00 0.  1.
         21    1    1    2  504  506 -0.24696957295E+02  0.62084770278E+02  0.30914237662E+00  0.66817317883E+02  0.00000000000E+00 0.  1.
         21    1    1    2  505  504  0.23591280284E+02 -0.37503767241E+02 -0.25679909259E+03  0.26059327508E+03  0.00000000000E+00 0. -1.
         21    1    1    2  506  501 -0.14242532897E+03  0.72674250097E+02  0.18739314101E+03  0.24633860895E+03  0.00000000000E+00 0.  1.
<scales pt_clust_3="14000.00000" pt_clust_4="51.91088" pt_clust_5="44.30667" pt_clust_6="165.83905"></scales>
<clustering>
<clus scale="   44.307">  2  5  1 -1</clus>
<clus scale="   51.911">  2  4  1 -1</clus>
<clus scale="  165.839">  1  6  2 -1</clus>
<clus scale="  165.839">  1  3  2 -1</clus>
</clustering>
</event>
<event>
 6    0  0.5563122E+002  0.1398897E+03  0.7546771E-02  0.1213477E+00
         21   -1    0    0  506  501  0.00000000000E+00  0.00000000000E+00  0.19749790094E+04  0.19749790094E+04  0.00000000000E+00 0. -1.
         21   -1    0    0  503  502 -0.00000000000E+00 -0.00000000000E+00 -0.23717582475E+02  0.23717582475E+02  0.00000000000E+00 0. -1.
         21    1    1    2  503  501 -0.32325962392E+02  0.42371212369E+01  0.25868533982E+02  0.41618530624E+02  0.00000000000E+00 0. -1.
         21    1    1    2  504  502 -0.24064460513E+02 -0.51898743933E+02  0.12939894194E+03  0.14148026030E+03  0.00000000000E+00 0. -1.
         21    1    1    2  505  504  0.12142560780E+02 -0.79509705660E+02  0.22684198672E+03  0.24067929287E+03  0.00000000000E+00 0. -1.
         21    1    1    2  506  505  0.44247862126E+02  0.12717132836E+03  0.15691519642E+04  0.15749185080E+04  0.00000000000E+00 0. -1.
<scales pt_clust_3="32.60247" pt_clust_4="37.15746" pt_clust_5="37.15746" pt_clust_6="133.57067"></scales>
<clustering>
<clus scale="   32.602">  2  3  1 -1</clus>
<clus scale="   37.157">  4  5 -1 -1</clus>
<clus scale="  133.571">  1  6  2 -1</clus>
<clus scale="  133.571">  1  3  2 -1</clus>
</clustering>
</event>
<event>
 6    0  0.5563122E+002  0.1294019E+03  0.7546771E-02  0.1228346E+00
         21   -1    0    0  505  501  0.00000000000E+00  0.00000000000E+00  0.17146605393E+03  0.17146605393E+03  0.00000000000E+00 0. -1.
         21   -1    0    0  503  502 -0.00000000000E+00 -0.00000000000E+00 -0.40378174064E+03  0.40378174064E+03  0.00000000000E+00 0. -1.
         21    1    1    2  503  504 -0.77590391347E+02  0.44912654909E+02 -0.11378306067E+03  0.14485855272E+03  0.00000000000E+00 0. -1.
         21    1    1    2  504  501  0.13040658426E+02  0.85369313414E+02 -0.56186506222E+02  0.10302864614E+03  0.00000000000E+00 0. -1.
         21    1    1    2  505  506 -0.10559598404E+02 -0.15658726886E+03  0.70855231049E+02  0.17219623008E+03  0.00000000000E+00 0. -1.
         21    1    1    2  506  502  0.75109331325E+02  0.26305300534E+02 -0.13320135087E+03  0.15516436563E+03  0.00000000000E+00 0. -1.
<scales pt_clust_3="70.56852" pt_clust_4="14000.00000" pt_clust_5="129.40189" pt_clust_6="79.58254"></scales>
<clustering>
<clus scale="   79.583">  2  6  1 -1</clus>
<clus scale="   70.569">  2  3  1 -1</clus>
<clus scale="  129.402">  1  5  2 -1</clus>
<clus scale="  129.402">  1  3  2 -1</clus>
</clustering>
</event>
<event>
 6    0  0.5563122E+002  0.1397547E+03  0.7546771E-02  0.1213659E+00
         21   -1    0    0  503  501  0.00000000000E+00  0.00000000000E+00  0.89325609238E+03  0.89325609238E+03  0.00000000000E+00 0.  1.
         21   -1    0    0  504  502 -0.00000000000E+00 -0.00000000000E+00 -0.19168144685E+03  0.19168144685E+03  0.00000000000E+00 0.  1.
         21    1    1    2  503  502 -0.51598241568E+02 -0.46959241660E+02  0.25660830760E+02  0.74337252744E+02  0.00000000000E+00 0.  1.
         21    1    1    2  504  506 -0.82150301407E+01  0.36251865530E+02 -0.13623236454E+03  0.14121239897E+03  0.00000000000E+00 0.  1.
         21    1    1    2  505  501  0.15721215222E+03 -0.10103632083E+02  0.70787598828E+03  0.72519387682E+03  0.00000000000E+00 0.  1.
         21    1    1    2  506  505 -0.97398880512E+02  0.20811008213E+02  0.10427019103E+03  0.14419401071E+03  0.00000000000E+00 0.  1.
<scales pt_clust_3="63.12108" pt_clust_4="37.17102" pt_clust_5="139.75468" pt_clust_6="14000.00000"></scales>
<clustering>
<clus scale="   37.171">  2  4  1 -1</clus>
<clus scale="   63.121">  2  3  1 -1</clus>
<clus scale="  139.755">  1  5  2 -1</clus>
<clus scale="  139.755">  1  3  2 -1</clus>
</clustering>
</event>
<event>
 6    0  0.5563122E+002  0.9156875E+02  0.7546771E-02  0.1299097E+00
         21   -1    0    0  506  501  0.00000000000E+00  0.00000000000E+00  0.19499098127E+03  0.19499098127E+03  0.00000000000E+00 0.  1.
         21   -1    0    0  504  502 -0.00000000000E+00 -0.00000000000E+00 -0.17149374783E+03  0.17149374783E+03  0.00000000000E+00 0.  1.
         21    1    1    2  503  502  0.40744427007E+02 -0.19863749524E+02 -0.41790045066E+02  0.61652937837E+02  0.00000000000E+00 0.  1.
         21    1    1    2  504  501 -0.91576039133E+02 -0.61158576099E+02 -0.55927153113E+02  0.12350865892E+03  0.00000000000E+00 0.  1.
         21    1    1    2  505  503  0.47609182618E+01  0.88025550636E+02  0.75979446688E+02  0.11637886503E+03  0.00000000000E+00 0.  1.
         21    1    1    2  506  505  0.46070693865E+02 -0.70032250141E+01  0.45234984931E+02  0.64944267302E+02  0.00000000000E+00 0.  1.
<scales pt_clust_3="45.32854" pt_clust_4="14000.00000" pt_clust_5="91.56875" pt_clust_6="50.17218"></scales>
<clustering>
<clus scale="   45.329">  2  3  1 -1</clus>
<clus scale="   50.172">  1  6  2 -1</clus>
<clus scale="   91.569">  1  5  2 -1</clus>
<clus scale="   50.172">  1  3  2 -1</clus>
</clustering>
</event>
<event>
 6    0  0.5563122E+002  0.8452428E+02  0.7546771E-02  0.1316681E+00
         21   -1    0    0  504  501  0.00000000000E+00  0.00000000000E+00  0.22398387538E+03  0.22398387538E+03  0.00000000000E+00 0. -1.
         21   -1    0    0  506  502 -0.00000000000E+00 -0.00000000000E+00 -0.17347995365E+03  0.17347995365E+03  0.00000000000E+00 0.  1.
         21    1    1    2  503  501  0.11907755851E+02 -0.62529479512E+02  0.15076186453E+02  0.65414232819E+02  0.00000000000E+00 0.  1.
         21    1    1    2  504  505  0.29081626005E+02 -0.75922059803E+02  0.12111831587E+03  0.14587510608E+03  0.00000000000E+00 0. -1.
         21    1    1    2  505  502 -0.61653591652E+02  0.87538425435E+02 -0.38620828667E+02  0.11382315098E+03  0.00000000000E+00 0.  1.
         21    1    1    2  506  503  0.20664209797E+02  0.50913113880E+02 -0.47069751927E+02  0.72351339158E+02  0.00000000000E+00 0.  1.
<scales pt_clust_3="53.84955" pt_clust_4="14000.00000" pt_clust_5="84.52428" pt_clust_6="54.94684"></scales>
<clustering>
<clus scale="   54.947">  2  6  1 -1</clus>
<clus scale="   53.850">  2  3  1 -1</clus>
<clus scale="   84.524">  2  5  1 -1</clus>
<clus scale="   84.524">  1  3  2 -1</clus>
</clustering>
</event>
<event>
 6    0  0.5563122E+002  0.1284062E+03  0.7546771E-02  0.1229840E+00
         21   -1    0    0  503  501  0.00000000000E+00  0.00000000000E+00  0.17686189632E+03  0.17686189632E+03  0.00000000000E+00 0.  1.
         21   -1    0    0  504  502 -0.00000000000E+00 -0.00000000000E+00 -0.93739378405E+03  0.93739378405E+03  0.00000000000E+00 0. -1.
         21    1    1    2  503  506  0.10031232180E+01  0.44699194782E+02  0.70969257877E+02  0.83878840204E+02  0.00000000000E+00 0.  1.
         21    1    1    2  504  501  0.27343174684E+02 -0.97654802028E+02 -0.95506636270E+02  0.13930408154E+03  0.00000000000E+00 0. -1.
         21    1    1    2  505  502 -0.54696064711E+02 -0.27224731265E+02 -0.78903100871E+03  0.79139293540E+03  0.00000000000E+00 0. -1.
         21    1    1    2  506  505  0.26349766809E+02  0.80180338511E+02  0.53036499379E+02  0.99679823239E+02  0.00000000000E+00 0.  1.
<scales pt_clust_3="32.33179" pt_clust_4="120.47769" pt_clust_5="61.09702" pt_clust_6="32.33179"></scales>
<clustering>
<clus scale="   32.332">  3  6 -1 -1</clus>
<clus scale="   61.097">  2  5  1 -1</clus>
<clus scale="  120.478">  2  4  1 -1</clus>
<clus scale="  128.406">  1  3  2 -1</clus>
</clustering>
</event>
<event>
 6    0  0.5563122E+002  0.1994653E+03  0.7546771E-02  0.1150191E+00
         21   -1    0    0  503  501  0.00000000000E+00  0.00000000000E+00  0.47207112492E+03  0.47207112492E+03  0.00000000000E+00 0. -1.
         21   -1    0    0  506  502 -0.00000000000E+00 -0.00000000000E+00 -0.14554903402E+04  0.14554903402E+04  0.00000000000E+00 0. -1.
         21    1    1    2  503  504 -0.88932302455E+02  0.18475453748E+03  0.43287761102E+03  0.47898457142E+03  0.00000000000E+00 0. -1.
         21    1    1    2  504  505  0.12246715366E+02 -0.46310841119E+02 -0.35473363019E+03  0.35795338304E+03  0.00000000000E+00 0. -1.
         21    1    1    2  505  502 -0.39678060723E+02 -0.73015975439E+02 -0.70514957641E+03  0.71002929959E+03  0.00000000000E+00 0. -1.
         21    1    1    2  506  501  0.11636364781E+03 -0.65427720918E+02 -0.35641361970E+03  0.38059421107E+03  0.00000000000E+00 0. -1.
<scales pt_clust_3="14000.00000" pt_clust_4="35.95967" pt_clust_5="131.28061" pt_clust_6="199.46535"></scales>
<clustering>
<clus scale="   35.960">  4  5 -1 -1</clus>
<clus scale="  131.281">  2  4  1 -1</clus>
<clus scale="  199.465">  2  6  1 -1</clus>
<clus scale="  199.465">  1  3  2 -1</clus>
</clustering>
</event>
<event>
 6    0  0.5563122E+002  0.2974876E+03  0.7546771E-02  0.1086503E+00
         21   -1    0    0  503  501  0.00000000000E+00  0.00000000000E+00  0.15267095611E+04  0.15267095611E+04  0.00000000000E+00 0.  1.
         21   -1    0    0  505  502 -0.00000000000E+00 -0.00000000000E+00 -0.31053817537E+03  0.31053817537E+03  0.00000000000E+00 0. -1.
         21    1    1    2  503  504 -0.25071517280E+02 -0.11245090037E+03  0.30486289049E+03  0.32590668598E+03  0.00000000000E+00 0.  1.
         21    1    1    2  504  506 -0.28963235398E+03  0.45931521959E+02  0.71146668195E+03  0.76953326419E+03  0.00000000000E+00 0.  1.
         21    1    1    2  505  501  0.28334626566E+03  0.15015935830E+03  0.40586053716E+03  0.51725788034E+03  0.00000000000E+00 0.  1.
         21    1    1    2  506  502  0.31357605597E+02 -0.83639979886E+02 -0.20601872389E+03  0.22454990594E+03  0.00000000000E+00 0. -1.
<scales pt_clust_3="123.59339" pt_clust_4="297.48763" pt_clust_5="14000.00000" pt_clust_6="89.32494"></scales>
<clustering>
<clus scale="   89.325">  2  6  1 -1</clus>
<clus scale="  123.593">  1  3  2 -1</clus>
<clus scale="  297.488">  1  4  2 -1</clus>
<clus scale="  123.593">  1  3  2 -1</clus>
</clustering>
</event>
<event>
 6    0  0.5563122E+002  0.8800573E+02  0.7546771E-02  0.1307754E+00
         21   -1    0    0  506  501  0.00000000000E+00  0.00000000000E+00  0.43119983270E+03  0.43119983270E+03  0.00000000000E+00 0. -1.
         21   -1    0    0  503  502 -0.00000000000E+00 -0.00000000000E+00 -0.29899675889E+03  0.29899675889E+03  0.00000000000E+00 0.  1.
         21    1    1    2  503  505  0.37542214086E+02  0.67149695316E+02 -0.15827729534E+03  0.17598352662E+03  0.00000000000E+00 0. -1.
         21    1    1    2  504  502  0.53292388621E+02 -0.74668429495E+02 -0.10664857920E+03  0.14067470453E+03  0.00000000000E+00 0.  1.
         21    1    1    2  505  501 -0.74751170311E+02  0.35454003687E+02  0.27035508634E+03  0.28273060773E+03  0.00000000000E+00 0. -1.
         21    1    1    2  506  504 -0.16083432395E+02 -0.27935269509E+02  0.12677386202E+03  0.13080775272E+03  0.00000000000E+00 0. -1.
<scales pt_clust_3="75.98819" pt_clust_4="88.00573" pt_clust_5="14000.00000" pt_clust_6="32.23439"></scales>
<clustering>
<clus scale="   32.234">  1  6  2 -1</clus>
<clus scale="   75.988">  2  3  1 -1</clus>
<clus scale="   88.006">  2  4  1 -1</clus>
<clus scale="   32.234">  1  3  2 -1</clus>
</clustering>
</event>
<event>
 6    0  0.5563122E+002  0.3287141E+03  0.7546771E-02  0.1071707E+00
         21   -1    0    0  503  501  0.00000000000E+00  0.00000000000E+00  0.77493685827E+03  0.77493685827E+03  0.00000000000E+00 0.  1.
         21   -1    0    0  501  502 -0.00000000000E+00 -0.00000000000E+00 -0.35793037416E+03  0.35793037416E+03  0.00000000000E+00 0.  1.
         21    1    1    2  503  506 -0.24015019586E+03 -0.28439043564E+02  0.42977223238E+03  0.49313798018E+03  0.00000000000E+00 0.  1.
         21    1    1    2  504  505  0.28826679914E+03  0.40746764668E+00  0.46242719861E+01  0.28830417515E+03  0.00000000000E+00 0.  1.
         21    1    1    2  505  502  0.48363363847E+02  0.10308212676E+02 -0.16608394737E+03  0.17328921428E+03  0.00000000000E+00 0.  1.
         21    1    1    2  506  504 -0.96479967125E+02  0.17723363241E+02  0.14869392712E+03  0.17813586282E+03  0.00000000000E+00 0.  1.
<scales pt_clust_3="32.16660" pt_clust_4="324.81103" pt_clust_5="49.44971" pt_clust_6="32.16660"></scales>
<clustering>
<clus scale="   32.167">  3  6 -1 -1</clus>
<clus scale="   49.450">  2  5  1 -1</clus>
<clus scale="  324.811">  2  4  1 -1</clus>
<clus scale="  328.714">  1  3  2 -1</clus>
</clustering>
</event>
<event>
 6    0  0.5563122E+002  0.5781097E+02  0.7546771E-02  0.1407255E+00
         21   -1    0    0  503  501  0.00000000000E+00  0.00000000000E+00  0.69196283395E+03  0.69196283395E+03  0.00000000000E+00 0.  1.
         21   -1    0    0  505  502 -0.00000000000E+00 -0.00000000000E+00 -0.37841407623E+03  0.37841407623E+03  0.00000000000E+00 0.  1.
         21    1    1    2  503  504  0.56962916046E+02 -0.86561472965E+01  0.66068589852E+03  0.66319345533E+03  0.00000000000E+00 0.  1.
         21    1    1    2  504  502 -0.89906162913E+02  0.24900113144E+02 -0.21524205916E+03  0.23458959439E+03  0.00000000000E+00 0.  1.
         21    1    1    2  505  506  0.34052181958E+02  0.35950600079E+02 -0.99534291973E+02  0.11117136331E+03  0.00000000000E+00 0. -1.
         21    1    1    2  506  501 -0.11089350912E+01 -0.52194565927E+02 -0.32360789671E+02  0.61422497161E+02  0.00000000000E+00 0. -1.
<scales pt_clust_3="14000.00000" pt_clust_4="57.81097" pt_clust_5="49.51764" pt_clust_6="46.26425"></scales>
<clustering>
<clus scale="   49.518">  2  5  1 -1</clus>
<clus scale="   46.264">  2  6  1 -1</clus>
<clus scale="   57.811">  2  4  1 -1</clus>
<clus scale="   57.811">  1  3  2 -1</clus>
</clustering>
</event>
<event>
 6    0  0.5563122E+002  0.1839604E+03  0.7546771E-02  0.1164024E+00
         21   -1    0    0  505  501  0.00000000000E+00  0.00000000000E+00  0.35215846530E+03  0.35215846530E+03  0.00000000000E+00 0.  1.
         21   -1    0    0  506  502 -0.00000000000E+00 -0.00000000000E+00 -0.29341104303E+03  0.29341104303E+03  0.00000000000E+00 0.  1.
         21    1    1    2  503  504  0.52478485730E+02  0.40756321900E+02  0.75478491793E+02  0.10055879853E+03  0.00000000000E+00 0.  1.
         21    1    1    2  504  501  0.17537391050E+02  0.45617854868E+02  0.15566609203E+03  0.16315784068E+03  0.00000000000E+00 0.  1.
         21    1    1    2  505  502 -0.11741313204E+03 -0.14840970315E+03 -0.22017420862E+03  0.29032389792E+03  0.00000000000E+00 0.  1.
         21    1    1    2  506  503  0.47397255260E+02  0.62035526385E+02  0.47777047075E+02  0.91528971191E+02  0.00000000000E+00 0.  1.
<scales pt_clust_3="31.48141" pt_clust_4="48.87278" pt_clust_5="180.76778" pt_clust_6="31.48141"></scales>
<clustering>
<clus scale="   31.481">  3  6 -1 -1</clus>
<clus scale="   48.873">  1  4  2 -1</clus>
<clus scale="  180.768">  2  5  1 -1</clus>
<clus scale="   48.873">  1  3  2 -1</clus>
</clustering>
</event>
<event>
 6    0  0.8942374E+002  0.1303414E+03  0.7546771E-02  0.1226950E+00
         21   -1    0    0  505  501  0.00000000000E+00  0.00000000000E+00  0.52373528869E+03  0.52373528869E+03  0.00000000000E+00 0.  1.
         21   -1    0    0  506  502 -0.00000000000E+00 -0.00000000000E+00 -0.91433417831E+03  0.91433417831E+03  0.00000000000E+00 0. -1.
         21    1    1    2  503  502  0.28022224844E+02 -0.38152668213E+02  0.25689960089E+02  0.53859495229E+02  0.00000000000E+00 0.  1.
         21    1    1    2  504  503  0.12308389511E+03 -0.10645488621E+02  0.36095983751E+02  0.12870855335E+03  0.00000000000E+00 0.  1.
         21    1    1    2  505  504 -0.10445881873E+03  0.24200230305E+02  0.39356463284E+03  0.40790981378E+03  0.00000000000E+00 0.  1.
         21    1    1    2  506  501 -0.46647301225E+02  0.24597926529E+02 -0.84594946630E+03  0.84759160463E+03  0.00000000000E+00 0. -1.
<scales pt_clust_3="40.58745" pt_clust_4="40.58745" pt_clust_5="112.64816" pt_clust_6="52.73546"></scales>
<clustering>
<clus scale="   40.587">  3  4 -1 -1</clus>
<clus scale="   52.735">  2  6  1 -1</clus>
<clus scale="  112.648">  1  5  2 -1</clus>
<clus scale="  112.648">  1  3  2 -1</clus>
</clustering>
</event>
<event>
 6    0  0.5563122E+002  0.1210906E+03  0.7546771E-02  0.1241309E+00
         21   -1    0    0  505  501  0.00000000000E+00  0.00000000000E+00  0.29226485913E+03  0.29226485913E+03  0.00000000000E+00 0. -1.
         21   -1    0    0  506  502 -0.00000000000E+00 -0.00000000000E+00 -0.90063074915E+02  0.90063074915E+02  0.00000000000E+00 0. -1.
         21    1    1    2  503  502  0.37326841915E+01 -0.87887550726E+02  0.36691886240E+02  0.95312376005E+02  0.00000000000E+00 0. -1.
         21    1    1    2  504  501 -0.26370089687E+02  0.24254850153E+02  0.29944456207E+02  0.46694216382E+02  0.00000000000E+00 0. -1.
         21    1    1    2  505  503  0.35198349675E+02 -0.51357284152E+02  0.10264841404E+03  0.12005495142E+03  0.00000000000E+00 0. -1.
         21    1    1    2  506  504 -0.12560944179E+02  0.11498998473E+03  0.32917027724E+02  0.12026639023E+03  0.00000000000E+00 0. -1.
<scales pt_clust_3="107.90458" pt_clust_4="30.58200" pt_clust_5="62.26150" pt_clust_6="30.58200"></scales>
<clustering>
<clus scale="   30.582">  4  6 -1 -1</clus>
<clus scale="   62.262">  1  5  2 -1</clus>
<clus scale="  107.905">  2  3  1 -1</clus>
<clus scale="   62.262">  1  3  2 -1</clus>
</clustering>
</event>
<event>
 6    0  0.5563122E+002  0.1540112E+03  0.7546771E-02  0.1195629E+00
         21   -1    0    0  506  501  0.00000000000E+00  0.00000000000E+00  0.49867820510E+03  0.49867820510E+03  0.00000000000E+00 0.  1.
         21   -1    0    0  503  502 -0.00000000000E+00 -0.00000000000E+00 -0.20142872313E+03  0.20142872313E+03  0.00000000000E+00 0.  1.
         21    1    1    2  503  505 -0.68806191246E+02  0.69389781857E+02 -0.12964294271E+03  0.16234693214E+03  0.00000000000E+00 0.  1.
         21    1    1    2  504  502  0.11188349050E+03  0.47241731726E+01  0.18409863923E+03  0.21548211579E+03  0.00000000000E+00 0.  1.
         21    1    1    2  505  501 -0.90149336348E+02 -0.10152604649E+03  0.97630460590E+02  0.16723082191E+03  0.00000000000E+00 0.  1.
         21    1    1    2  506  504  0.47072037099E+02  0.27412091465E+02  0.14516332485E+03  0.15504705839E+03  0.00000000000E+00 0.  1.
<scales pt_clust_3="97.72018" pt_clust_4="35.41780" pt_clust_5="145.39818" pt_clust_6="35.41780"></scales>
<clustering>
<clus scale="   35.418">  4  6 -1 -1</clus>
<clus scale="   97.720">  2  3  1 -1</clus>
<clus scale="  145.398">  2  5  1 -1</clus>
<clus scale="  154.011">  1  3  2 -1</clus>
</clustering>
</event>
<event>
 6    0  0.6235834E+002  0.8602331E+02  0.7546771E-02  0.1312778E+00
         21   -1    0    0  504  501  0.00000000000E+00  0.00000000000E+00  0.16046389727E+04  0.16046389727E+04  0.00000000000E+00 0. -1.
         21   -1    0    0  503  502 -0.00000000000E+00 -0.00000000000E+00 -0.87378730692E+02  0.87378730692E+02  0.00000000000E+00 0.  1.
         21    1    1    2  503  505  0.25994206789E+02  0.81644052186E+02 -0.55211446123E+02  0.10193014190E+03  0.00000000000E+00 0.  1.
         21    1    1    2  504  502  0.97468711765E+01  0.55230701259E+02  0.18233088013E+03  0.19076158342E+03  0.00000000000E+00 0.  1.
         21    1    1    2  505  506 -0.17700299845E+02 -0.10368196131E+03  0.12419289814E+04  0.12463750818E+04  0.00000000000E+00 0. -1.
         21    1    1    2  506  501 -0.18040778120E+02 -0.33192792131E+02  0.14821182661E+03  0.15295089627E+03  0.00000000000E+00 0. -1.
<scales pt_clust_3="86.02331" pt_clust_4="51.51129" pt_clust_5="14000.00000" pt_clust_6="37.77871"></scales>
<clustering>
<clus scale="   37.779">  1  6  2 -1</clus>
<clus scale="   51.511">  1  4  2 -1</clus>
<clus scale="   86.023">  2  3  1 -1</clus>
<clus scale="   37.779">  1  3  2 -1</clus>
</clustering>
</event>
<event>
 6    0  0.5563122E+002  0.1425410E+03  0.7546771E-02  0.1209950E+00
         21   -1    0    0  503  501  0.00000000000E+00  0.00000000000E+00  0.16079134281E+03  0.16079134281E+03  0.00000000000E+00 0.  1.
         21   -1    0    0  506  502 -0.00000000000E+00 -0.00000000000E+00 -0.21803823206E+04  0.21803823206E+04  0.00000000000E+00 0. -1.
         21    1    1    2  503  505  0.12775335751E+02  0.29967948356E+02  0.78353145957E+02  0.84855775369E+02  0.00000000000E+00 0.  1.
         21    1    1    2  504  501  0.33653995336E+02 -0.62890896486E+02  0.24021849608E+01  0.71369648700E+02  0.00000000000E+00 0.  1.
         21    1    1    2  505  502 -0.11235996598E+03  0.80221091416E+02 -0.20992645750E+04  0.21037994062E+04  0.00000000000E+00 0. -1.
         21    1    1    2  506  504  0.65930634896E+02 -0.47298143285E+02 -0.10817336836E+01  0.81148833164E+02  0.00000000000E+00 0. -1.
<scales pt_clust_3="32.57740" pt_clust_4="32.49821" pt_clust_5="138.26253" pt_clust_6="32.49821"></scales>
<clustering>
<clus scale="   32.498">  4  6 -1 -1</clus>
<clus scale="   32.577">  1  3  2 -1</clus>
<clus scale="  138.263">  2  5  1 -1</clus>
<clus scale="   32.577">  1  3  2 -1</clus>
</clustering>
</event>
<event>
 6    0  0.5563122E+002  0.7521276E+02  0.7546771E-02  0.1343213E+00
         21   -1    0    0  503  501  0.00000000000E+00  0.00000000000E+00  0.52409623357E+03  0.52409623357E+03  0.00000000000E+00 0. -1.
         21   -1    0    0  506  502 -0.00000000000E+00 -0.00000000000E+00 -0.38490576558E+02  0.38490576558E+02  0.00000000000E+00 0.  1.
         21    1    1    2  503  505  0.90613323075E+02  0.41332402059E+02  0.25128935657E+03  0.27030627537E+03  0.00000000000E+00 0.  1.
         21    1    1    2  504  501 -0.41339771150E+02 -0.18667929742E+02  0.11245555772E+03  0.12125889964E+03  0.00000000000E+00 0. -1.
         21    1    1    2  505  502  0.32379873494E+02 -0.19230509478E+02  0.46662165805E+02  0.59963542423E+02  0.00000000000E+00 0.  1.
         21    1    1    2  506  504 -0.81653425419E+02 -0.34339628384E+01  0.75198576921E+02  0.11105809270E+03  0.00000000000E+00 0.  1.
<scales pt_clust_3="14000.00000" pt_clust_4="42.58792" pt_clust_5="37.65991" pt_clust_6="75.21276"></scales>
<clustering>
<clus scale="   37.660">  2  5  1 -1</clus>
<clus scale="   42.588">  1  4  2 -1</clus>
<clus scale="   75.213">  2  6  1 -1</clus>
<clus scale="   42.588">  1  3  2 -1</clus>
</clustering>
</event>
<event>
 6    0  0.5563122E+002  0.8610603E+02  0.7546771E-02  0.1312565E+00
         21   -1    0    0  506  501  0.00000000000E+00  0.00000000000E+00  0.64987634442E+03  0.64987634442E+03  0.00000000000E+00 0.  1.
         21   -1    0    0  505  502 -0.00000000000E+00 -0.00000000000E+00 -0.68896169643E+02  0.68896169643E+02  0.00000000000E+00 0.  1.
         21    1    1    2  503  504  0.11840827912E+02 -0.43082651941E+02  0.41449529131E+02  0.60945742830E+02  0.00000000000E+00 0.  1.
         21    1    1    2  504  501  0.71520444404E+02  0.52765335546E+02  0.52019223579E+03  0.52773034476E+03  0.00000000000E+00 0.  1.
         21    1    1    2  505  503  0.55158794412E+01 -0.33981807508E+02 -0.50234821278E+01  0.34791141692E+02  0.00000000000E+00 0.  1.
         21    1    1    2  506  502 -0.88877151757E+02  0.24299123903E+02  0.24361891987E+02  0.95305284786E+02  0.00000000000E+00 0.  1.
<scales pt_clust_3="51.49644" pt_clust_4="86.10603" pt_clust_5="34.42656" pt_clust_6="14000.00000"></scales>
<clustering>
<clus scale="   34.427">  2  5  1 -1</clus>
<clus scale="   51.496">  2  3  1 -1</clus>
<clus scale="   86.106">  1  4  2 -1</clus>
<clus scale="   86.106">  1  3  2 -1</clus>
</clustering>
</event>
<event>
 6    0  0.5563122E+002  0.8880596E+02  0.7546771E-02  0.1305769E+00
         21   -1    0    0  505  501  0.00000000000E+00  0.00000000000E+00  0.26497147794E+03  0.26497147794E+03  0.00000000000E+00 0. -1.
         21   -1    0    0  503  502 -0.00000000000E+00 -0.00000000000E+00 -0.20849755916E+03  0.20849755916E+03  0.00000000000E+00 0. -1.
         21    1    1    2  503  501  0.44354594367E+02  0.86683504789E+00 -0.13830869074E+03  0.14524935586E+03  0.00000000000E+00 0. -1.
         21    1    1    2  504  502  0.52555112303E+02  0.29984022121E+02 -0.62208596456E+01  0.60825821050E+02  0.00000000000E+00 0. -1.
         21    1    1    2  505  506 -0.92339852686E-01  0.48251343338E+02  0.79867817578E+02  0.93311676361E+02  0.00000000000E+00 0.  1.
         21    1    1    2  506  504 -0.96817366817E+02 -0.79102200507E+02  0.12113565159E+03  0.17408218383E+03  0.00000000000E+00 0. -1.
<scales pt_clust_3="44.36306" pt_clust_4="88.80596" pt_clust_5="48.53639" pt_clust_6="14000.00000"></scales>
<clustering>
<clus scale="   44.363">  2  3  1 -1</clus>
<clus scale="   48.536">  1  5  2 -1</clus>
<clus scale="   88.806">  2  4  1 -1</clus>
<clus scale="   48.536">  1  3  2 -1</clus>
</clustering>
</event>
<event>
 6    0  0.5563122E+002  0.7449414E+02  0.7546771E-02  0.1345445E+00
         21   -1    0    0  504  501  0.00000000000E+00  0.00000000000E+00  0.49659251089E+03  0.49659251089E+03  0.00000000000E+00 0. -1.
         21   -1    0    0  503  502 -0.00000000000E+00 -0.00000000000E+00 -0.65120507794E+02  0.65120507794E+02  0.00000000000E+00 0. -1.
         21    1    1    2  503  506 -0.88681807158E+02  0.48739383046E+02  0.15213615911E+03  0.18271672416E+03  0.00000000000E+00 0. -1.
         21    1    1    2  504  505  0.44307770505E+02 -0.54301258018E+02  0.82973501075E+02  0.10861126567E+03  0.00000000000E+00 0. -1.
         21    1    1    2  505  502  0.63707593262E+02 -0.26923179429E+02 -0.12650844926E+01  0.69174529045E+02  0.00000000000E+00 0. -1.
         21    1    1    2  506  501 -0.19333556610E+02  0.32485054402E+02  0.19762742740E+03  0.20121049981E+03  0.00000000000E+00 0. -1.
<scales pt_clust_3="74.49414" pt_clust_4="58.05873" pt_clust_5="14000.00000" pt_clust_6="37.80298"></scales>
<clustering>
<clus scale="   37.803">  1  6  2 -1</clus>
<clus scale="   58.059">  1  4  2 -1</clus>
<clus scale="   74.494">  1  3  2 -1</clus>
<clus scale="   37.803">  1  3  2 -1</clus>
</clustering>
</event>
<event>
 6    0  0.5563122E+002  0.2051972E+03  0.7546771E-02  0.1145427E+00
         21   -1    0    0  504  501  0.00000000000E+00  0.00000000000E+00  0.68018448553E+03  0.68018448553E+03  0.00000000000E+00 0.  1.
         21   -1    0    0  505  502 -0.00000000000E+00 -0.00000000000E+00 -0.12656878714E+03  0.12656878714E+03  0.00000000000E+00 0.  1.
         21    1    1    2  503  501  0.11649187115E+03  0.12167201342E+03  0.20719166669E+03  0.26702588196E+03  0.00000000000E+00 0.  1.
         21    1    1    2  504  506 -0.31576654411E+02 -0.15969816371E+03  0.29049075644E+03  0.33299469691E+03  0.00000000000E+00 0.  1.
         21    1    1    2  505  503 -0.29358266236E+02  0.70470200936E+02 -0.43826132169E+02  0.88026625957E+02  0.00000000000E+00 0. -1.
         21    1    1    2  506  502 -0.55556950500E+02 -0.32444050640E+02  0.99759407430E+02  0.11870606784E+03  0.00000000000E+00 0.  1.
<scales pt_clust_3="186.75762" pt_clust_4="53.44522" pt_clust_5="76.34106" pt_clust_6="53.44522"></scales>
<clustering>
<clus scale="   53.445">  4  6 -1 -1</clus>
<clus scale="   76.341">  2  5  1 -1</clus>
<clus scale="  186.758">  2  3  1 -1</clus>
<clus scale="  205.197">  1  3  2 -1</clus>
</clustering>
</event>
<event>
 6    0  0.5563122E+002  0.1003182E+03  0.7546771E-02  0.1279628E+00
         21   -1    0    0  503  501  0.00000000000E+00  0.00000000000E+00  0.39184994868E+02  0.39184994868E+02  0.00000000000E+00 0.  1.
         21   -1    0    0  505  502 -0.00000000000E+00 -0.00000000000E+00 -0.13252162431E+04  0.13252162431E+04  0.00000000000E+00 0. -1.
         21    1    1    2  503  504  0.26016981873E+02 -0.78858646520E+02 -0.96512300503E+03  0.96868879642E+03  0.00000000000E+00 0. -1.
         21    1    1    2  504  502  0.17168374979E+02 -0.40226091512E+02 -0.15216908015E+03  0.15832978397E+03  0.00000000000E+00 0. -1.
         21    1    1    2  505  506 -0.25456624246E+02  0.18820597367E+02 -0.12073090747E+03  0.12481268614E+03  0.00000000000E+00 0.  1.
         21    1    1    2  506  501 -0.17728732606E+02  0.10026414066E+03 -0.48008255565E+02  0.11256997142E+03  0.00000000000E+00 0.  1.
<scales pt_clust_3="100.31816" pt_clust_4="40.26472" pt_clust_5="31.65840" pt_clust_6="14000.00000"></scales>
<clustering>
<clus scale="   31.658">  2  5  1 -1</clus>
<clus scale="   40.265">  2  4  1 -1</clus>
<clus scale="  100.318">  2  3  1 -1</clus>
<clus scale="  100.318">  1  3  2 -1</clus>
</clustering>
</event>
<event>
 6    0  0.5563122E+002  0.1712089E+03  0.7546771E-02  0.1176593E+00
         21   -1    0    0  504  501  0.00000000000E+00  0.00000000000E+00  0.26375541749E+04  0.26375541749E+04  0.00000000000E+00 0.  1.
         21   -1    0    0  505  502 -0.00000000000E+00 -0.00000000000E+00 -0.15760925456E+02  0.15760925456E+02  0.00000000000E+00 0. -1.
         21    1    1    2  503  501  0.46158164371E+02 -0.55916371248E+02  0.12603550873E+04  0.12624389739E+04  0.00000000000E+00 0.  1.
         21    1    1    2  504  506 -0.23786911171E+02  0.78020677216E+02  0.19469789446E+03  0.21109313897E+03  0.00000000000E+00 0. -1.
         21    1    1    2  505  503 -0.62255415550E+01 -0.91082957661E+02  0.86658593660E+03  0.87138168907E+03  0.00000000000E+00 0.  1.
         21    1    1    2  506  502 -0.16145711645E+02  0.68978651693E+02  0.30015433107E+03  0.30840129840E+03  0.00000000000E+00 0. -1.
<scales pt_clust_3="69.65503" pt_clust_4="158.10043" pt_clust_5="69.65503" pt_clust_6="39.45503"></scales>
<clustering>
<clus scale="   39.455">  4  6 -1 -1</clus>
<clus scale="   69.655">  3  5 -1 -1</clus>
<clus scale="  158.100">  2  4  1 -1</clus>
<clus scale="  171.209">  1  3  2 -1</clus>
</clustering>
</event>
<event>
 6    0  0.5563122E+002  0.1158536E+03  0.7546771E-02  0.1250098E+00
         21   -1    0    0  506  501  0.00000000000E+00  0.00000000000E+00  0.19707517431E+03  0.19707517431E+03  0.00000000000E+00 0. -1.
         21   -1    0    0  505  502 -0.00000000000E+00 -0.00000000000E+00 -0.15404410098E+03  0.15404410098E+03  0.00000000000E+00 0.  1.
         21    1    1    2  503  502  0.30175189249E+02  0.48093743278E+01  0.59667022389E+00  0.30561874009E+02  0.00000000000E+00 0.  1.
         21    1    1    2  504  501 -0.45902578984E+02 -0.13612333574E+02 -0.42183345124E+02  0.63810477106E+02  0.00000000000E+00 0.  1.
         21    1    1    2  505  504 -0.45710303339E+02 -0.72289815819E+02 -0.41205878551E+02  0.94937736068E+02  0.00000000000E+00 0.  1.
         21    1    1    2  506  503  0.61437693075E+02  0.81092775065E+02  0.12582362679E+03  0.16180918811E+03  0.00000000000E+00 0. -1.
<scales pt_clust_3="30.55605" pt_clust_4="34.30645" pt_clust_5="34.30645" pt_clust_6="104.62754"></scales>
<clustering>
<clus scale="   30.556">  2  3  1 -1</clus>
<clus scale="   34.306">  4  5 -1 -1</clus>
<clus scale="  104.628">  1  6  2 -1</clus>
<clus scale="  104.628">  1  3  2 -1</clus>
</clustering>
</event>
<event>
 6    0  0.5563122E+002  0.8924456E+02  0.7546771E-02  0.1304691E+00
         21   -1    0    0  504  501  0.00000000000E+00  0.00000000000E+00  0.27461414917E+02  0.27461414917E+02  0.00000000000E+00 0. -1.
         21   -1    0    0  505  502 -0.00000000000E+00 -0.00000000000E+00 -0.83468315665E+03  0.83468315665E+03  0.00000000000E+00 0. -1.
         21    1    1    2  503  502 -0.29096642144E+02 -0.81414717204E+02 -0.35873204616E+03  0.36900359308E+03  0.00000000000E+00 0. -1.
         21    1    1    2  504  503 -0.49229254211E+02 -0.26191178235E+02 -0.12617252932E+03  0.13794565757E+03  0.00000000000E+00 0. -1.
         21    1    1    2  505  506  0.50319065365E+02  0.80155029363E+02 -0.28776700546E+03  0.30293016770E+03  0.00000000000E+00 0. -1.
         21    1    1    2  506  501  0.28006830990E+02  0.27450866076E+02 -0.34550160797E+02  0.52265153224E+02  0.00000000000E+00 0. -1.
<scales pt_clust_3="14000.00000" pt_clust_4="43.99964" pt_clust_5="89.24456" pt_clust_6="39.21648"></scales>
<clustering>
<clus scale="   39.216">  1  6  2 -1</clus>
<clus scale="   44.000">  1  4  2 -1</clus>
<clus scale="   89.245">  1  5  2 -1</clus>
<clus scale="   39.216">  1  3  2 -1</clus>
</clustering>
</event>
<event>
 6    0  0.5563122E+002  0.6438568E+02  0.7546771E-02  0.1380297E+00
         21   -1    0    0  506  501  0.00000000000E+00  0.00000000000E+00  0.61974126197E+03  0.61974126197E+03  0.00000000000E+00 0.  1.
         21   -1    0    0  505  502 -0.00000000000E+00 -0.00000000000E+00 -0.58137733530E+02  0.58137733530E+02  0.00000000000E+00 0. -1.
         21    1    1    2  503  501 -0.34336759882E+02  0.50711439186E+02  0.37041017566E+03  0.37543889167E+03  0.00000000000E+00 0.  1.
         21    1    1    2  504  503 -0.23192824790E+02 -0.58470590625E+02  0.78766964412E+02  0.10080154648E+03  0.00000000000E+00 0. -1.
         21    1    1    2  505  504  0.92226518515E+02  0.57562529101E+01  0.13247233295E+03  0.16151713272E+03  0.00000000000E+00 0. -1.
         21    1    1    2  506  502 -0.34696933843E+02  0.20028985289E+01 -0.20045944582E+02  0.40121424636E+02  0.00000000000E+00 0. -1.
<scales pt_clust_3="63.18329" pt_clust_4="14000.00000" pt_clust_5="64.38568" pt_clust_6="34.75469"></scales>
<clustering>
<clus scale="   34.755">  2  6  1 -1</clus>
<clus scale="   63.183">  1  3  2 -1</clus>
<clus scale="   64.386">  2  5  1 -1</clus>
<clus scale="   63.183">  1  3  2 -1</clus>
</clustering>
</event>
<event>
 6    0  0.5563122E+002  0.9797526E+02  0.7546771E-02  0.1284612E+00
         21   -1    0    0  504  501  0.00000000000E+00  0.00000000000E+00  0.75963133983E+02  0.75963133983E+02  0.00000000000E+00 0.  1.
         21   -1    0    0  506  502 -0.00000000000E+00 -0.00000000000E+00 -0.16428955918E+04  0.16428955918E+04  0.00000000000E+00 0. -1.
         21    1    1    2  503  501  0.96440183853E+02  0.29777066248E+02 -0.50875700798E+03  0.51867241675E+03  0.00000000000E+00 0. -1.
         21    1    1    2  504  505 -0.53496122472E+02  0.71905831647E+01  0.45569339866E+02  0.70640670592E+02  0.00000000000E+00 0.  1.
         21    1    1    2  505  502  0.10738587802E+01 -0.12032576491E+03 -0.35387492179E+03  0.37377386632E+03  0.00000000000E+00 0. -1.
         21    1    1    2  506  503 -0.44017920161E+02  0.83358115500E+02 -0.74986986794E+03  0.75577177214E+03  0.00000000000E+00 0. -1.
<scales pt_clust_3="87.55726" pt_clust_4="53.97721" pt_clust_5="14000.00000" pt_clust_6="97.97526"></scales>
<clustering>
<clus scale="   53.977">  1  4  2 -1</clus>
<clus scale="   87.557">  1  3  2 -1</clus>
<clus scale="   97.975">  2  6  1 -1</clus>
<clus scale="   53.977">  1  3  2 -1</clus>
</clustering>
</event>
<event>
 6    0  0.5563122E+002  0.1167745E+03  0.7546771E-02  0.1248515E+00
         21   -1    0    0  504  501  0.00000000000E+00  0.00000000000E+00  0.72971875107E+03  0.72971875107E+03  0.00000000000E+00 0. -1.
         21   -1    0    0  505  502 -0.00000000000E+00 -0.00000000000E+00 -0.69701658258E+02  0.69701658258E+02  0.00000000000E+00 0. -1.
         21    1    1    2  503  506 -0.89216213439E+02  0.16566059607E+02  0.92029371370E+02  0.12924152686E+03  0.00000000000E+00 0. -1.
         21    1    1    2  504  503 -0.42228831196E+02 -0.50539704456E+02  0.20023609671E+03  0.21078906598E+03  0.00000000000E+00 0. -1.
         21    1    1    2  505  501  0.14749718250E+03  0.10520330533E+03  0.33171399626E+03  0.37796472006E+03  0.00000000000E+00 0. -1.
         21    1    1    2  506  502 -0.16052137860E+02 -0.71229660478E+02  0.36037628470E+02  0.81425096423E+02  0.00000000000E+00 0. -1.
<scales pt_clust_3="116.77452" pt_clust_4="65.85997" pt_clust_5="14000.00000" pt_clust_6="79.65136"></scales>
<clustering>
<clus scale="   65.860">  1  4  2 -1</clus>
<clus scale="   79.651">  2  6  1 -1</clus>
<clus scale="  116.775">  2  3  1 -1</clus>
<clus scale="   65.860">  1  3  2 -1</clus>
</clustering>
</event>
<event>
 6    0  0.5563122E+002  0.1110025E+03  0.7546771E-02  0.1258725E+00
         21   -1    0    0  506  501  0.00000000000E+00  0.00000000000E+00  0.22968331664E+04  0.22968331664E+04  0.00000000000E+00 0. -1.
         21   -1    0    0  505  502 -0.00000000000E+00 -0.00000000000E+00 -0.44672897430E+02  0.44672897430E+02  0.00000000000E+00 0. -1.
         21    1    1    2  503  501  0.66232356529E+02  0.96742653488E+01  0.17657304646E+04  0.17669986955E+04  0.00000000000E+00 0. -1.
         21    1    1    2  504  503 -0.52644776972E+02 -0.90910892070E+02  0.13908649780E+03  0.17430237150E+03  0.00000000000E+00 0. -1.
         21    1    1    2  505  504 -0.42884907243E+02 -0.16867819063E+02  0.93201482941E+01  0.47015994655E+02  0.00000000000E+00 0. -1.
         21    1    1    2  506  502  0.29297327687E+02  0.98104445784E+02  0.33802315828E+03  0.35318900213E+03  0.00000000000E+00 0. -1.
<scales pt_clust_3="65.83385" pt_clust_4="14000.00000" pt_clust_5="46.08295" pt_clust_6="111.00250"></scales>
<clustering>
<clus scale="   46.083">  2  5  1 -1</clus>
<clus scale="   65.834">  1  3  2 -1</clus>
<clus scale="  111.002">  1  6  2 -1</clus>
<clus scale="   65.834">  1  3  2 -1</clus>
</clustering>
</event>
<event>
 6    0  0.5563122E+002  0.1318391E+03  0.7546771E-02  0.1224752E+00
         21   -1    0    0  504  501  0.00000000000E+00  0.00000000000E+00  0.11242773386E+04  0.11242773386E+04  0.00000000000E+00 0.  1.
         21   -1    0    0  503  502 -0.00000000000E+00 -0.00000000000E+00 -0.15160897895E+03  0.15160897895E+03  0.00000000000E+00 0. -1.
         21    1    1    2  503  506 -0.16665742588E+02  0.37904534884E+02  0.22370037242E+02  0.47062929222E+02  0.00000000000E+00 0.  1.
         21    1    1    2  504  505  0.93392330821E+02 -0.78531203067E+02  0.73365433086E+03  0.74373244819E+03  0.00000000000E+00 0.  1.
         21    1    1    2  505  502 -0.11820774347E+03 -0.68710223457E+02 -0.85395500581E+02  0.16120346443E+03  0.00000000000E+00 0. -1.
         21    1    1    2  506  501  0.41481155234E+02  0.10933689164E+03  0.30203949217E+03  0.32388747574E+03  0.00000000000E+00 0.  1.
<scales pt_clust_3="41.40653" pt_clust_4="14000.00000" pt_clust_5="131.83905" pt_clust_6="119.27916"></scales>
<clustering>
<clus scale="   41.407">  2  3  1 -1</clus>
<clus scale="  119.279">  1  6  2 -1</clus>
<clus scale="  131.839">  2  5  1 -1</clus>
<clus scale="  119.279">  1  3  2 -1</clus>
</clustering>
</event>
<event>
 6    0  0.5563122E+002  0.1266439E+03  0.7546771E-02  0.1232522E+00
         21   -1    0    0  505  501  0.00000000000E+00  0.00000000000E+00  0.17814707305E+03  0.17814707305E+03  0.00000000000E+00 0.  1.
         21   -1    0    0  504  502 -0.00000000000E+00 -0.00000000000E+00 -0.36793784866E+03  0.36793784866E+03  0.00000000000E+00 0.  1.
         21    1    1    2  503  502 -0.78793277478E+02  0.60177059731E+02 -0.19879343392E+03  0.22214519680E+03  0.00000000000E+00 0.  1.
         21    1    1    2  504  501  0.23040791944E+02  0.79657538305E+02 -0.69538197736E+02  0.10822089653E+03  0.00000000000E+00 0.  1.
         21    1    1    2  505  506 -0.34434889063E+02 -0.65240698780E+02 -0.17425691661E+01  0.73791238703E+02  0.00000000000E+00 0.  1.
         21    1    1    2  506  503  0.90187374597E+02 -0.74593899256E+02  0.80283425214E+02  0.14192758966E+03  0.00000000000E+00 0.  1.
<scales pt_clust_3="14000.00000" pt_clust_4="73.12015" pt_clust_5="73.77066" pt_clust_6="126.64393"></scales>
<clustering>
<clus scale="   73.771">  1  5  2 -1</clus>
<clus scale="   73.120">  2  4  1 -1</clus>
<clus scale="  126.644">  1  6  2 -1</clus>
<clus scale="   73.771">  1  3  2 -1</clus>
</clustering>
</event>
<event>
 6    0  0.5563122E+002  0.1019029E+03  0.7546771E-02  0.1276344E+00
         21   -1    0    0  506  501  0.00000000000E+00  0.00000000000E+00  0.21584782514E+03  0.21584782514E+03  0.00000000000E+00 0. -1.
         21   -1    0    0  503  502 -0.00000000000E+00 -0.00000000000E+00 -0.26953458096E+03  0.26953458096E+03  0.00000000000E+00 0.  1.
         21    1    1    2  503  501 -0.58977713730E+02 -0.53295605209E+02  0.11313371104E+03  0.13826796023E+03  0.00000000000E+00 0. -1.
         21    1    1    2  504  502 -0.56701696101E+02  0.48563152893E+02 -0.19938961651E+03  0.21290768266E+03  0.00000000000E+00 0.  1.
         21    1    1    2  505  504  0.53538722380E+02 -0.27489546204E+02  0.16010836558E+02  0.62276936597E+02  0.00000000000E+00 0.  1.
         21    1    1    2  506  505  0.62140687450E+02  0.32221998520E+02  0.16558313100E+02  0.71929826624E+02  0.00000000000E+00 0.  1.
<scales pt_clust_3="82.68993" pt_clust_4="74.65562" pt_clust_5="55.22064" pt_clust_6="55.22064"></scales>
<clustering>
<clus scale="   55.221">  5  6 -1 -1</clus>
<clus scale="   74.656">  2  4  1 -1</clus>
<clus scale="   82.690">  1  3  2 -1</clus>
<clus scale="   82.690">  1  3  2 -1</clus>
</clustering>
</event>
<event>
 6    0  0.5563122E+002  0.1588525E+03  0.7546771E-02  0.1189998E+00
         21   -1    0    0  503  501  0.00000000000E+00  0.00000000000E+00  0.14235335104E+04  0.14235335104E+04  0.00000000000E+00 0. -1.
         21   -1    0    0  504  502 -0.00000000000E+00 -0.00000000000E+00 -0.40520732047E+02  0.40520732047E+02  0.00000000000E+00 0. -1.
         21    1    1    2  503  506 -0.39558659887E+02 -0.36812985720E+02  0.34639569352E+03  0.35058531056E+03  0.00000000000E+00 0. -1.
         21    1    1    2  504  501  0.42483322997E+02  0.16410996412E+03  0.45763777253E+03  0.48802586397E+03  0.00000000000E+00 0. -1.
         21    1    1    2  505  502  0.23067867359E+02 -0.31551691914E+02  0.10907510213E+01  0.39100198272E+02  0.00000000000E+00 0. -1.
         21    1    1    2  506  505 -0.25992530469E+02 -0.95745286490E+02  0.57788856126E+03  0.58634286962E+03  0.00000000000E+00 0. -1.
<scales pt_clust_3="30.10893" pt_clust_4="153.52444" pt_clust_5="39.08498" pt_clust_6="30.10893"></scales>
<clustering>
<clus scale="   30.109">  3  6 -1 -1</clus>
<clus scale="   39.085">  2  5  1 -1</clus>
<clus scale="  153.524">  2  4  1 -1</clus>
<clus scale="  158.853">  1  3  2 -1</clus>
</clustering>
</event>
<event>
 6    0  0.5563122E+002  0.1440590E+03  0.7546771E-02  0.1207969E+00
         21   -1    0    0  504  501  0.00000000000E+00  0.00000000000E+00  0.63142618430E+03  0.63142618430E+03  0.00000000000E+00 0.  1.
         21   -1    0    0  503  502 -0.00000000000E+00 -0.00000000000E+00 -0.85781103884E+02  0.85781103884E+02  0.00000000000E+00 0.  1.
         21    1    1    2  503  506  0.73251116269E+02 -0.11223732211E+03  0.70401741623E+02  0.15139137271E+03  0.00000000000E+00 0.  1.
         21    1    1    2  504  505 -0.29725957656E+02 -0.95148527000E+01  0.56768268663E+02  0.64782723834E+02  0.00000000000E+00 0.  1.
         21    1    1    2  505  502 -0.85971630445E+02  0.13298280315E+03  0.11829614348E+03  0.19766012430E+03  0.00000000000E+00 0.  1.
         21    1    1    2  506  501  0.42446471831E+02 -0.11230628341E+02  0.30017892665E+03  0.30337306734E+03  0.00000000000E+00 0.  1.
<scales pt_clust_3="144.05904" pt_clust_4="31.21162" pt_clust_5="14000.00000" pt_clust_6="31.28534"></scales>
<clustering>
<clus scale="   31.212">  1  4  2 -1</clus>
<clus scale="   31.285">  1  6  2 -1</clus>
<clus scale="  144.059">  2  3  1 -1</clus>
<clus scale="   31.212">  1  3  2 -1</clus>
</clustering>
</event>
<event>
 6    0  0.5563122E+002  0.1117741E+03  0.7546771E-02  0.1257319E+00
         21   -1    0    0  504  501  0.00000000000E+00  0.00000000000E+00  0.26539338551E+03  0.26539338551E+03  0.00000000000E+00 0. -1.
         21   -1    0    0  501  502 -0.00000000000E+00 -0.00000000000E+00 -0.22830479472E+03  0.22830479472E+03  0.00000000000E+00 0. -1.
         21    1    1    2  503  502 -0.53758420581E+02 -0.19299098100E+02 -0.17659078340E+03  0.18559829674E+03  0.00000000000E+00 0. -1.
         21    1    1    2  504  506  0.52887267024E+02 -0.41290324523E+02  0.12693450540E+03  0.14357688732E+03  0.00000000000E+00 0. -1.
         21    1    1    2  505  503 -0.34880198658E+02  0.87998228629E+02  0.61497636037E+02  0.11288168912E+03  0.00000000000E+00 0. -1.
         21    1    1    2  506  505  0.35751352214E+02 -0.27408806006E+02  0.25247232759E+02  0.51641307050E+02  0.00000000000E+00 0. -1.
<scales pt_clust_3="57.11762" pt_clust_4="39.92791" pt_clust_5="100.59304" pt_clust_6="39.92791"></scales>
<clustering>
<clus scale="   39.928">  4  6 -1 -1</clus>
<clus scale="   57.118">  2  3  1 -1</clus>
<clus scale="  100.593">  2  5  1 -1</clus>
<clus scale="  111.774">  1  3  2 -1</clus>
</clustering>
</event>
<event>
 6    0  0.5563122E+002  0.1217197E+03  0.7546771E-02  0.1240287E+00
         21   -1    0    0  506  501  0.00000000000E+00  0.00000000000E+00  0.53942125669E+03  0.53942125669E+03  0.00000000000E+00 0. -1.
         21   -1    0    0  505  502 -0.00000000000E+00 -0.00000000000E+00 -0.32737367438E+03  0.32737367438E+03  0.00000000000E+00 0. -1.
         21    1    1    2  503  501 -0.13833303910E+02 -0.37434327548E+02  0.79252464692E+02  0.88733546846E+02  0.00000000000E+00 0. -1.
         21    1    1    2  504  503 -0.72535367000E+02 -0.23506118946E+02  0.21101858473E+03  0.22437192382E+03  0.00000000000E+00 0. -1.
         21    1    1    2  505  504  0.76349524414E+02  0.91180524767E+02  0.22196434963E+03  0.25181602507E+03  0.00000000000E+00 0. -1.
         21    1    1    2  506  502  0.10019146496E+02 -0.30240078273E+02 -0.30018781676E+03  0.30187343533E+03  0.00000000000E+00 0. -1.
<scales pt_clust_3="38.90600" pt_clust_4="38.90600" pt_clust_5="110.50441" pt_clust_6="31.85664"></scales>
<clustering>
<clus scale="   31.857">  2  6  1 -1</clus>
<clus scale="   38.906">  3  4 -1 -1</clus>
<clus scale="  110.504">  2  5  1 -1</clus>
<clus scale="  121.720">  1  3  2 -1</clus>
</clustering>
</event>
<event>
 6    0  0.5563122E+002  0.7944345E+02  0.7546771E-02  0.1330638E+00
         21   -1    0    0  503  501  0.00000000000E+00  0.00000000000E+00  0.27777880199E+03  0.27777880199E+03  0.00000000000E+00 0.  1.
         21   -1    0    0  505  502 -0.00000000000E+00 -0.00000000000E+00 -0.39193072982E+03  0.39193072982E+03  0.00000000000E+00 0.  1.
         21    1    1    2  503  506  0.53535271327E+02 -0.24217079477E+02  0.39755697006E+02  0.70943693581E+02  0.00000000000E+00 0.  1.
         21    1    1    2  504  501 -0.24699128795E+02  0.29608137514E+02  0.12764703869E+02  0.40615593497E+02  0.00000000000E+00 0.  1.
         21    1    1    2  505  504 -0.10086302665E+03  0.26796290946E+02  0.17703440068E+03  0.20550564561E+03  0.00000000000E+00 0.  1.
         21    1    1    2  506  502  0.72026884118E+02 -0.32187348983E+02 -0.34370672938E+03  0.35264459913E+03  0.00000000000E+00 0.  1.
<scales pt_clust_3="51.24114" pt_clust_4="38.55760" pt_clust_5="79.44345" pt_clust_6="14000.00000"></scales>
<clustering>
<clus scale="   38.558">  1  4  2 -1</clus>
<clus scale="   51.241">  1  3  2 -1</clus>
<clus scale="   79.443">  1  5  2 -1</clus>
<clus scale="   38.558">  1  3  2 -1</clus>
</clustering>
</event>
<event>
 6    0  0.5563122E+002  0.9018055E+02  0.7546771E-02  0.1302415E+00
         21   -1    0    0  504  501  0.00000000000E+00  0.00000000000E+00  0.64744920374E+03  0.64744920374E+03  0.00000000000E+00 0.  1.
         21   -1    0    0  503  502 -0.00000000000E+00 -0.00000000000E+00 -0.43505769500E+02  0.43505769500E+02  0.00000000000E+00 0.  1.
         21    1    1    2  503  505 -0.29567294996E+02  0.28700308919E+02  0.71551585464E+02  0.82568529404E+02  0.00000000000E+00 0.  1.
         21    1    1    2  504  506  0.12881259496E+03 -0.39349178860E+02  0.33979356229E+03  0.36551430543E+03  0.00000000000E+00 0.  1.
         21    1    1    2  505  501 -0.68461875260E+02 -0.25958184794E+02  0.17861629364E+03  0.19304050371E+03  0.00000000000E+00 0.  1.
         21    1    1    2  506  502 -0.30783424701E+02  0.36607054735E+02  0.13981992851E+02  0.49831634699E+02  0.00000000000E+00 0.  1.
<scales pt_clust_3="41.20598" pt_clust_4="14000.00000" pt_clust_5="90.18055" pt_clust_6="67.19776"></scales>
<clustering>
<clus scale="   41.206">  2  3  1 -1</clus>
<clus scale="   67.198">  2  6  1 -1</clus>
<clus scale="   90.181">  1  5  2 -1</clus>
<clus scale="   90.181">  1  3  2 -1</clus>
</clustering>
</event>
<event>
 6    0  0.5563122E+002  0.1199696E+03  0.7546771E-02  0.1243147E+00
         21   -1    0    0  504  501  0.00000000000E+00  0.00000000000E+00  0.19914522252E+03  0.19914522252E+03  0.00000000000E+00 0.  1.
         21   -1    0    0  503  502 -0.00000000000E+00 -0.00000000000E+00 -0.34277437321E+03  0.34277437321E+03  0.00000000000E+00 0.  1.
         21    1    1    2  503  505 -0.11676722381E+03  0.45770478832E+00 -0.27818782339E+03  0.30170061176E+03  0.00000000000E+00 0.  1.
         21    1    1    2  504  502  0.31083616479E+02 -0.28200759331E+02  0.13290333627E+03  0.13937277651E+03  0.00000000000E+00 0.  1.
         21    1    1    2  505  506  0.34913103160E+02  0.30296871738E+02 -0.12857171479E+02  0.47980538428E+02  0.00000000000E+00 0. -1.
         21    1    1    2  506  501  0.50770504175E+02 -0.25538171957E+01  0.14512507917E+02  0.52865669035E+02  0.00000000000E+00 0.  1.
<scales pt_clust_3="111.07134" pt_clust_4="41.96992" pt_clust_5="38.03356" pt_clust_6="38.03356"></scales>
<clustering>
<clus scale="   41.970">  1  4  2 -1</clus>
<clus scale="   38.034">  5  6 -1 -1</clus>
<clus scale="  111.071">  2  3  1 -1</clus>
<clus scale="   41.970">  1  3  2 -1</clus>
</clustering>
</event>
<event>
 6    0  0.5563122E+002  0.9094323E+02  0.7546771E-02  0.1300583E+00
         21   -1    0    0  502  501  0.00000000000E+00  0.00000000000E+00  0.11112212396E+04  0.11112212396E+04  0.00000000000E+00 0. -1.
         21   -1    0    0  505  502 -0.00000000000E+00 -0.00000000000E+00 -0.67916165671E+02  0.67916165671E+02  0.00000000000E+00 0. -1.
         21    1    1    2  503  501 -0.34968772457E+02 -0.11658134535E+02  0.12342573236E+03  0.12881241616E+03  0.00000000000E+00 0.  1.
         21    1    1    2  504  506  0.99029184749E+02  0.81111090961E+02  0.25158522520E+03  0.28227807929E+03  0.00000000000E+00 0. -1.
         21    1    1    2  505  504 -0.25583368304E+02 -0.27416665187E+02 -0.41520944853E+02  0.55947932269E+02  0.00000000000E+00 0. -1.
         21    1    1    2  506  503 -0.38477043988E+02 -0.42036291240E+02  0.70981506125E+03  0.71209897758E+03  0.00000000000E+00 0. -1.
<scales pt_clust_3="36.86092" pt_clust_4="90.94323" pt_clust_5="37.73643" pt_clust_6="14000.00000"></scales>
<clustering>
<clus scale="   36.861">  1  3  2 -1</clus>
<clus scale="   37.736">  2  5  1 -1</clus>
<clus scale="   90.943">  2  4  1 -1</clus>
<clus scale="   36.861">  1  3  2 -1</clus>
</clustering>
</event>
<event>
 6    0  0.5563122E+002  0.1840082E+03  0.7546771E-02  0.1163979E+00
         21   -1    0    0  503  501  0.00000000000E+00  0.00000000000E+00  0.32569167604E+03  0.32569167604E+03  0.00000000000E+00 0. -1.
         21   -1    0    0  506  502 -0.00000000000E+00 -0.00000000000E+00 -0.78096893579E+03  0.78096893579E+03  0.00000000000E+00 0. -1.
         21    1    1    2  503  504  0.54604978732E+02 -0.61553387825E+02 -0.13224484760E+03  0.15575372538E+03  0.00000000000E+00 0. -1.
         21    1    1    2  504  502  0.52726425711E+02  0.11118008058E+02 -0.86402806323E+02  0.10182893013E+03  0.00000000000E+00 0. -1.
         21    1    1    2  505  501 -0.18812866666E+03  0.28367933010E+02  0.27292044057E+03  0.33269009862E+03  0.00000000000E+00 0. -1.
         21    1    1    2  506  505  0.80797262215E+02  0.22067446757E+02 -0.50955004639E+03  0.51638785769E+03  0.00000000000E+00 0. -1.
<scales pt_clust_3="88.42184" pt_clust_4="53.88586" pt_clust_5="14000.00000" pt_clust_6="184.00821"></scales>
<clustering>
<clus scale="   53.886">  2  4  1 -1</clus>
<clus scale="   88.422">  2  3  1 -1</clus>
<clus scale="  184.008">  2  6  1 -1</clus>
<clus scale="  184.008">  1  3  2 -1</clus>
</clustering>
</event>
<event>
 6    0  0.5563122E+002  0.6598363E+02  0.7546771E-02  0.1374309E+00
         21   -1    0    0  504  501  0.00000000000E+00  0.00000000000E+00  0.24716996777E+03  0.24716996777E+03  0.00000000000E+00 0. -1.
         21   -1    0    0  506  502 -0.00000000000E+00 -0.00000000000E+00 -0.16217687853E+03  0.16217687853E+03  0.00000000000E+00 0. -1.
         21    1    1    2  503  501  0.10945292462E+02  0.63431003318E+02  0.17737003639E+03  0.18868868916E+03  0.00000000000E+00 0. -1.
         21    1    1    2  504  502  0.57515907360E+02  0.16758472792E+02 -0.38969803400E+02  0.71467276335E+02  0.00000000000E+00 0. -1.
         21    1    1    2  505  503 -0.11551751265E+02 -0.79826021294E+02 -0.19631483267E+02  0.83012238665E+02  0.00000000000E+00 0. -1.
         21    1    1    2  506  505 -0.56909448557E+02 -0.36345481625E+00 -0.33775660478E+02  0.66178642138E+02  0.00000000000E+00 0. -1.
<scales pt_clust_3="14000.00000" pt_clust_4="33.84697" pt_clust_5="65.98363" pt_clust_6="56.91061"></scales>
<clustering>
<clus scale="   56.911">  2  6  1 -1</clus>
<clus scale="   33.847">  2  4  1 -1</clus>
<clus scale="   65.984">  2  5  1 -1</clus>
<clus scale="   65.984">  1  3  2 -1</clus>
</clustering>
</event>
<event>
 6    0  0.5563122E+002  0.1219483E+03  0.7546771E-02  0.1239917E+00
         21   -1    0    0  505  501  0.00000000000E+00  0.00000000000E+00  0.38534915101E+03  0.38534915101E+03  0.00000000000E+00 0. -1.
         21   -1    0    0  503  502 -0.00000000000E+00 -0.00000000000E+00 -0.13807126768E+03  0.13807126768E+03  0.00000000000E+00 0. -1.
         21    1    1    2  503  506 -0.52815119194E+02  0.12685309252E+03  0.26596729730E+03  0.29936557440E+03  0.00000000000E+00 0. -1.
         21    1    1    2  504  502  0.68337441278E+02 -0.99101818376E+02 -0.70225716034E+02  0.13936580455E+03  0.00000000000E+00 0. -1.
         21    1    1    2  505  504  0.17276359471E+02 -0.28935919823E+02  0.32118876358E+02  0.46555153002E+02  0.00000000000E+00 0. -1.
         21    1    1    2  506  501 -0.32798681554E+02  0.11846456773E+01  0.19417425700E+02  0.38133886740E+02  0.00000000000E+00 0.  1.
<scales pt_clust_3="121.94830" pt_clust_4="14000.00000" pt_clust_5="31.87919" pt_clust_6="32.82007"></scales>
<clustering>
<clus scale="   32.820">  1  6  2 -1</clus>
<clus scale="   31.879">  1  5  2 -1</clus>
<clus scale="  121.948">  1  3  2 -1</clus>
<clus scale="   32.820">  1  3  2 -1</clus>
</clustering>
</event>
<event>
 6    0  0.5563122E+002  0.8599742E+02  0.7546771E-02  0.1312845E+00
         21   -1    0    0  506  501  0.00000000000E+00  0.00000000000E+00  0.21712976419E+03  0.21712976419E+03  0.00000000000E+00 0. -1.
         21   -1    0    0  505  502 -0.00000000000E+00 -0.00000000000E+00 -0.18178958087E+04  0.18178958087E+04  0.00000000000E+00 0. -1.
         21    1    1    2  503  502 -0.85559328531E+02  0.59532560783E+01 -0.16302701701E+04  0.16325246299E+04  0.00000000000E+00 0. -1.
         21    1    1    2  504  501  0.45667232345E+02  0.76904113288E+01  0.16678662728E+03  0.17309655565E+03  0.00000000000E+00 0. -1.
         21    1    1    2  505  504  0.93434851075E+02 -0.15459300552E+02 -0.14979712895E+02  0.95882496669E+02  0.00000000000E+00 0.  1.
         21    1    1    2  506  503 -0.53542754890E+02  0.18156331454E+01 -0.12230278884E+03  0.13352189065E+03  0.00000000000E+00 0.  1.
<scales pt_clust_3="85.99742" pt_clust_4="46.31024" pt_clust_5="14000.00000" pt_clust_6="48.19139"></scales>
<clustering>
<clus scale="   46.310">  1  4  2 -1</clus>
<clus scale="   48.191">  1  6  2 -1</clus>
<clus scale="   85.997">  2  3  1 -1</clus>
<clus scale="   46.310">  1  3  2 -1</clus>
</clustering>
</event>
<event>
 6    0  0.5563122E+002  0.9885890E+02  0.7546771E-02  0.1282714E+00
         21   -1    0    0  503  501  0.00000000000E+00  0.00000000000E+00  0.13146876117E+03  0.13146876117E+03  0.00000000000E+00 0.  1.
         21   -1    0    0  505  502 -0.00000000000E+00 -0.00000000000E+00 -0.74080475413E+03  0.74080475413E+03  0.00000000000E+00 0. -1.
         21    1    1    2  503  502  0.20707297013E+02 -0.33294935849E+02 -0.61474030117E+03  0.61598943399E+03  0.00000000000E+00 0. -1.
         21    1    1    2  504  506  0.94228051639E+02 -0.20354597946E+02 -0.25260789910E+02  0.99656123144E+02  0.00000000000E+00 0.  1.
         21    1    1    2  505  504 -0.76098493509E+02  0.75068424807E+02  0.90120167561E+01  0.10727285567E+03  0.00000000000E+00 0.  1.
         21    1    1    2  506  501 -0.38836855143E+02 -0.21418891012E+02  0.21653081371E+02  0.49355102496E+02  0.00000000000E+00 0.  1.
<scales pt_clust_3="39.20899" pt_clust_4="98.85890" pt_clust_5="14000.00000" pt_clust_6="44.33625"></scales>
<clustering>
<clus scale="   39.209">  2  3  1 -1</clus>
<clus scale="   44.336">  1  6  2 -1</clus>
<clus scale="   98.859">  1  4  2 -1</clus>
<clus scale="   44.336">  1  3  2 -1</clus>
</clustering>
</event>
<event>
 6    0  0.5563122E+002  0.8523963E+02  0.7546771E-02  0.1314807E+00
         21   -1    0    0  503  501  0.00000000000E+00  0.00000000000E+00  0.58614963085E+03  0.58614963085E+03  0.00000000000E+00 0. -1.
         21   -1    0    0  505  502 -0.00000000000E+00 -0.00000000000E+00 -0.42160665267E+02  0.42160665267E+02  0.00000000000E+00 0. -1.
         21    1    1    2  503  504 -0.48475586497E+02 -0.29325290262E+01  0.22032891896E+03  0.22561762950E+03  0.00000000000E+00 0. -1.
         21    1    1    2  504  502 -0.65481775425E+02 -0.51564903146E+01  0.96687584341E+02  0.11688858486E+03  0.00000000000E+00 0. -1.
         21    1    1    2  505  506  0.98096989540E+02  0.50036063471E+02  0.91733532088E+02  0.14332364743E+03  0.00000000000E+00 0. -1.
         21    1    1    2  506  501  0.15860372382E+02 -0.41947044130E+02  0.13523893020E+03  0.14248043432E+03  0.00000000000E+00 0. -1.
<scales pt_clust_3="47.05691" pt_clust_4="14000.00000" pt_clust_5="85.23963" pt_clust_6="44.84536"></scales>
<clustering>
<clus scale="   44.845">  1  6  2 -1</clus>
<clus scale="   47.057">  1  3  2 -1</clus>
<clus scale="   85.240">  1  5  2 -1</clus>
<clus scale="   44.845">  1  3  2 -1</clus>
</clustering>
</event>
<event>
 6    0  0.5563122E+002  0.7341274E+02  0.7546771E-02  0.1348858E+00
         21   -1    0    0  504  501  0.00000000000E+00  0.00000000000E+00  0.17701772671E+03  0.17701772671E+03  0.00000000000E+00 0.  1.
         21   -1    0    0  506  502 -0.00000000000E+00 -0.00000000000E+00 -0.15386356777E+04  0.15386356777E+04  0.00000000000E+00 0. -1.
         21    1    1    2  503  502 -0.75775848775E+02  0.41037765145E+02  0.26108251485E+02  0.90042868797E+02  0.00000000000E+00 0.  1.
         21    1    1    2  504  503  0.37523867396E+02 -0.20483569471E+02 -0.79346457966E+01  0.43480752598E+02  0.00000000000E+00 0. -1.
         21    1    1    2  505  501  0.60987284130E+02  0.34518530991E+02  0.88356394156E+02  0.11277335765E+03  0.00000000000E+00 0.  1.
         21    1    1    2  506  505 -0.22735302751E+02 -0.55072726665E+02 -0.14681479508E+04  0.14693564253E+04  0.00000000000E+00 0. -1.
<scales pt_clust_3="14000.00000" pt_clust_4="42.75064" pt_clust_5="73.41274" pt_clust_6="59.59876"></scales>
<clustering>
<clus scale="   42.751">  1  4  2 -1</clus>
<clus scale="   59.599">  2  6  1 -1</clus>
<clus scale="   73.413">  1  5  2 -1</clus>
<clus scale="   42.751">  1  3  2 -1</clus>
</clustering>
</event>
<event>
 6    0  0.5563122E+002  0.1108506E+03  0.7546771E-02  0.1259003E+00
         21   -1    0    0  503  501  0.00000000000E+00  0.00000000000E+00  0.11243604884E+03  0.11243604884E+03  0.00000000000E+00 0.  1.
         21   -1    0    0  506  502 -0.00000000000E+00 -0.00000000000E+00 -0.21217873902E+03  0.21217873902E+03  0.00000000000E+00 0.  1.
         21    1    1    2  503  504  0.19668085449E+02  0.53509081575E+02  0.37308676036E+02  0.68132170843E+02  0.00000000000E+00 0.  1.
         21    1    1    2  504  505 -0.18519382550E+02 -0.86275511306E+02 -0.31706701681E+02  0.93764312575E+02  0.00000000000E+00 0.  1.
         21    1    1    2  505  502  0.37647288747E+01 -0.42177450838E+02 -0.64687842314E+02  0.77315118095E+02  0.00000000000E+00 0.  1.
         21    1    1    2  506  501 -0.49134317732E+01  0.74943880569E+02 -0.40656822222E+02  0.85403186356E+02  0.00000000000E+00 0.  1.
<scales pt_clust_3="57.00926" pt_clust_4="39.54298" pt_clust_5="39.54298" pt_clust_6="95.02344"></scales>
<clustering>
<clus scale="   39.543">  4  5 -1 -1</clus>
<clus scale="   57.009">  1  3  2 -1</clus>
<clus scale="   95.023">  2  6  1 -1</clus>
<clus scale="   57.009">  1  3  2 -1</clus>
</clustering>
</event>
<event>
 6    0  0.5563122E+002  0.9945247E+02  0.7546771E-02  0.1281452E+00
         21   -1    0    0  505  501  0.00000000000E+00  0.00000000000E+00  0.32156712238E+03  0.32156712238E+03  0.00000000000E+00 0. -1.
         21   -1    0    0  506  502 -0.00000000000E+00 -0.00000000000E+00 -0.84657225045E+03  0.84657225045E+03  0.00000000000E+00 0. -1.
         21    1    1    2  503  504 -0.40430041963E+02 -0.22427143068E+02  0.39925487639E+02  0.61086902054E+02  0.00000000000E+00 0. -1.
         21    1    1    2  504  502 -0.96401893421E+02  0.24741937618E+02 -0.80280350774E+03  0.80894929419E+03  0.00000000000E+00 0. -1.
         21    1    1    2  505  503  0.31601611585E+02 -0.23577838850E+02  0.16177713307E+03  0.16651251341E+03  0.00000000000E+00 0. -1.
         21    1    1    2  506  501  0.10523032380E+03  0.21263044300E+02  0.76095758974E+02  0.13159066317E+03  0.00000000000E+00 0. -1.
<scales pt_clust_3="42.62697" pt_clust_4="99.45247" pt_clust_5="39.42812" pt_clust_6="14000.00000"></scales>
<clustering>
<clus scale="   39.428">  1  5  2 -1</clus>
<clus scale="   42.627">  1  3  2 -1</clus>
<clus scale="   99.452">  2  4  1 -1</clus>
<clus scale="   39.428">  1  3  2 -1</clus>
</clustering>
</event>
<event>
 6    0  0.5563122E+002  0.9958686E+02  0.7546771E-02  0.1281167E+00
         21   -1    0    0  504  501  0.00000000000E+00  0.00000000000E+00  0.56400070770E+03  0.56400070770E+03  0.00000000000E+00 0. -1.
         21   -1    0    0  505  502 -0.00000000000E+00 -0.00000000000E+00 -0.12526316901E+03  0.12526316901E+03  0.00000000000E+00 0. -1.
         21    1    1    2  503  501  0.92468174662E+02 -0.37825778569E+02  0.45576979427E+03  0.46659110388E+03  0.00000000000E+00 0. -1.
         21    1    1    2  504  506 -0.70507888354E+02  0.80593634904E+02  0.24333237215E+02  0.10981258007E+03  0.00000000000E+00 0. -1.
         21    1    1    2  505  503  0.47983879843E+01 -0.60757156407E+02 -0.68370065736E+00  0.60950176608E+02  0.00000000000E+00 0.  1.
         21    1    1    2  506  502 -0.26758674292E+02  0.17989300072E+02 -0.40681792132E+02  0.51910016163E+02  0.00000000000E+00 0. -1.
<scales pt_clust_3="99.58686" pt_clust_4="14000.00000" pt_clust_5="54.03244" pt_clust_6="32.24347"></scales>
<clustering>
<clus scale="   32.243">  2  6  1 -1</clus>
<clus scale="   54.032">  2  5  1 -1</clus>
<clus scale="   99.587">  1  3  2 -1</clus>
<clus scale="   99.587">  1  3  2 -1</clus>
</clustering>
</event>
<event>
 6    0  0.5563122E+002  0.1008501E+03  0.7546771E-02  0.1278518E+00
         21   -1    0    0  503  501  0.00000000000E+00  0.00000000000E+00  0.14832582251E+03  0.14832582251E+03  0.00000000000E+00 0.  1.
         21   -1    0    0  504  502 -0.00000000000E+00 -0.00000000000E+00 -0.11426792901E+03  0.11426792901E+03  0.00000000000E+00 0.  1.
         21    1    1    2  503  502 -0.46676889322E+02  0.12200882178E+02 -0.47401585818E+01  0.48477444508E+02  0.00000000000E+00 0.  1.
         21    1    1    2  504  505  0.32796119822E+02  0.44646479980E+02 -0.13580023761E+01  0.55414238427E+02  0.00000000000E+00 0.  1.
         21    1    1    2  505  506  0.57968091166E+02  0.20868388270E+02  0.22703589535E+01  0.61651794395E+02  0.00000000000E+00 0.  1.
         21    1    1    2  506  501 -0.44087321666E+02 -0.77715750428E+02  0.37885695508E+02  0.97050274190E+02  0.00000000000E+00 0.  1.
<scales pt_clust_3="48.24514" pt_clust_4="32.48041" pt_clust_5="32.48041" pt_clust_6="94.85495"></scales>
<clustering>
<clus scale="   32.480">  4  5 -1 -1</clus>
<clus scale="   48.245">  2  3  1 -1</clus>
<clus scale="   94.855">  1  6  2 -1</clus>
<clus scale="   94.855">  1  3  2 -1</clus>
</clustering>
</event>
<event>
 6    0  0.5563122E+002  0.2209359E+03  0.7546771E-02  0.1133187E+00
         21   -1    0    0  503  501  0.00000000000E+00  0.00000000000E+00  0.14427600594E+03  0.14427600594E+03  0.00000000000E+00 0. -1.
         21   -1    0    0  506  502 -0.00000000000E+00 -0.00000000000E+00 -0.74229658441E+03  0.74229658441E+03  0.00000000000E+00 0. -1.
         21    1    1    2  503  504 -0.13553072120E+03  0.69742013675E+02 -0.36519195166E+02  0.15673600887E+03  0.00000000000E+00 0. -1.
         21    1    1    2  504  505 -0.42662996373E+02 -0.15633898783E+02 -0.20488167985E+02  0.49842903989E+02  0.00000000000E+00 0. -1.
         21    1    1    2  505  502 -0.95371628005E+02 -0.52602891622E+02 -0.28584852179E+03  0.30589571596E+03  0.00000000000E+00 0. -1.
         21    1    1    2  506  501  0.27356534558E+03 -0.15052232708E+01 -0.25516469352E+03  0.37409796153E+03  0.00000000000E+00 0. -1.
<scales pt_clust_3="37.60704" pt_clust_4="37.60704" pt_clust_5="108.91654" pt_clust_6="209.92460"></scales>
<clustering>
<clus scale="   37.607">  3  4 -1 -1</clus>
<clus scale="  108.917">  2  5  1 -1</clus>
<clus scale="  209.925">  2  6  1 -1</clus>
<clus scale="  220.936">  1  3  2 -1</clus>
</clustering>
</event>
<event>
 6    0  0.5563122E+002  0.5593009E+02  0.7546771E-02  0.1415751E+00
         21   -1    0    0  504  501  0.00000000000E+00  0.00000000000E+00  0.30619809176E+03  0.30619809176E+03  0.00000000000E+00 0.  1.
         21   -1    0    0  506  502 -0.00000000000E+00 -0.00000000000E+00 -0.26861257871E+03  0.26861257871E+03  0.00000000000E+00 0. -1.
         21    1    1    2  503  505 -0.44874702460E+02 -0.39660718968E+01  0.76080945576E+01  0.45687544801E+02  0.00000000000E+00 0.  1.
         21    1    1    2  504  502  0.10593466944E+03  0.57364392789E+02 -0.60017278242E+02  0.13459160983E+03  0.00000000000E+00 0. -1.
         21    1    1    2  505  501 -0.28139143363E+02 -0.46535265929E+02  0.23729225469E+03  0.24344394940E+03  0.00000000000E+00 0.  1.
         21    1    1    2  506  503 -0.32920823612E+02 -0.68630549635E+01 -0.14729755796E+03  0.15108756644E+03  0.00000000000E+00 0. -1.
<scales pt_clust_3="50.37822" pt_clust_4="14000.00000" pt_clust_5="55.93009" pt_clust_6="33.62859"></scales>
<clustering>
<clus scale="   33.629">  2  6  1 -1</clus>
<clus scale="   50.378">  2  3  1 -1</clus>
<clus scale="   55.930">  1  5  2 -1</clus>
<clus scale="   55.930">  1  3  2 -1</clus>
</clustering>
</event>
<event>
 6    0  0.5563122E+002  0.1647887E+03  0.7546771E-02  0.1183394E+00
         21   -1    0    0  504  501  0.00000000000E+00  0.00000000000E+00  0.31205477426E+03  0.31205477426E+03  0.00000000000E+00 0. -1.
         21   -1    0    0  503  502 -0.00000000000E+00 -0.00000000000E+00 -0.52700497207E+03  0.52700497207E+03  0.00000000000E+00 0. -1.
         21    1    1    2  503  501  0.12706666226E+03  0.12218410659E+03 -0.82200120254E+02  0.19450386200E+03  0.00000000000E+00 0. -1.
         21    1    1    2  504  505 -0.15137812992E+01  0.46574826055E+02  0.21478656477E+03  0.21978347154E+03  0.00000000000E+00 0. -1.
         21    1    1    2  505  506 -0.83827140687E+02 -0.12780680040E+03 -0.13364169493E+03  0.20303120540E+03  0.00000000000E+00 0. -1.
         21    1    1    2  506  502 -0.41725740272E+02 -0.40952132248E+02 -0.21389494740E+03  0.22174120740E+03  0.00000000000E+00 0. -1.
<scales pt_clust_3="14000.00000" pt_clust_4="46.59942" pt_clust_5="164.78867" pt_clust_6="57.17649"></scales>
<clustering>
<clus scale="   46.599">  1  4  2 -1</clus>
<clus scale="   57.176">  2  6  1 -1</clus>
<clus scale="  164.789">  1  5  2 -1</clus>
<clus scale="   46.599">  1  3  2 -1</clus>
</clustering>
</event>
<event>
 6    0  0.5563122E+002  0.1040750E+03  0.7546771E-02  0.1271953E+00
         21   -1    0    0  506  501  0.00000000000E+00  0.00000000000E+00  0.22305618137E+03  0.22305618137E+03  0.00000000000E+00 0. -1.
         21   -1    0    0  505  502 -0.00000000000E+00 -0.00000000000E+00 -0.30553944867E+03  0.30553944867E+03  0.00000000000E+00 0.  1.
         21    1    1    2  503  502 -0.37920726491E+02 -0.12182776782E+01 -0.11028224786E+03  0.11662606866E+03  0.00000000000E+00 0.  1.
         21    1    1    2  504  503 -0.26246993996E+02  0.96016794040E+02 -0.32723057854E+01  0.99593360304E+02  0.00000000000E+00 0.  1.
         21    1    1    2  505  501  0.98449473532E+01 -0.10727709177E+03 -0.11407101115E+03  0.15689962712E+03  0.00000000000E+00 0.  1.
         21    1    1    2  506  504  0.54322773134E+02  0.12478575408E+02  0.14514229749E+03  0.15547657395E+03  0.00000000000E+00 0. -1.
<scales pt_clust_3="37.94029" pt_clust_4="104.07502" pt_clust_5="14000.00000" pt_clust_6="54.73642"></scales>
<clustering>
<clus scale="   37.940">  2  3  1 -1</clus>
<clus scale="   54.736">  1  6  2 -1</clus>
<clus scale="  104.075">  1  4  2 -1</clus>
<clus scale="   54.736">  1  3  2 -1</clus>
</clustering>
</event>
<event>
 6    0  0.5563122E+002  0.1103535E+03  0.7546771E-02  0.1259917E+00
         21   -1    0    0  505  501  0.00000000000E+00  0.00000000000E+00  0.19730545054E+03  0.19730545054E+03  0.00000000000E+00 0.  1.
         21   -1    0    0  506  502 -0.00000000000E+00 -0.00000000000E+00 -0.62413147168E+03  0.62413147168E+03  0.00000000000E+00 0. -1.
         21    1    1    2  503  504  0.66463733516E+02  0.31127206003E+01  0.75299383817E+02  0.10048439732E+03  0.00000000000E+00 0.  1.
         21    1    1    2  504  502 -0.73390049190E+02 -0.62963447085E+02 -0.48329104909E+03  0.49286989471E+03  0.00000000000E+00 0. -1.
         21    1    1    2  505  503  0.37968539452E+02 -0.31809648318E+02  0.77213797977E+02  0.91735676333E+02  0.00000000000E+00 0.  1.
         21    1    1    2  506  501 -0.31042223777E+02  0.91660374803E+02 -0.96048153847E+02  0.13634695385E+03  0.00000000000E+00 0. -1.
<scales pt_clust_3="38.18525" pt_clust_4="96.69796" pt_clust_5="38.18525" pt_clust_6="101.09015"></scales>
<clustering>
<clus scale="   38.185">  3  5 -1 -1</clus>
<clus scale="   96.698">  2  4  1 -1</clus>
<clus scale="  101.090">  2  6  1 -1</clus>
<clus scale="  110.353">  1  3  2 -1</clus>
</clustering>
</event>
<event>
 6    0  0.5563122E+002  0.1620969E+03  0.7546771E-02  0.1186350E+00
         21   -1    0    0  506  501  0.00000000000E+00  0.00000000000E+00  0.94921283692E+03  0.94921283692E+03  0.00000000000E+00 0. -1.
         21   -1    0    0  504  502 -0.00000000000E+00 -0.00000000000E+00 -0.21496693405E+03  0.21496693405E+03  0.00000000000E+00 0.  1.
         21    1    1    2  503  505  0.10889639017E+03  0.34726873749E+02  0.88119967184E+02  0.14432431593E+03  0.00000000000E+00 0.  1.
         21    1    1    2  504  501 -0.44594346328E+01 -0.72598330911E+02  0.71265163776E+02  0.10182891425E+03  0.00000000000E+00 0. -1.
         21    1    1    2  505  502  0.80017774989E+02  0.58337167123E+02 -0.14446469271E+03  0.17514598717E+03  0.00000000000E+00 0.  1.
         21    1    1    2  506  503 -0.18445473053E+03 -0.20465709961E+02  0.71932546462E+03  0.74288055362E+03  0.00000000000E+00 0. -1.
<scales pt_clust_3="14000.00000" pt_clust_4="72.73516" pt_clust_5="98.20603" pt_clust_6="162.09691"></scales>
<clustering>
<clus scale="   72.735">  1  4  2 -1</clus>
<clus scale="   98.206">  2  5  1 -1</clus>
<clus scale="  162.097">  1  6  2 -1</clus>
<clus scale="   72.735">  1  3  2 -1</clus>
</clustering>
</event>
<event>
 6    0  0.5563122E+002  0.1652809E+03  0.7546771E-02  0.1182860E+00
         21   -1    0    0  506  501  0.00000000000E+00  0.00000000000E+00  0.21491452591E+03  0.21491452591E+03  0.00000000000E+00 0.  1.
         21   -1    0    0  505  502 -0.00000000000E+00 -0.00000000000E+00 -0.26371250105E+03  0.26371250105E+03  0.00000000000E+00 0.  1.
         21    1    1    2  503  504 -0.51348759744E+02 -0.89743670438E+02  0.10498386345E+03  0.14735071461E+03  0.00000000000E+00 0.  1.
         21    1    1    2  504  501  0.40690822143E+01 -0.63921447233E+02  0.28638341762E+02  0.70161695143E+02  0.00000000000E+00 0. -1.
         21    1    1    2  505  503 -0.28186910055E+02  0.45581251386E+02 -0.38767582453E+02  0.66144371080E+02  0.00000000000E+00 0.  1.
         21    1    1    2  506  502  0.75466587584E+02  0.10808386628E+03 -0.14365259790E+03  0.19497024613E+03  0.00000000000E+00 0.  1.
<scales pt_clust_3="47.27920" pt_clust_4="47.27920" pt_clust_5="53.59247" pt_clust_6="153.97848"></scales>
<clustering>
<clus scale="   47.279">  3  4 -1 -1</clus>
<clus scale="   53.592">  2  5  1 -1</clus>
<clus scale="  153.978">  2  6  1 -1</clus>
<clus scale="  165.281">  1  3  2 -1</clus>
</clustering>
</event>
<event>
 6    0  0.5563122E+002  0.1154817E+03  0.7546771E-02  0.1250743E+00
         21   -1    0    0  503  501  0.00000000000E+00  0.00000000000E+00  0.67995509366E+03  0.67995509366E+03  0.00000000000E+00 0. -1.
         21   -1    0    0  506  502 -0.00000000000E+00 -0.00000000000E+00 -0.64902425711E+03  0.64902425711E+03  0.00000000000E+00 0.  1.
         21    1    1    2  503  504  0.11445620888E+03  0.88324174380E+01  0.63819796406E+03  0.64844034165E+03  0.00000000000E+00 0. -1.
         21    1    1    2  504  502  0.39137086570E+02  0.13635930394E+02 -0.15361419072E+02  0.44199811524E+02  0.00000000000E+00 0. -1.
         21    1    1    2  505  501 -0.17259191122E+03 -0.66154762633E+02 -0.44352213486E+03  0.48049589441E+03  0.00000000000E+00 0.  1.
         21    1    1    2  506  505  0.18998615767E+02  0.43686414801E+02 -0.14838357358E+03  0.15584330318E+03  0.00000000000E+00 0.  1.
<scales pt_clust_3="115.48175" pt_clust_4="41.44454" pt_clust_5="14000.00000" pt_clust_6="55.05502"></scales>
<clustering>
<clus scale="   41.445">  2  4  1 -1</clus>
<clus scale="   55.055">  2  6  1 -1</clus>
<clus scale="  115.482">  1  3  2 -1</clus>
<clus scale="  115.482">  1  3  2 -1</clus>
</clustering>
</event>
<event>
 6    0  0.5563122E+002  0.1765964E+03  0.7546771E-02  0.1171138E+00
         21   -1    0    0  504  501  0.00000000000E+00  0.00000000000E+00  0.90514066543E+02  0.90514066543E+02  0.00000000000E+00 0.  1.
         21   -1    0    0  506  502 -0.00000000000E+00 -0.00000000000E+00 -0.98017447971E+03  0.98017447971E+03  0.00000000000E+00 0.  1.
         21    1    1    2  503  501 -0.17976852236E+03  0.77430095924E+02 -0.47193553139E+03  0.51091612538E+03  0.00000000000E+00 0.  1.
         21    1    1    2  504  505 -0.38391912151E+02 -0.64465089680E+02  0.79596926994E+00  0.75035460105E+02  0.00000000000E+00 0.  1.
         21    1    1    2  505  502  0.17252491100E+03 -0.30741981118E+02 -0.22543188971E+03  0.28553362537E+03  0.00000000000E+00 0.  1.
         21    1    1    2  506  503  0.45635523514E+02  0.17776974873E+02 -0.19308896134E+03  0.19920333540E+03  0.00000000000E+00 0.  1.
<scales pt_clust_3="176.59640" pt_clust_4="73.21646" pt_clust_5="14000.00000" pt_clust_6="48.97573"></scales>
<clustering>
<clus scale="   48.976">  2  6  1 -1</clus>
<clus scale="   73.216">  1  4  2 -1</clus>
<clus scale="  176.596">  2  3  1 -1</clus>
<clus scale="   73.216">  1  3  2 -1</clus>
</clustering>
</event>
<event>
 6    0  0.5563122E+002  0.8427037E+02  0.7546771E-02  0.1317352E+00
         21   -1    0    0  506  501  0.00000000000E+00  0.00000000000E+00  0.10280048101E+04  0.10280048101E+04  0.00000000000E+00 0.  1.
         21   -1    0    0  505  502 -0.00000000000E+00 -0.00000000000E+00 -0.29813333331E+02  0.29813333331E+02  0.00000000000E+00 0. -1.
         21    1    1    2  503  504  0.16200907982E+01 -0.62993070312E+02  0.14820217302E+03  0.16104234129E+03  0.00000000000E+00 0. -1.
         21    1    1    2  504  501 -0.77965655180E+02 -0.33901291231E+02  0.64054330104E+03  0.64616070868E+03  0.00000000000E+00 0.  1.
         21    1    1    2  505  503  0.28828241512E+02  0.12524608765E+02  0.18373708155E+02  0.36407780553E+02  0.00000000000E+00 0. -1.
         21    1    1    2  506  502  0.47517322869E+02  0.84369752778E+02  0.19107229456E+03  0.21420731291E+03  0.00000000000E+00 0. -1.
<scales pt_clust_3="60.05510" pt_clust_4="14000.00000" pt_clust_5="31.43141" pt_clust_6="84.27037"></scales>
<clustering>
<clus scale="   31.431">  2  5  1 -1</clus>
<clus scale="   60.055">  2  3  1 -1</clus>
<clus scale="   84.270">  2  6  1 -1</clus>
<clus scale="   84.270">  1  3  2 -1</clus>
</clustering>
</event>
<event>
 6    0  0.5563122E+002  0.1398711E+03  0.7546771E-02  0.1213502E+00
         21   -1    0    0  504  501  0.00000000000E+00  0.00000000000E+00  0.23264430350E+04  0.23264430350E+04  0.00000000000E+00 0. -1.
         21   -1    0    0  506  502 -0.00000000000E+00 -0.00000000000E+00 -0.33272202915E+02  0.33272202915E+02  0.00000000000E+00 0.  1.
         21    1    1    2  503  502 -0.14537691949E+03  0.14954532966E+02  0.17578001285E+03  0.22859724340E+03  0.00000000000E+00 0.  1.
         21    1    1    2  504  505  0.70561654141E+02  0.82793152247E+01  0.10097167322E+04  0.10122131067E+04  0.00000000000E+00 0. -1.
         21    1    1    2  505  503  0.11183690630E+03 -0.37161375911E+02  0.78014659672E+03  0.78899757531E+03  0.00000000000E+00 0. -1.
         21    1    1    2  506  501 -0.37021640952E+02  0.13927527721E+02  0.32752749039E+03  0.32990731257E+03  0.00000000000E+00 0. -1.
<scales pt_clust_3="139.87115" pt_clust_4="54.04556" pt_clust_5="14000.00000" pt_clust_6="39.55475"></scales>
<clustering>
<clus scale="   39.555">  1  6  2 -1</clus>
<clus scale="   54.046">  1  4  2 -1</clus>
<clus scale="  139.871">  2  3  1 -1</clus>
<clus scale="   39.555">  1  3  2 -1</clus>
</clustering>
</event>
<event>
 6    0  0.5563122E+002  0.8872933E+02  0.7546771E-02  0.1305958E+00
         21   -1    0    0  503  501  0.00000000000E+00  0.00000000000E+00  0.40467904494E+03  0.40467904494E+03  0.00000000000E+00 0. -1.
         21   -1    0    0  506  502 -0.00000000000E+00 -0.00000000000E+00 -0.18192460163E+03  0.18192460163E+03  0.00000000000E+00 0. -1.
         21    1    1    2  503  505  0.19455119946E+02  0.47120130414E+02  0.26359802850E+03  0.26848226946E+03  0.00000000000E+00 0.  1.
         21    1    1    2  504  502 -0.96307002932E+02 -0.84198827551E+01 -0.13985894832E+03  0.17001899501E+03  0.00000000000E+00 0. -1.
         21    1    1    2  505  504  0.50244818963E+02 -0.57167510504E+02  0.57182719437E+02  0.95197318724E+02  0.00000000000E+00 0. -1.
         21    1    1    2  506  501  0.26607064023E+02  0.18467262846E+02  0.41832643694E+02  0.52905063381E+02  0.00000000000E+00 0. -1.
<scales pt_clust_3="72.43604" pt_clust_4="14000.00000" pt_clust_5="88.72933" pt_clust_6="32.38789"></scales>
<clustering>
<clus scale="   32.388">  1  6  2 -1</clus>
<clus scale="   72.436">  1  3  2 -1</clus>
<clus scale="   88.729">  1  5  2 -1</clus>
<clus scale="   32.388">  1  3  2 -1</clus>
</clustering>
</event>
<event>
 6    0  0.5563122E+002  0.1204823E+03  0.7546771E-02  0.1242304E+00
         21   -1    0    0  506  501  0.00000000000E+00  0.00000000000E+00  0.48198797652E+03  0.48198797652E+03  0.00000000000E+00 0. -1.
         21   -1    0    0  504  502 -0.00000000000E+00 -0.00000000000E+00 -0.18932707438E+03  0.18932707438E+03  0.00000000000E+00 0. -1.
         21    1    1    2  503  505  0.50340809144E+02 -0.39055263573E+02  0.11009740857E+03  0.12720436334E+03  0.00000000000E+00 0.  1.
         21    1    1    2  504  501  0.83677917622E+02  0.11938688188E+03  0.15991531553E+03  0.21639808133E+03  0.00000000000E+00 0. -1.
         21    1    1    2  505  502 -0.11824476717E+03 -0.27667654685E+02 -0.12250598419E+03  0.17249649342E+03  0.00000000000E+00 0. -1.
         21    1    1    2  506  503 -0.15773959593E+02 -0.52663963619E+02  0.14515416222E+03  0.15521611281E+03  0.00000000000E+00 0. -1.
<scales pt_clust_3="73.13738" pt_clust_4="120.48230" pt_clust_5="14000.00000" pt_clust_6="54.97555"></scales>
<clustering>
<clus scale="   54.976">  1  6  2 -1</clus>
<clus scale="   73.137">  1  3  2 -1</clus>
<clus scale="  120.482">  1  4  2 -1</clus>
<clus scale="   54.976">  1  3  2 -1</clus>
</clustering>
</event>
<event>
 6    0  0.5563122E+002  0.9999531E+02  0.7546771E-02  0.1280306E+00
         21   -1    0    0  505  501  0.00000000000E+00  0.00000000000E+00  0.14509969162E+03  0.14509969162E+03  0.00000000000E+00 0. -1.
         21   -1    0    0  504  502 -0.00000000000E+00 -0.00000000000E+00 -0.42464139079E+03  0.42464139079E+03  0.00000000000E+00 0. -1.
         21    1    1    2  503  501 -0.28175564924E+02 -0.33856887424E+02 -0.17204573584E+02  0.47287933313E+02  0.00000000000E+00 0. -1.
         21    1    1    2  504  503  0.48156414120E+02 -0.69316846323E+02 -0.17051516402E+03  0.19026110103E+03  0.00000000000E+00 0. -1.
         21    1    1    2  505  506  0.60885659272E+02 -0.64724922103E+01  0.87617706251E+02  0.10689162319E+03  0.00000000000E+00 0. -1.
         21    1    1    2  506  502 -0.80866508468E+02  0.10964622596E+03 -0.17943966782E+03  0.22530042487E+03  0.00000000000E+00 0. -1.
<scales pt_clust_3="44.04715" pt_clust_4="99.99531" pt_clust_5="50.95057" pt_clust_6="14000.00000"></scales>
<clustering>
<clus scale="   44.047">  1  3  2 -1</clus>
<clus scale="   50.951">  1  5  2 -1</clus>
<clus scale="   99.995">  2  4  1 -1</clus>
<clus scale="   44.047">  1  3  2 -1</clus>
</clustering>
</event>
<event>
 6    0  0.5563122E+002  0.1304223E+03  0.7546771E-02  0.1226830E+00
         21   -1    0    0  504  501  0.00000000000E+00  0.00000000000E+00  0.11045413847E+03  0.11045413847E+03  0.00000000000E+00 0.  1.
         21   -1    0    0  506  502 -0.00000000000E+00 -0.00000000000E+00 -0.11795231245E+04  0.11795231245E+04  0.00000000000E+00 0.  1.
         21    1    1    2  503  502 -0.21101941562E+02 -0.83226687463E+02 -0.93913739593E+03  0.94305409276E+03  0.00000000000E+00 0.  1.
         21    1    1    2  504  505 -0.64617667998E+02  0.66195072069E+02  0.22315242273E+02  0.95158817886E+02  0.00000000000E+00 0.  1.
         21    1    1    2  505  503  0.21620692688E+01  0.36110266647E+02  0.32166149105E+02  0.48407510255E+02  0.00000000000E+00 0.  1.
         21    1    1    2  506  501  0.83557540291E+02 -0.19078651253E+02 -0.18441298144E+03  0.20335684202E+03  0.00000000000E+00 0.  1.
<scales pt_clust_3="117.19214" pt_clust_4="35.79245" pt_clust_5="35.79245" pt_clust_6="85.70798"></scales>
<clustering>
<clus scale="   35.792">  4  5 -1 -1</clus>
<clus scale="   85.708">  2  6  1 -1</clus>
<clus scale="  117.192">  2  3  1 -1</clus>
<clus scale="  130.422">  1  3  2 -1</clus>
</clustering>
</event>
<event>
 6    0  0.5563122E+002  0.1731882E+03  0.7546771E-02  0.1174563E+00
         21   -1    0    0  505  501  0.00000000000E+00  0.00000000000E+00  0.13363797956E+04  0.13363797956E+04  0.00000000000E+00 0.  1.
         21   -1    0    0  506  502 -0.00000000000E+00 -0.00000000000E+00 -0.81917363695E+02  0.81917363695E+02  0.00000000000E+00 0.  1.
         21    1    1    2  503  504  0.17564853945E+03 -0.55154232688E+02  0.16232468644E+03  0.24544592607E+03  0.00000000000E+00 0.  1.
         21    1    1    2  504  501 -0.16476391333E+03  0.47329278806E+02  0.10841951650E+04  0.10976640486E+04  0.00000000000E+00 0.  1.
         21    1    1    2  505  502 -0.47688211403E+00 -0.31686706899E+02 -0.55191249862E+01  0.32167305626E+02  0.00000000000E+00 0.  1.
         21    1    1    2  506  503 -0.10407744004E+02  0.39511660781E+02  0.13461705395E+02  0.43019878952E+02  0.00000000000E+00 0.  1.
<scales pt_clust_3="173.18817" pt_clust_4="14000.00000" pt_clust_5="31.69030" pt_clust_6="33.76742"></scales>
<clustering>
<clus scale="   31.690">  2  5  1 -1</clus>
<clus scale="   33.767">  2  6  1 -1</clus>
<clus scale="  173.188">  2  3  1 -1</clus>
<clus scale="  173.188">  1  3  2 -1</clus>
</clustering>
</event>
<event>
 6    0  0.5563122E+002  0.1136353E+03  0.7546771E-02  0.1253982E+00
         21   -1    0    0  505  501  0.00000000000E+00  0.00000000000E+00  0.64447406305E+03  0.64447406305E+03  0.00000000000E+00 0. -1.
         21   -1    0    0  506  502 -0.00000000000E+00 -0.00000000000E+00 -0.33272016002E+03  0.33272016002E+03  0.00000000000E+00 0. -1.
         21    1    1    2  503  502 -0.32871648581E+02  0.10065126405E+01  0.10441581831E+02  0.34504854430E+02  0.00000000000E+00 0.  1.
         21    1    1    2  504  501  0.95542545049E+02  0.64074208452E+02  0.59854116269E+03  0.60949602586E+03  0.00000000000E+00 0. -1.
         21    1    1    2  505  503 -0.14300234880E+02 -0.54736651804E+02 -0.35407483753E+02  0.66740450059E+02  0.00000000000E+00 0. -1.
         21    1    1    2  506  504 -0.48370661588E+02 -0.10344069289E+02 -0.26182135774E+03  0.26645289272E+03  0.00000000000E+00 0. -1.
<scales pt_clust_3="32.88705" pt_clust_4="113.63532" pt_clust_5="57.96735" pt_clust_6="14000.00000"></scales>
<clustering>
<clus scale="   32.887">  2  3  1 -1</clus>
<clus scale="   57.967">  2  5  1 -1</clus>
<clus scale="  113.635">  1  4  2 -1</clus>
<clus scale="  113.635">  1  3  2 -1</clus>
</clustering>
</event>
<event>
 6    0  0.5563122E+002  0.9213882E+02  0.7546771E-02  0.1297753E+00
         21   -1    0    0  504  501  0.00000000000E+00  0.00000000000E+00  0.94471086569E+03  0.94471086569E+03  0.00000000000E+00 0.  1.
         21   -1    0    0  503  502 -0.00000000000E+00 -0.00000000000E+00 -0.47851602534E+02  0.47851602534E+02  0.00000000000E+00 0.  1.
         21    1    1    2  503  506 -0.39540473082E+02 -0.46719362896E+02  0.16309452964E+02  0.63341504063E+02  0.00000000000E+00 0.  1.
         21    1    1    2  504  505 -0.23717597700E+02  0.11094389377E+03  0.34640303076E+03  0.36450806812E+03  0.00000000000E+00 0.  1.
         21    1    1    2  505  502  0.10730629920E+03 -0.24090247385E+01  0.31812097007E+03  0.33574007334E+03  0.00000000000E+00 0.  1.
         21    1    1    2  506  501 -0.44048228415E+02 -0.61815506134E+02  0.21602580936E+03  0.22897282270E+03  0.00000000000E+00 0.  1.
<scales pt_clust_3="61.20578" pt_clust_4="86.49815" pt_clust_5="14000.00000" pt_clust_6="92.13882"></scales>
<clustering>
<clus scale="   61.206">  2  3  1 -1</clus>
<clus scale="   92.139">  1  6  2 -1</clus>
<clus scale="   86.498">  1  4  2 -1</clus>
<clus scale="   92.139">  1  3  2 -1</clus>
</clustering>
</event>
<event>
 6    0  0.5563122E+002  0.8853689E+02  0.7546771E-02  0.1306434E+00
         21   -1    0    0  506  501  0.00000000000E+00  0.00000000000E+00  0.18693170974E+04  0.18693170974E+04  0.00000000000E+00 0. -1.
         21   -1    0    0  505  502 -0.00000000000E+00 -0.00000000000E+00 -0.45264219432E+02  0.45264219432E+02  0.00000000000E+00 0.  1.
         21    1    1    2  503  501  0.58581477235E+02  0.41451554311E+02  0.29603364222E+02  0.77629762354E+02  0.00000000000E+00 0.  1.
         21    1    1    2  504  502 -0.52325139466E+02 -0.10377569797E+03  0.21899627374E+03  0.24792475395E+03  0.00000000000E+00 0.  1.
         21    1    1    2  505  503 -0.88532707328E+01  0.29862875311E+02  0.30048989858E+02  0.43279481466E+02  0.00000000000E+00 0.  1.
         21    1    1    2  506  504  0.25969329639E+01  0.32461268351E+02  0.15454042501E+04  0.15457473190E+04  0.00000000000E+00 0. -1.
<scales pt_clust_3="88.53689" pt_clust_4="14000.00000" pt_clust_5="31.14758" pt_clust_6="32.69400"></scales>
<clustering>
<clus scale="   31.148">  2  5  1 -1</clus>
<clus scale="   32.694">  1  6  2 -1</clus>
<clus scale="   88.537">  2  3  1 -1</clus>
<clus scale="   32.694">  1  3  2 -1</clus>
</clustering>
</event>
<event>
 6    0  0.5563122E+002  0.1807079E+03  0.7546771E-02  0.1167120E+00
         21   -1    0    0  505  501  0.00000000000E+00  0.00000000000E+00  0.10427261219E+03  0.10427261219E+03  0.00000000000E+00 0. -1.
         21   -1    0    0  504  502 -0.00000000000E+00 -0.00000000000E+00 -0.93153728499E+03  0.93153728499E+03  0.00000000000E+00 0.  1.
         21    1    1    2  503  501  0.67107371107E+02  0.14810198734E+02  0.50387940883E+02  0.85215525756E+02  0.00000000000E+00 0. -1.
         21    1    1    2  504  503  0.14047700137E+03 -0.15852410573E+02 -0.23572208224E+03  0.27486357869E+03  0.00000000000E+00 0. -1.
         21    1    1    2  505  506 -0.97585804667E+02 -0.13734128592E+01 -0.24191034640E+03  0.26085530708E+03  0.00000000000E+00 0.  1.
         21    1    1    2  506  502 -0.10999856781E+03  0.24156246980E+01 -0.40002018505E+03  0.41487548567E+03  0.00000000000E+00 0.  1.
<scales pt_clust_3="68.72220" pt_clust_4="176.66464" pt_clust_5="35.80088" pt_clust_6="35.80088"></scales>
<clustering>
<clus scale="   35.801">  5  6 -1 -1</clus>
<clus scale="   68.722">  1  3  2 -1</clus>
<clus scale="  176.665">  1  4  2 -1</clus>
<clus scale="   68.722">  1  3  2 -1</clus>
</clustering>
</event>
<event>
 6    0  0.5563122E+002  0.7214084E+02  0.7546771E-02  0.1352961E+00
         21   -1    0    0  506  501  0.00000000000E+00  0.00000000000E+00  0.20918188836E+03  0.20918188836E+03  0.00000000000E+00 0.  1.
         21   -1    0    0  503  502 -0.00000000000E+00 -0.00000000000E+00 -0.18300105723E+04  0.18300105723E+04  0.00000000000E+00 0.  1.
         21    1    1    2  503  501  0.26905471959E+02  0.14933944920E+02  0.14363422476E+02  0.33959314443E+02  0.00000000000E+00 0. -1.
         21    1    1    2  504  502 -0.63384900647E+02  0.33779597908E+02 -0.17518483523E+04  0.17533200952E+04  0.00000000000E+00 0.  1.
         21    1    1    2  505  504  0.53106118156E+02 -0.10681155852E+03 -0.13952065740E+01  0.11929340057E+03  0.00000000000E+00 0.  1.
         21    1    1    2  506  505 -0.16626689468E+02  0.58098015694E+02  0.11805145250E+03  0.13261965038E+03  0.00000000000E+00 0. -1.
<scales pt_clust_3="30.77218" pt_clust_4="14000.00000" pt_clust_5="72.14084" pt_clust_6="68.23323"></scales>
<clustering>
<clus scale="   30.772">  1  3  2 -1</clus>
<clus scale="   68.233">  1  6  2 -1</clus>
<clus scale="   72.141">  1  5  2 -1</clus>
<clus scale="   30.772">  1  3  2 -1</clus>
</clustering>
</event>
<event>
 6    0  0.5563122E+002  0.3233189E+03  0.7546771E-02  0.1074132E+00
         21   -1    0    0  506  501  0.00000000000E+00  0.00000000000E+00  0.15980505818E+04  0.15980505818E+04  0.00000000000E+00 0.  1.
         21   -1    0    0  504  502 -0.00000000000E+00 -0.00000000000E+00 -0.32766080268E+03  0.32766080268E+03  0.00000000000E+00 0. -1.
         21    1    1    2  503  505 -0.10088235466E+03 -0.64834346993E+02  0.92510561475E+01  0.12027603282E+03  0.00000000000E+00 0.  1.
         21    1    1    2  504  501  0.23878264086E+03  0.23693669757E+03 -0.44906581060E+02  0.33937110846E+03  0.00000000000E+00 0. -1.
         21    1    1    2  505  502 -0.10754562939E+03 -0.14807914416E+03  0.25321696234E+02  0.18475574047E+03  0.00000000000E+00 0.  1.
         21    1    1    2  506  503 -0.30354656810E+02 -0.24023206424E+02  0.12807236078E+04  0.12813085027E+04  0.00000000000E+00 0.  1.
<scales pt_clust_3="44.84359" pt_clust_4="318.52851" pt_clust_5="44.84359" pt_clust_6="38.71072"></scales>
<clustering>
<clus scale="   38.711">  1  6  2 -1</clus>
<clus scale="   44.844">  3  5 -1 -1</clus>
<clus scale="  318.529">  2  4  1 -1</clus>
<clus scale="   38.711">  1  3  2 -1</clus>
</clustering>
</event>
<event>
 6    0  0.5563122E+002  0.1091272E+03  0.7546771E-02  0.1262195E+00
         21   -1    0    0  504  501  0.00000000000E+00  0.00000000000E+00  0.13271337125E+03  0.13271337125E+03  0.00000000000E+00 0.  1.
         21   -1    0    0  503  502 -0.00000000000E+00 -0.00000000000E+00 -0.27188178410E+03  0.27188178410E+03  0.00000000000E+00 0.  1.
         21    1    1    2  503  501 -0.89200441973E+02 -0.12685229423E+03 -0.24216638899E+02  0.15695435324E+03  0.00000000000E+00 0.  1.
         21    1    1    2  504  505  0.57964581283E+02  0.10083485916E+02 -0.39477728553E+01  0.58967400163E+02  0.00000000000E+00 0.  1.
         21    1    1    2  505  506 -0.15600625154E+01  0.84988429660E+02 -0.20712574816E+02  0.87489872138E+02  0.00000000000E+00 0.  1.
         21    1    1    2  506  502  0.32795923206E+02  0.31780378658E+02 -0.90291426279E+02  0.10118352982E+03  0.00000000000E+00 0.  1.
<scales pt_clust_3="109.12724" pt_clust_4="65.73848" pt_clust_5="14000.00000" pt_clust_6="45.66799"></scales>
<clustering>
<clus scale="   45.668">  2  6  1 -1</clus>
<clus scale="   65.738">  1  4  2 -1</clus>
<clus scale="  109.127">  1  3  2 -1</clus>
<clus scale="   65.738">  1  3  2 -1</clus>
</clustering>
</event>
<event>
 6    0  0.5563122E+002  0.1178896E+03  0.7546771E-02  0.1246620E+00
         21   -1    0    0  504  501  0.00000000000E+00  0.00000000000E+00  0.13265170233E+04  0.13265170233E+04  0.00000000000E+00 0. -1.
         21   -1    0    0  505  502 -0.00000000000E+00 -0.00000000000E+00 -0.16105518349E+04  0.16105518349E+04  0.00000000000E+00 0.  1.
         21    1    1    2  503  501  0.40900921047E+02 -0.11079292848E+03  0.13182761259E+04  0.13235557798E+04  0.00000000000E+00 0. -1.
         21    1    1    2  504  506  0.16676096339E+02  0.74681041951E+02 -0.66528816441E+03  0.66967431780E+03  0.00000000000E+00 0.  1.
         21    1    1    2  505  503 -0.29974479351E+02  0.61416624621E+01 -0.77072911123E+02  0.82924200684E+02  0.00000000000E+00 0.  1.
         21    1    1    2  506  502 -0.27602538034E+02  0.29970224065E+02 -0.85994986195E+03  0.86091455994E+03  0.00000000000E+00 0.  1.
<scales pt_clust_3="117.88958" pt_clust_4="14000.00000" pt_clust_5="30.59721" pt_clust_6="55.61642"></scales>
<clustering>
<clus scale="   30.597">  2  5  1 -1</clus>
<clus scale="   55.616">  2  6  1 -1</clus>
<clus scale="  117.890">  1  3  2 -1</clus>
<clus scale="  117.890">  1  3  2 -1</clus>
</clustering>
</event>
<event>
 6    0  0.5563122E+002  0.1227312E+03  0.7546771E-02  0.1238658E+00
         21   -1    0    0  503  501  0.00000000000E+00  0.00000000000E+00  0.43890246407E+03  0.43890246407E+03  0.00000000000E+00 0.  1.
         21   -1    0    0  506  502 -0.00000000000E+00 -0.00000000000E+00 -0.12851547770E+04  0.12851547770E+04  0.00000000000E+00 0. -1.
         21    1    1    2  503  504 -0.52095611473E+02 -0.58094154044E+02  0.11681096947E+03  0.14047663883E+03  0.00000000000E+00 0.  1.
         21    1    1    2  504  502 -0.39426816516E+02 -0.62175244107E+02 -0.12502562831E+04  0.12524220568E+04  0.00000000000E+00 0. -1.
         21    1    1    2  505  501  0.84597760031E+02  0.71007420003E+02  0.23140727045E+03  0.25641403923E+03  0.00000000000E+00 0.  1.
         21    1    1    2  506  505  0.69246679577E+01  0.49261978148E+02  0.55785730237E+02  0.74744506256E+02  0.00000000000E+00 0.  1.
<scales pt_clust_3="103.52717" pt_clust_4="73.62224" pt_clust_5="44.23842" pt_clust_6="44.23842"></scales>
<clustering>
<clus scale="   44.238">  5  6 -1 -1</clus>
<clus scale="   73.622">  2  4  1 -1</clus>
<clus scale="  103.527">  1  3  2 -1</clus>
<clus scale="  103.527">  1  3  2 -1</clus>
</clustering>
</event>
<event>
 6    0  0.5563122E+002  0.8637658E+02  0.7546771E-02  0.1311871E+00
         21   -1    0    0  505  501  0.00000000000E+00  0.00000000000E+00  0.18077978438E+03  0.18077978438E+03  0.00000000000E+00 0. -1.
         21   -1    0    0  504  502 -0.00000000000E+00 -0.00000000000E+00 -0.14237687192E+03  0.14237687192E+03  0.00000000000E+00 0. -1.
         21    1    1    2  503  502  0.23509334568E+02 -0.39633791852E+02  0.36719472073E+01  0.46227799695E+02  0.00000000000E+00 0. -1.
         21    1    1    2  504  506  0.35467274547E+02 -0.54878139588E+02 -0.74549156609E+02  0.99131803774E+02  0.00000000000E+00 0. -1.
         21    1    1    2  505  503  0.13405629307E+02  0.57326414967E+02  0.45741196899E+02  0.74553912331E+02  0.00000000000E+00 0. -1.
         21    1    1    2  506  501 -0.72382238421E+02  0.37185516473E+02  0.63538924967E+02  0.10324314050E+03  0.00000000000E+00 0. -1.
<scales pt_clust_3="46.08173" pt_clust_4="86.37658" pt_clust_5="55.04980" pt_clust_6="14000.00000"></scales>
<clustering>
<clus scale="   46.082">  2  3  1 -1</clus>
<clus scale="   55.050">  1  5  2 -1</clus>
<clus scale="   86.377">  2  4  1 -1</clus>
<clus scale="   55.050">  1  3  2 -1</clus>
</clustering>
</event>
<event>
 6    0  0.5563122E+002  0.2334970E+03  0.7546771E-02  0.1124202E+00
         21   -1    0    0  502  501  0.00000000000E+00  0.00000000000E+00  0.24124204780E+04  0.24124204780E+04  0.00000000000E+00 0.  1.
         21   -1    0    0  506  502 -0.00000000000E+00 -0.00000000000E+00 -0.31969143798E+03  0.31969143798E+03  0.00000000000E+00 0. -1.
         21    1    1    2  503  501  0.33369703969E+02  0.53492538683E+02  0.19863345524E+04  0.19873348845E+04  0.00000000000E+00 0.  1.
         21    1    1    2  504  505 -0.53115196019E+02 -0.21343496114E+03 -0.16922031444E+03  0.27750895752E+03  0.00000000000E+00 0. -1.
         21    1    1    2  505  503 -0.69573129051E+02  0.19535093509E+03  0.30317609564E+03  0.36731206500E+03  0.00000000000E+00 0.  1.
         21    1    1    2  506  504  0.89318621101E+02 -0.35408512641E+02 -0.27561293560E+02  0.99956009052E+02  0.00000000000E+00 0. -1.
<scales pt_clust_3="63.04751" pt_clust_4="14000.00000" pt_clust_5="233.49696" pt_clust_6="97.18613"></scales>
<clustering>
<clus scale="   63.048">  1  3  2 -1</clus>
<clus scale="   97.186">  2  6  1 -1</clus>
<clus scale="  233.497">  1  5  2 -1</clus>
<clus scale="   63.048">  1  3  2 -1</clus>
</clustering>
</event>
<event>
 6    0  0.5563122E+002  0.5592235E+02  0.7546771E-02  0.1415787E+00
         21   -1    0    0  503  501  0.00000000000E+00  0.00000000000E+00  0.14167982207E+03  0.14167982207E+03  0.00000000000E+00 0.  1.
         21   -1    0    0  506  502 -0.00000000000E+00 -0.00000000000E+00 -0.83478364180E+03  0.83478364180E+03  0.00000000000E+00 0.  1.
         21    1    1    2  503  504  0.43270726405E+02 -0.31346935377E+02  0.10209952963E+03  0.11523584543E+03  0.00000000000E+00 0.  1.
         21    1    1    2  504  502  0.74617901921E+02  0.31624639758E+01 -0.64742511147E+03  0.65171857994E+03  0.00000000000E+00 0.  1.
         21    1    1    2  505  501 -0.75936448279E+02  0.58251354306E+02 -0.83002783597E+02  0.12668475260E+03  0.00000000000E+00 0.  1.
         21    1    1    2  506  505 -0.41952180046E+02 -0.30066882905E+02 -0.64775454282E+02  0.82824285905E+02  0.00000000000E+00 0.  1.
<scales pt_clust_3="14000.00000" pt_clust_4="44.85980" pt_clust_5="55.92235" pt_clust_6="51.61398"></scales>
<clustering>
<clus scale="   51.614">  2  6  1 -1</clus>
<clus scale="   44.860">  2  4  1 -1</clus>
<clus scale="   55.922">  2  5  1 -1</clus>
<clus scale="   55.922">  1  3  2 -1</clus>
</clustering>
</event>
<event>
 6    0  0.5563122E+002  0.1109768E+03  0.7546771E-02  0.1258772E+00
         21   -1    0    0  502  501  0.00000000000E+00  0.00000000000E+00  0.22704196368E+03  0.22704196368E+03  0.00000000000E+00 0.  1.
         21   -1    0    0  505  502 -0.00000000000E+00 -0.00000000000E+00 -0.16342644689E+04  0.16342644689E+04  0.00000000000E+00 0.  1.
         21    1    1    2  503  506  0.17799150625E+02 -0.86972219779E+02 -0.89912368694E+03  0.90349564537E+03  0.00000000000E+00 0.  1.
         21    1    1    2  504  501 -0.58765281117E+02  0.51064576620E+02  0.20407153066E+03  0.21841735022E+03  0.00000000000E+00 0.  1.
         21    1    1    2  505  503 -0.16042658866E+01 -0.77054079884E+02 -0.24218656764E+03  0.25415396601E+03  0.00000000000E+00 0.  1.
         21    1    1    2  506  504  0.42570396378E+02  0.11296172304E+03 -0.46998378128E+03  0.48523947097E+03  0.00000000000E+00 0.  1.
<scales pt_clust_3="110.97683" pt_clust_4="77.59742" pt_clust_5="77.07078" pt_clust_6="14000.00000"></scales>
<clustering>
<clus scale="   77.071">  2  5  1 -1</clus>
<clus scale="   77.597">  1  4  2 -1</clus>
<clus scale="  110.977">  2  3  1 -1</clus>
<clus scale="   77.597">  1  3  2 -1</clus>
</clustering>
</event>
<event>
 6    0  0.5563122E+002  0.1127800E+03  0.7546771E-02  0.1255507E+00
         21   -1    0    0  504  501  0.00000000000E+00  0.00000000000E+00  0.71945829419E+03  0.71945829419E+03  0.00000000000E+00 0. -1.
         21   -1    0    0  503  502 -0.00000000000E+00 -0.00000000000E+00 -0.28622538057E+03  0.28622538057E+03  0.00000000000E+00 0.  1.
         21    1    1    2  503  506 -0.45415268817E+02  0.17852877544E+02 -0.62429251300E+02  0.79238142938E+02  0.00000000000E+00 0. -1.
         21    1    1    2  504  502  0.51963003963E+02  0.17673499968E+02 -0.23553759810E+01  0.54936819875E+02  0.00000000000E+00 0. -1.
         21    1    1    2  505  501  0.13231154438E+02 -0.11289015015E+03  0.67122503333E+03  0.68078065103E+03  0.00000000000E+00 0. -1.
         21    1    1    2  506  505 -0.19778889583E+02  0.77363772639E+02 -0.17320749242E+03  0.19072806092E+03  0.00000000000E+00 0.  1.
<scales pt_clust_3="48.79828" pt_clust_4="50.10825" pt_clust_5="14000.00000" pt_clust_6="112.77996"></scales>
<clustering>
<clus scale="   48.798">  2  3  1 -1</clus>
<clus scale="   50.108">  2  4  1 -1</clus>
<clus scale="  112.780">  2  6  1 -1</clus>
<clus scale="  112.780">  1  3  2 -1</clus>
</clustering>
</event>
<event>
 6    0  0.5563122E+002  0.1275781E+03  0.7546771E-02  0.1231094E+00
         21   -1    0    0  505  501  0.00000000000E+00  0.00000000000E+00  0.20866798786E+03  0.20866798786E+03  0.00000000000E+00 0. -1.
         21   -1    0    0  504  502 -0.00000000000E+00 -0.00000000000E+00 -0.70503130363E+03  0.70503130363E+03  0.00000000000E+00 0. -1.
         21    1    1    2  503  501  0.14901842272E+02  0.66600366691E+02  0.35561612508E+02  0.76956494402E+02  0.00000000000E+00 0. -1.
         21    1    1    2  504  503 -0.12755150200E+03  0.23821521046E+02 -0.63287553341E+03  0.64604047188E+03  0.00000000000E+00 0. -1.
         21    1    1    2  505  506  0.38290184440E+02 -0.23197323512E+02 -0.47590681032E+01  0.45021136945E+02  0.00000000000E+00 0.  1.
         21    1    1    2  506  502  0.74359475291E+02 -0.67224564224E+02  0.10570967323E+03  0.14568118827E+03  0.00000000000E+00 0. -1.
<scales pt_clust_3="65.22763" pt_clust_4="127.57811" pt_clust_5="44.76890" pt_clust_6="14000.00000"></scales>
<clustering>
<clus scale="   44.769">  1  5  2 -1</clus>
<clus scale="   65.228">  1  3  2 -1</clus>
<clus scale="  127.578">  2  4  1 -1</clus>
<clus scale="   44.769">  1  3  2 -1</clus>
</clustering>
</event>
<event>
 6    0  0.5563122E+002  0.1884154E+03  0.7546771E-02  0.1159898E+00
         21   -1    0    0  503  501  0.00000000000E+00  0.00000000000E+00  0.16597444646E+04  0.16597444646E+04  0.00000000000E+00 0.  1.
         21   -1    0    0  506  502 -0.00000000000E+00 -0.00000000000E+00 -0.20779934762E+03  0.20779934762E+03  0.00000000000E+00 0. -1.
         21    1    1    2  503  502  0.83718439441E+02 -0.10721071560E+03 -0.15931252833E+03  0.20948364214E+03  0.00000000000E+00 0. -1.
         21    1    1    2  504  501 -0.21525087937E+03  0.18361580643E+02  0.10318226507E+04  0.10541954616E+04  0.00000000000E+00 0.  1.
         21    1    1    2  505  504  0.82646501016E+02  0.27820016561E+02  0.23480574427E+03  0.25047581719E+03  0.00000000000E+00 0.  1.
         21    1    1    2  506  505  0.48885938912E+02  0.61029118400E+02  0.34462925029E+03  0.35338889127E+03  0.00000000000E+00 0.  1.
<scales pt_clust_3="136.02542" pt_clust_4="178.29085" pt_clust_5="57.69899" pt_clust_6="57.69899"></scales>
<clustering>
<clus scale="   57.699">  5  6 -1 -1</clus>
<clus scale="  136.025">  2  3  1 -1</clus>
<clus scale="  178.291">  1  4  2 -1</clus>
<clus scale="  178.291">  1  3  2 -1</clus>
</clustering>
</event>
<event>
 6    0  0.5563122E+002  0.1718136E+03  0.7546771E-02  0.1175970E+00
         21   -1    0    0  503  501  0.00000000000E+00  0.00000000000E+00  0.11992805931E+04  0.11992805931E+04  0.00000000000E+00 0. -1.
         21   -1    0    0  505  502 -0.00000000000E+00 -0.00000000000E+00 -0.11958953554E+03  0.11958953554E+03  0.00000000000E+00 0.  1.
         21    1    1    2  503  506  0.73741087026E+01 -0.35782545981E+02  0.53126355114E+02  0.64476179196E+02  0.00000000000E+00 0. -1.
         21    1    1    2  504  501 -0.15533909203E+03 -0.50927124045E+02  0.10072939247E+04  0.10204728591E+04  0.00000000000E+00 0. -1.
         21    1    1    2  505  504  0.11115646666E+02 -0.42545805014E+02 -0.44181184705E+01  0.44195281376E+02  0.00000000000E+00 0.  1.
         21    1    1    2  506  502  0.13684933666E+03  0.12925547504E+03  0.23688896218E+02  0.18972580894E+03  0.00000000000E+00 0.  1.
<scales pt_clust_3="36.53448" pt_clust_4="171.81361" pt_clust_5="44.61015" pt_clust_6="14000.00000"></scales>
<clustering>
<clus scale="   36.534">  1  3  2 -1</clus>
<clus scale="   44.610">  2  5  1 -1</clus>
<clus scale="  171.814">  1  4  2 -1</clus>
<clus scale="   36.534">  1  3  2 -1</clus>
</clustering>
</event>
<event>
 6    0  0.5563122E+002  0.1165084E+03  0.7546771E-02  0.1248971E+00
         21   -1    0    0  504  501  0.00000000000E+00  0.00000000000E+00  0.10478718281E+03  0.10478718281E+03  0.00000000000E+00 0. -1.
         21   -1    0    0  506  502 -0.00000000000E+00 -0.00000000000E+00 -0.57498068662E+03  0.57498068662E+03  0.00000000000E+00 0. -1.
         21    1    1    2  503  505 -0.51949134968E+02  0.35571614639E+02 -0.61353164698E+02  0.87910540952E+02  0.00000000000E+00 0. -1.
         21    1    1    2  504  502 -0.10424986379E+03 -0.18197466687E+02 -0.27138045405E+03  0.29128428164E+03  0.00000000000E+00 0. -1.
         21    1    1    2  505  501  0.92690026367E+00  0.34781851924E+02  0.44016353699E+02  0.56107715693E+02  0.00000000000E+00 0. -1.
         21    1    1    2  506  503  0.15527209849E+03 -0.52155999876E+02 -0.18147623876E+03  0.24446533114E+03  0.00000000000E+00 0. -1.
<scales pt_clust_3="67.91451" pt_clust_4="14000.00000" pt_clust_5="34.79420" pt_clust_6="116.50837"></scales>
<clustering>
<clus scale="   34.794">  1  5  2 -1</clus>
<clus scale="   67.915">  1  3  2 -1</clus>
<clus scale="  116.508">  1  6  2 -1</clus>
<clus scale="   34.794">  1  3  2 -1</clus>
</clustering>
</event>
<event>
 6    0  0.5563122E+002  0.6812962E+02  0.7546771E-02  0.1366571E+00
         21   -1    0    0  503  501  0.00000000000E+00  0.00000000000E+00  0.50512851298E+03  0.50512851298E+03  0.00000000000E+00 0. -1.
         21   -1    0    0  504  502 -0.00000000000E+00 -0.00000000000E+00 -0.38234485857E+03  0.38234485857E+03  0.00000000000E+00 0. -1.
         21    1    1    2  503  506  0.39757914923E+02  0.64255993150E+00  0.15914171085E+02  0.42829493618E+02  0.00000000000E+00 0. -1.
         21    1    1    2  504  505 -0.31276326537E+02  0.34717251511E+02 -0.32635948457E+03  0.32968774518E+03  0.00000000000E+00 0. -1.
         21    1    1    2  505  501 -0.45823659547E+02  0.55155166990E+02  0.40743972411E+03  0.41370161832E+03  0.00000000000E+00 0. -1.
         21    1    1    2  506  502  0.37342071161E+02 -0.90514978432E+02  0.25789243774E+02  0.10125451444E+03  0.00000000000E+00 0. -1.
<scales pt_clust_3="39.76311" pt_clust_4="46.63660" pt_clust_5="14000.00000" pt_clust_6="68.12962"></scales>
<clustering>
<clus scale="   39.763">  1  3  2 -1</clus>
<clus scale="   46.637">  2  4  1 -1</clus>
<clus scale="   68.130">  2  6  1 -1</clus>
<clus scale="   39.763">  1  3  2 -1</clus>
</clustering>
</event>
<event>
 6    0  0.5563122E+002  0.1195727E+03  0.7546771E-02  0.1243804E+00
         21   -1    0    0  504  501  0.00000000000E+00  0.00000000000E+00  0.35246500544E+03  0.35246500544E+03  0.00000000000E+00 0. -1.
         21   -1    0    0  503  502 -0.00000000000E+00 -0.00000000000E+00 -0.30676127650E+03  0.30676127650E+03  0.00000000000E+00 0. -1.
         21    1    1    2  503  506 -0.17048800934E+03 -0.28503655091E+02 -0.18493698109E+03  0.25314088302E+03  0.00000000000E+00 0. -1.
         21    1    1    2  504  505  0.74605176977E+02 -0.11455176410E+02  0.25234452375E+02  0.79585998046E+02  0.00000000000E+00 0. -1.
         21    1    1    2  505  502  0.28139521164E+02  0.59243872694E+02 -0.36145681631E+02  0.74887778734E+02  0.00000000000E+00 0. -1.
         21    1    1    2  506  501  0.67743311196E+02 -0.19285041193E+02  0.24155193928E+03  0.25161162214E+03  0.00000000000E+00 0. -1.
<scales pt_clust_3="119.57273" pt_clust_4="14000.00000" pt_clust_5="65.58711" pt_clust_6="70.66380"></scales>
<clustering>
<clus scale="   65.587">  2  5  1 -1</clus>
<clus scale="   70.664">  1  6  2 -1</clus>
<clus scale="  119.573">  2  3  1 -1</clus>
<clus scale="   70.664">  1  3  2 -1</clus>
</clustering>
</event>
<event>
 6    0  0.5563122E+002  0.1286057E+03  0.7546771E-02  0.1229539E+00
         21   -1    0    0  503  501  0.00000000000E+00  0.00000000000E+00  0.64933262329E+03  0.64933262329E+03  0.00000000000E+00 0.  1.
         21   -1    0    0  506  502 -0.00000000000E+00 -0.00000000000E+00 -0.31492045705E+03  0.31492045705E+03  0.00000000000E+00 0.  1.
         21    1    1    2  503  504 -0.10991499644E+02 -0.12992449967E+03  0.59349577153E+03  0.60764991525E+03  0.00000000000E+00 0.  1.
         21    1    1    2  504  502  0.10126807528E+03  0.70134187699E+02 -0.17479023955E+03  0.21383557982E+03  0.00000000000E+00 0.  1.
         21    1    1    2  505  501 -0.64941953516E+02  0.20241475998E+02 -0.54320731386E+02  0.87051229373E+02  0.00000000000E+00 0.  1.
         21    1    1    2  506  505 -0.25334622117E+02  0.39548835976E+02 -0.29972634345E+02  0.55716355897E+02  0.00000000000E+00 0.  1.
<scales pt_clust_3="128.60575" pt_clust_4="14000.00000" pt_clust_5="115.22678" pt_clust_6="32.74023"></scales>
<clustering>
<clus scale="   32.740">  5  6 -1 -1</clus>
<clus scale="  115.227">  2  5  1 -1</clus>
<clus scale="  128.606">  1  3  2 -1</clus>
<clus scale="  128.606">  1  3  2 -1</clus>
</clustering>
</event>
<event>
 6    0  0.5563122E+002  0.1159673E+03  0.7546771E-02  0.1249902E+00
         21   -1    0    0  503  501  0.00000000000E+00  0.00000000000E+00  0.11269897093E+04  0.11269897093E+04  0.00000000000E+00 0.  1.
         21   -1    0    0  505  502 -0.00000000000E+00 -0.00000000000E+00 -0.23143647086E+04  0.23143647086E+04  0.00000000000E+00 0.  1.
         21    1    1    2  503  504 -0.23237499861E+02 -0.11376413184E+03  0.11092477079E+04  0.11153083594E+04  0.00000000000E+00 0.  1.
         21    1    1    2  504  506  0.80686774762E+02  0.77970890794E+02 -0.47799958633E+03  0.49099228096E+03  0.00000000000E+00 0.  1.
         21    1    1    2  505  501 -0.27571593501E+02  0.16140756259E+02 -0.23712473981E+02  0.39786909946E+02  0.00000000000E+00 0.  1.
         21    1    1    2  506  502 -0.29877681400E+02  0.19652484784E+02 -0.17949106468E+04  0.17952668676E+04  0.00000000000E+00 0.  1.
<scales pt_clust_3="115.96728" pt_clust_4="14000.00000" pt_clust_5="31.94866" pt_clust_6="60.86655"></scales>
<clustering>
<clus scale="   31.949">  2  5  1 -1</clus>
<clus scale="   60.867">  2  6  1 -1</clus>
<clus scale="  115.967">  1  3  2 -1</clus>
<clus scale="  115.967">  1  3  2 -1</clus>
</clustering>
</event>
<event>
 6    0  0.5563122E+002  0.8216333E+02  0.7546771E-02  0.1323022E+00
         21   -1    0    0  506  501  0.00000000000E+00  0.00000000000E+00  0.22780779796E+02  0.22780779796E+02  0.00000000000E+00 0.  1.
         21   -1    0    0  503  502 -0.00000000000E+00 -0.00000000000E+00 -0.16231981478E+04  0.16231981478E+04  0.00000000000E+00 0. -1.
         21    1    1    2  503  504  0.51351125775E+02 -0.50422359026E+02 -0.62933066789E+03  0.63343227101E+03  0.00000000000E+00 0. -1.
         21    1    1    2  504  501  0.10051102345E+03  0.12323761743E+02 -0.43735661382E+03  0.44892666283E+03  0.00000000000E+00 0. -1.
         21    1    1    2  505  502 -0.75436902352E+02  0.28419018896E+02 -0.41013813369E+03  0.41798523368E+03  0.00000000000E+00 0.  1.
         21    1    1    2  506  505 -0.76425246877E+02  0.96795783862E+01 -0.12359195265E+03  0.14563476013E+03  0.00000000000E+00 0.  1.
<scales pt_clust_3="71.96772" pt_clust_4="14000.00000" pt_clust_5="54.49940" pt_clust_6="82.16333"></scales>
<clustering>
<clus scale="   71.968">  2  3  1 -1</clus>
<clus scale="   54.499">  2  5  1 -1</clus>
<clus scale="   82.163">  1  6  2 -1</clus>
<clus scale="   82.163">  1  3  2 -1</clus>
</clustering>
</event>
<event>
 6    0  0.5563122E+002  0.1067853E+03  0.7546771E-02  0.1266641E+00
         21   -1    0    0  506  501  0.00000000000E+00  0.00000000000E+00  0.66009695387E+03  0.66009695387E+03  0.00000000000E+00 0. -1.
         21   -1    0    0  503  502 -0.00000000000E+00 -0.00000000000E+00 -0.10263764535E+04  0.10263764535E+04  0.00000000000E+00 0. -1.
         21    1    1    2  503  504  0.11181434193E+03 -0.82296993172E+02  0.38057279331E+03  0.40510602705E+03  0.00000000000E+00 0. -1.
         21    1    1    2  504  501  0.14759745689E+02  0.36320073122E+02  0.11987168399E+03  0.12611985738E+03  0.00000000000E+00 0. -1.
         21    1    1    2  505  502 -0.37453897878E+02  0.73669359712E+02 -0.99399649562E+03  0.99742618892E+03  0.00000000000E+00 0. -1.
         21    1    1    2  506  505 -0.89120189746E+02 -0.27692439662E+02  0.12727251873E+03  0.15782133398E+03  0.00000000000E+00 0. -1.
<scales pt_clust_3="106.78532" pt_clust_4="39.20456" pt_clust_5="82.72569" pt_clust_6="14000.00000"></scales>
<clustering>
<clus scale="   39.205">  1  4  2 -1</clus>
<clus scale="   82.726">  2  5  1 -1</clus>
<clus scale="  106.785">  1  3  2 -1</clus>
<clus scale="   39.205">  1  3  2 -1</clus>
</clustering>
</event>
<event>
 6    0  0.5563122E+002  0.8894599E+02  0.7546771E-02  0.1305424E+00
         21   -1    0    0  504  501  0.00000000000E+00  0.00000000000E+00  0.48997799816E+03  0.48997799816E+03  0.00000000000E+00 0.  1.
         21   -1    0    0  503  502 -0.00000000000E+00 -0.00000000000E+00 -0.10860026066E+03  0.10860026066E+03  0.00000000000E+00 0. -1.
         21    1    1    2  503  501 -0.34574580810E+02  0.13342104426E+02 -0.24849736264E+02  0.44619757744E+02  0.00000000000E+00 0. -1.
         21    1    1    2  504  506  0.74546692205E+02 -0.31899792895E+02  0.12638016655E+03  0.15015576114E+03  0.00000000000E+00 0.  1.
         21    1    1    2  505  502 -0.37284376326E+02 -0.76828868720E+02 -0.21203165153E+02  0.87990760875E+02  0.00000000000E+00 0. -1.
         21    1    1    2  506  505 -0.26877350690E+01  0.95386557189E+02  0.30105047236E+03  0.31581197906E+03  0.00000000000E+00 0.  1.
<scales pt_clust_3="37.05959" pt_clust_4="75.12505" pt_clust_5="88.94599" pt_clust_6="14000.00000"></scales>
<clustering>
<clus scale="   37.060">  2  3  1 -1</clus>
<clus scale="   75.125">  1  4  2 -1</clus>
<clus scale="   88.946">  2  5  1 -1</clus>
<clus scale="   75.125">  1  3  2 -1</clus>
</clustering>
</event>
<event>
 6    0  0.5563122E+002  0.1105020E+03  0.7546771E-02  0.1259643E+00
         21   -1    0    0  503  501  0.00000000000E+00  0.00000000000E+00  0.14771119042E+03  0.14771119042E+03  0.00000000000E+00 0.  1.
         21   -1    0    0  506  502 -0.00000000000E+00 -0.00000000000E+00 -0.67608900691E+03  0.67608900691E+03  0.00000000000E+00 0. -1.
         21    1    1    2  503  505  0.22017252132E+01  0.31287206703E+02  0.50988700091E+02  0.59863047318E+02  0.00000000000E+00 0.  1.
         21    1    1    2  504  502 -0.83949845919E+02 -0.68290718615E+02 -0.46968377567E+03  0.48198967624E+03  0.00000000000E+00 0. -1.
         21    1    1    2  505  504  0.44498374894E+02  0.14098706324E+03 -0.77369623479E+02  0.16686376481E+03  0.00000000000E+00 0.  1.
         21    1    1    2  506  501  0.37249745813E+02 -0.10398355133E+03 -0.32313117431E+02  0.11508370896E+03  0.00000000000E+00 0.  1.
<scales pt_clust_3="31.36458" pt_clust_4="14000.00000" pt_clust_5="110.50202" pt_clust_6="97.74245"></scales>
<clustering>
<clus scale="   31.365">  1  3  2 -1</clus>
<clus scale="   97.742">  1  6  2 -1</clus>
<clus scale="  110.502">  1  5  2 -1</clus>
<clus scale="   31.365">  1  3  2 -1</clus>
</clustering>
</event>
<event>
 6    0  0.5563122E+002  0.8340968E+02  0.7546771E-02  0.1319645E+00
         21   -1    0    0  504  501  0.00000000000E+00  0.00000000000E+00  0.52665210400E+03  0.52665210400E+03  0.00000000000E+00 0.  1.
         21   -1    0    0  503  502 -0.00000000000E+00 -0.00000000000E+00 -0.13579717913E+03  0.13579717913E+03  0.00000000000E+00 0.  1.
         21    1    1    2  503  506  0.22006938859E+02 -0.91251817257E+02 -0.24233877469E+02  0.96945759721E+02  0.00000000000E+00 0.  1.
         21    1    1    2  504  505  0.62562230302E+02  0.18113397056E+02  0.37879639575E+02  0.75345835370E+02  0.00000000000E+00 0.  1.
         21    1    1    2  505  502 -0.46446101550E+02  0.63151594374E+02 -0.27845067345E+02  0.83190816780E+02  0.00000000000E+00 0.  1.
         21    1    1    2  506  501 -0.38123067611E+02  0.99868258273E+01  0.40505423011E+03  0.40696687126E+03  0.00000000000E+00 0.  1.
<scales pt_clust_3="14000.00000" pt_clust_4="50.15437" pt_clust_5="83.40968" pt_clust_6="39.40945"></scales>
<clustering>
<clus scale="   39.409">  1  6  2 -1</clus>
<clus scale="   50.154">  1  4  2 -1</clus>
<clus scale="   83.410">  2  5  1 -1</clus>
<clus scale="   39.409">  1  3  2 -1</clus>
</clustering>
</event>
<event>
 6    0  0.5563122E+002  0.1529787E+03  0.7546771E-02  0.1196860E+00
         21   -1    0    0  505  501  0.00000000000E+00  0.00000000000E+00  0.57425354505E+03  0.57425354505E+03  0.00000000000E+00 0. -1.
         21   -1    0    0  503  502 -0.00000000000E+00 -0.00000000000E+00 -0.57286528653E+03  0.57286528653E+03  0.00000000000E+00 0.  1.
         21    1    1    2  503  504  0.10065477345E+03  0.85798876757E+02  0.49028776702E+02  0.14105549126E+03  0.00000000000E+00 0.  1.
         21    1    1    2  504  501 -0.52258497994E+02  0.84304099226E+02  0.82338585640E+02  0.12890994703E+03  0.00000000000E+00 0. -1.
         21    1    1    2  505  506 -0.12172437159E+03 -0.31033097559E+02  0.35011721124E+03  0.37197034477E+03  0.00000000000E+00 0. -1.
         21    1    1    2  506  502  0.73328096135E+02 -0.13906987842E+03 -0.48009631507E+03  0.50518304852E+03  0.00000000000E+00 0.  1.
<scales pt_clust_3="136.73998" pt_clust_4="99.18736" pt_clust_5="14000.00000" pt_clust_6="152.97866"></scales>
<clustering>
<clus scale="   99.187">  1  4  2 -1</clus>
<clus scale="  136.740">  1  3  2 -1</clus>
<clus scale="  152.979">  2  6  1 -1</clus>
<clus scale="   99.187">  1  3  2 -1</clus>
</clustering>
</event>
<event>
 6    0  0.5563122E+002  0.8725538E+02  0.7546771E-02  0.1309638E+00
         21   -1    0    0  506  501  0.00000000000E+00  0.00000000000E+00  0.91938141464E+02  0.91938141464E+02  0.00000000000E+00 0.  1.
         21   -1    0    0  504  502 -0.00000000000E+00 -0.00000000000E+00 -0.19681462894E+04  0.19681462894E+04  0.00000000000E+00 0.  1.
         21    1    1    2  503  502 -0.32540175326E+02 -0.21793899832E+02 -0.28681226963E+03  0.28947385908E+03  0.00000000000E+00 0.  1.
         21    1    1    2  504  505  0.40936444587E+01  0.68588012638E+02 -0.10195129237E+04  0.10218256579E+04  0.00000000000E+00 0.  1.
         21    1    1    2  505  501  0.78507829925E+02 -0.11599286107E+03 -0.62932785548E+03  0.64472581216E+03  0.00000000000E+00 0.  1.
         21    1    1    2  506  503 -0.50061299057E+02  0.69198748266E+02  0.59444900882E+02  0.10405910179E+03  0.00000000000E+00 0.  1.
<scales pt_clust_3="39.16423" pt_clust_4="57.52443" pt_clust_5="87.25538" pt_clust_6="14000.00000"></scales>
<clustering>
<clus scale="   39.164">  2  3  1 -1</clus>
<clus scale="   57.524">  2  4  1 -1</clus>
<clus scale="   87.255">  2  5  1 -1</clus>
<clus scale="   87.255">  1  3  2 -1</clus>
</clustering>
</event>
<event>
 6    0  0.5563122E+002  0.1238075E+03  0.7546771E-02  0.1236945E+00
         21   -1    0    0  505  501  0.00000000000E+00  0.00000000000E+00  0.14104232456E+04  0.14104232456E+04  0.00000000000E+00 0. -1.
         21   -1    0    0  506  502 -0.00000000000E+00 -0.00000000000E+00 -0.21016368501E+03  0.21016368501E+03  0.00000000000E+00 0.  1.
         21    1    1    2  503  501  0.11053632394E+03 -0.16286544889E+02  0.13765267354E+04  0.13810537223E+04  0.00000000000E+00 0. -1.
         21    1    1    2  504  502 -0.60456892350E+02  0.68752908807E+01 -0.55274006291E+02  0.82204143622E+02  0.00000000000E+00 0.  1.
         21    1    1    2  505  504 -0.28074866365E+02  0.48302391004E+02 -0.68347869878E+02  0.88276556429E+02  0.00000000000E+00 0. -1.
         21    1    1    2  506  503 -0.22004565221E+02 -0.38891136995E+02 -0.52645298670E+02  0.69052508277E+02  0.00000000000E+00 0.  1.
<scales pt_clust_3="111.48744" pt_clust_4="44.34153" pt_clust_5="44.34153" pt_clust_6="44.68469"></scales>
<clustering>
<clus scale="   44.685">  2  6  1 -1</clus>
<clus scale="   44.342">  4  5 -1 -1</clus>
<clus scale="  111.487">  1  3  2 -1</clus>
<clus scale="  111.487">  1  3  2 -1</clus>
</clustering>
</event>
<event>
 6    0  0.5563122E+002  0.1587652E+03  0.7546771E-02  0.1190098E+00
         21   -1    0    0  503  501  0.00000000000E+00  0.00000000000E+00  0.41793402347E+03  0.41793402347E+03  0.00000000000E+00 0.  1.
         21   -1    0    0  505  502 -0.00000000000E+00 -0.00000000000E+00 -0.12086062783E+03  0.12086062783E+03  0.00000000000E+00 0.  1.
         21    1    1    2  503  504 -0.31692419511E+02 -0.35922976143E+01  0.15899638055E+03  0.16216400058E+03  0.00000000000E+00 0.  1.
         21    1    1    2  504  502 -0.56283032335E+02 -0.13845411543E+03 -0.10171483343E+02  0.14980247288E+03  0.00000000000E+00 0.  1.
         21    1    1    2  505  506  0.54139359720E+02  0.82839520399E+02  0.61616125525E+02  0.11657616967E+03  0.00000000000E+00 0.  1.
         21    1    1    2  506  501  0.33836092126E+02  0.59206892646E+02  0.86632372906E+02  0.11025200816E+03  0.00000000000E+00 0.  1.
<scales pt_clust_3="31.89536" pt_clust_4="153.78505" pt_clust_5="32.27442" pt_clust_6="32.27442"></scales>
<clustering>
<clus scale="   31.895">  1  3  2 -1</clus>
<clus scale="   32.274">  5  6 -1 -1</clus>
<clus scale="  153.785">  2  4  1 -1</clus>
<clus scale="   31.895">  1  3  2 -1</clus>
</clustering>
</event>
<event>
 6    0  0.5563122E+002  0.1019586E+03  0.7546771E-02  0.1276230E+00
         21   -1    0    0  506  501  0.00000000000E+00  0.00000000000E+00  0.10447291006E+04  0.10447291006E+04  0.00000000000E+00 0. -1.
         21   -1    0    0  503  502 -0.00000000000E+00 -0.00000000000E+00 -0.21113467373E+03  0.21113467373E+03  0.00000000000E+00 0.  1.
         21    1    1    2  503  504  0.91488443108E+02  0.76739888268E+01 -0.23447492365E+02  0.94756584072E+02  0.00000000000E+00 0.  1.
         21    1    1    2  504  501  0.11669391742E+03  0.31819202246E+02  0.85990217123E+03  0.86836724724E+03  0.00000000000E+00 0. -1.
         21    1    1    2  505  502 -0.16989295546E+03 -0.62363262696E+02 -0.84484421452E+02  0.19972583788E+03  0.00000000000E+00 0.  1.
         21    1    1    2  506  505 -0.38289405071E+02  0.22870071623E+02  0.81624169443E+02  0.93014105135E+02  0.00000000000E+00 0.  1.
<scales pt_clust_3="90.46516" pt_clust_4="101.95864" pt_clust_5="14000.00000" pt_clust_6="44.59954"></scales>
<clustering>
<clus scale="   44.600">  1  6  2 -1</clus>
<clus scale="   90.465">  2  3  1 -1</clus>
<clus scale="  101.959">  1  4  2 -1</clus>
<clus scale="   44.600">  1  3  2 -1</clus>
</clustering>
</event>
<event>
 6    0  0.5563122E+002  0.1344719E+03  0.7546771E-02  0.1220967E+00
         21   -1    0    0  506  501  0.00000000000E+00  0.00000000000E+00  0.25568464169E+02  0.25568464169E+02  0.00000000000E+00 0. -1.
         21   -1    0    0  503  502 -0.00000000000E+00 -0.00000000000E+00 -0.27070052879E+04  0.27070052879E+04  0.00000000000E+00 0. -1.
         21    1    1    2  503  501  0.80579925537E+02 -0.49327805943E+02 -0.25966218602E+03  0.27631649913E+03  0.00000000000E+00 0. -1.
         21    1    1    2  504  502 -0.86906474871E+02  0.12149809808E+03 -0.20751547612E+04  0.20805244065E+04  0.00000000000E+00 0. -1.
         21    1    1    2  505  504 -0.19857027752E+02 -0.50738485295E+02 -0.33582487944E+03  0.34021617406E+03  0.00000000000E+00 0. -1.
         21    1    1    2  506  505  0.26183577085E+02 -0.21431806845E+02 -0.10794997064E+02  0.35516672356E+02  0.00000000000E+00 0.  1.
<scales pt_clust_3="134.47194" pt_clust_4="14000.00000" pt_clust_5="56.47137" pt_clust_6="33.83640"></scales>
<clustering>
<clus scale="   33.836">  1  6  2 -1</clus>
<clus scale="   56.471">  1  5  2 -1</clus>
<clus scale="  134.472">  1  3  2 -1</clus>
<clus scale="   33.836">  1  3  2 -1</clus>
</clustering>
</event>
<event>
 6    0  0.1185034E+003  0.8022239E+02  0.7546771E-02  0.1328422E+00
         21   -1    0    0  504  501  0.00000000000E+00  0.00000000000E+00  0.70031933078E+03  0.70031933078E+03  0.00000000000E+00 0. -1.
         21   -1    0    0  505  502 -0.00000000000E+00 -0.00000000000E+00 -0.10751996242E+04  0.10751996242E+04  0.00000000000E+00 0. -1.
         21    1    1    2  503  502  0.19331780559E+02 -0.77811650518E+02 -0.10513376332E+04  0.10543904352E+04  0.00000000000E+00 0. -1.
         21    1    1    2  504  506  0.60298184847E+02 -0.24947939186E+02  0.27186041932E+03  0.27958247148E+03  0.00000000000E+00 0. -1.
         21    1    1    2  505  501 -0.30278530010E+02  0.20250674405E+02  0.13567729838E+02  0.38871100916E+02  0.00000000000E+00 0. -1.
         21    1    1    2  506  503 -0.49351435396E+02  0.82508915298E+02  0.39102919069E+03  0.40267494739E+03  0.00000000000E+00 0. -1.
<scales pt_clust_3="14000.00000" pt_clust_4="50.72904" pt_clust_5="36.42635" pt_clust_6="80.22239"></scales>
<clustering>
<clus scale="   36.426">  1  5  2 -1</clus>
<clus scale="   50.729">  1  4  2 -1</clus>
<clus scale="   80.222">  1  6  2 -1</clus>
<clus scale="   36.426">  1  3  2 -1</clus>
</clustering>
</event>
<event>
 6    0  0.5563122E+002  0.8125711E+02  0.7546771E-02  0.1325521E+00
         21   -1    0    0  503  501  0.00000000000E+00  0.00000000000E+00  0.24607073025E+03  0.24607073025E+03  0.00000000000E+00 0. -1.
         21   -1    0    0  506  502 -0.00000000000E+00 -0.00000000000E+00 -0.27105454992E+03  0.27105454992E+03  0.00000000000E+00 0.  1.
         21    1    1    2  503  505  0.25689404464E+02  0.35596953494E+02  0.20133093192E+03  0.20606123543E+03  0.00000000000E+00 0. -1.
         21    1    1    2  504  502 -0.59254032570E+02 -0.10727979003E+03 -0.13515155710E+03  0.18244433976E+03  0.00000000000E+00 0.  1.
         21    1    1    2  505  504  0.42283424139E+01  0.55840556759E+02 -0.45928524858E+02  0.72425658812E+02  0.00000000000E+00 0.  1.
         21    1    1    2  506  501  0.29336285692E+02  0.15842279777E+02 -0.45234669639E+02  0.56194046162E+02  0.00000000000E+00 0.  1.
<scales pt_clust_3="44.22106" pt_clust_4="81.25711" pt_clust_5="14000.00000" pt_clust_6="33.34060"></scales>
<clustering>
<clus scale="   33.341">  2  6  1 -1</clus>
<clus scale="   44.221">  1  3  2 -1</clus>
<clus scale="   81.257">  2  4  1 -1</clus>
<clus scale="   44.221">  1  3  2 -1</clus>
</clustering>
</event>
<event>
 6    0  0.5563122E+002  0.2776429E+03  0.7546771E-02  0.1096983E+00
         21   -1    0    0  503  501  0.00000000000E+00  0.00000000000E+00  0.68562844925E+03  0.68562844925E+03  0.00000000000E+00 0. -1.
         21   -1    0    0  504  502 -0.00000000000E+00 -0.00000000000E+00 -0.49724484631E+03  0.49724484631E+03  0.00000000000E+00 0.  1.
         21    1    1    2  503  505  0.73426836564E+02 -0.18669896873E+03  0.54734871043E+03  0.58295678748E+03  0.00000000000E+00 0. -1.
         21    1    1    2  504  501  0.10756877536E+03 -0.13615106145E+02  0.35580376246E+02  0.11411562435E+03  0.00000000000E+00 0. -1.
         21    1    1    2  505  506 -0.11159686123E+03  0.10505220215E+03 -0.15058346984E+03  0.21486089919E+03  0.00000000000E+00 0.  1.
         21    1    1    2  506  502 -0.69398750687E+02  0.95261872730E+02 -0.24396201391E+03  0.27093998454E+03  0.00000000000E+00 0. -1.
<scales pt_clust_3="263.88326" pt_clust_4="108.42699" pt_clust_5="75.69675" pt_clust_6="75.69675"></scales>
<clustering>
<clus scale="   75.697">  5  6 -1 -1</clus>
<clus scale="  108.427">  1  4  2 -1</clus>
<clus scale="  263.883">  1  3  2 -1</clus>
<clus scale="  108.427">  1  3  2 -1</clus>
</clustering>
</event>
<event>
 6    0  0.5563122E+002  0.1470745E+03  0.7546771E-02  0.1204115E+00
         21   -1    0    0  505  501  0.00000000000E+00  0.00000000000E+00  0.11379142425E+04  0.11379142425E+04  0.00000000000E+00 0. -1.
         21   -1    0    0  506  502 -0.00000000000E+00 -0.00000000000E+00 -0.12880667551E+03  0.12880667551E+03  0.00000000000E+00 0. -1.
         21    1    1    2  503  504  0.44057548231E+02  0.29113294963E+02  0.28219563517E+01  0.52883030713E+02  0.00000000000E+00 0.  1.
         21    1    1    2  504  502  0.70284146876E+02  0.47869086494E+02 -0.69860753179E+02  0.11005378494E+03  0.00000000000E+00 0. -1.
         21    1    1    2  505  503 -0.68134862177E+02  0.62594874945E+02  0.53879818319E+03  0.54668451599E+03  0.00000000000E+00 0. -1.
         21    1    1    2  506  501 -0.46206832930E+02 -0.13957725640E+03  0.53734818067E+03  0.55709958642E+03  0.00000000000E+00 0. -1.
<scales pt_clust_3="43.54832" pt_clust_4="43.54832" pt_clust_5="92.52285" pt_clust_6="136.29751"></scales>
<clustering>
<clus scale="   43.548">  3  4 -1 -1</clus>
<clus scale="   92.523">  1  5  2 -1</clus>
<clus scale="  136.298">  1  6  2 -1</clus>
<clus scale="   92.523">  1  3  2 -1</clus>
</clustering>
</event>
<event>
 6    0  0.5563122E+002  0.1660087E+03  0.7546771E-02  0.1182075E+00
         21   -1    0    0  503  501  0.00000000000E+00  0.00000000000E+00  0.13350723480E+04  0.13350723480E+04  0.00000000000E+00 0. -1.
         21   -1    0    0  505  502 -0.00000000000E+00 -0.00000000000E+00 -0.12691242381E+03  0.12691242381E+03  0.00000000000E+00 0.  1.
         21    1    1    2  503  504 -0.68005546313E+02  0.15216079119E+03  0.10072159488E+04  0.10209121550E+04  0.00000000000E+00 0. -1.
         21    1    1    2  504  506 -0.87426474594E+01 -0.17856751280E+03  0.24202833223E+03  0.30089949172E+03  0.00000000000E+00 0. -1.
         21    1    1    2  505  501  0.76181926828E+02  0.60315568503E+02 -0.42886705321E+02  0.10621169085E+03  0.00000000000E+00 0.  1.
         21    1    1    2  506  502  0.56626694396E+00 -0.33908846885E+02  0.18023484619E+01  0.33961434235E+02  0.00000000000E+00 0.  1.
<scales pt_clust_3="14000.00000" pt_clust_4="166.00870" pt_clust_5="85.25656" pt_clust_6="33.91357"></scales>
<clustering>
<clus scale="   33.914">  2  6  1 -1</clus>
<clus scale="   85.257">  2  5  1 -1</clus>
<clus scale="  166.009">  2  4  1 -1</clus>
<clus scale="  166.009">  1  3  2 -1</clus>
</clustering>
</event>
<event>
 6    0  0.5563122E+002  0.1902743E+03  0.7546771E-02  0.1158214E+00
         21   -1    0    0  505  501  0.00000000000E+00  0.00000000000E+00  0.36953810041E+03  0.36953810041E+03  0.00000000000E+00 0. -1.
         21   -1    0    0  503  502 -0.00000000000E+00 -0.00000000000E+00 -0.29420073625E+03  0.29420073625E+03  0.00000000000E+00 0. -1.
         21    1    1    2  503  504  0.14816257748E+02 -0.90187274673E+02 -0.13639399646E+03  0.16418461644E+03  0.00000000000E+00 0.  1.
         21    1    1    2  504  506  0.63296312772E+02 -0.79642329701E+02 -0.67185630791E+02  0.12191485913E+03  0.00000000000E+00 0. -1.
         21    1    1    2  505  502 -0.12618902818E+02  0.92140851695E+02  0.14185208994E+02  0.94076529557E+02  0.00000000000E+00 0. -1.
         21    1    1    2  506  501 -0.65493667703E+02  0.77688752679E+02  0.26473178242E+03  0.28356283153E+03  0.00000000000E+00 0. -1.
<scales pt_clust_3="70.06714" pt_clust_4="70.06714" pt_clust_5="93.00093" pt_clust_6="175.32754"></scales>
<clustering>
<clus scale="   70.067">  3  4 -1 -1</clus>
<clus scale="   93.001">  1  5  2 -1</clus>
<clus scale="  175.328">  1  6  2 -1</clus>
<clus scale="   93.001">  1  3  2 -1</clus>
</clustering>
</event>
<event>
 6    0  0.5563122E+002  0.2016642E+03  0.7546771E-02  0.1148342E+00
         21   -1    0    0  505  501  0.00000000000E+00  0.00000000000E+00  0.84019647044E+03  0.84019647044E+03  0.00000000000E+00 0. -1.
         21   -1    0    0  504  502 -0.00000000000E+00 -0.00000000000E+00 -0.66440930065E+03  0.66440930065E+03  0.00000000000E+00 0. -1.
         21    1    1    2  503  502 -0.41618846528E+02 -0.15339116676E+03 -0.48856940077E+03  0.51377138671E+03  0.00000000000E+00 0. -1.
         21    1    1    2  504  506 -0.65619932432E+02  0.23206361430E+03  0.20351433754E+03  0.31555915800E+03  0.00000000000E+00 0. -1.
         21    1    1    2  505  503  0.19362368028E+03 -0.38958004408E+02 -0.72379172301E+01  0.19763664417E+03  0.00000000000E+00 0. -1.
         21    1    1    2  506  501 -0.86384901316E+02 -0.39714443130E+02  0.46808015026E+03  0.47763858223E+03  0.00000000000E+00 0. -1.
<scales pt_clust_3="161.04726" pt_clust_4="14000.00000" pt_clust_5="201.66422" pt_clust_6="95.07675"></scales>
<clustering>
<clus scale="   95.077">  1  6  2 -1</clus>
<clus scale="  161.047">  2  3  1 -1</clus>
<clus scale="  201.664">  2  5  1 -1</clus>
<clus scale="   95.077">  1  3  2 -1</clus>
</clustering>
</event>
<event>
 6    0  0.5563122E+002  0.9029414E+02  0.7546771E-02  0.1302141E+00
         21   -1    0    0  505  501  0.00000000000E+00  0.00000000000E+00  0.67341879603E+03  0.67341879603E+03  0.00000000000E+00 0.  1.
         21   -1    0    0  503  502 -0.00000000000E+00 -0.00000000000E+00 -0.91070061143E+02  0.91070061143E+02  0.00000000000E+00 0. -1.
         21    1    1    2  503  506 -0.13964156730E+02 -0.73111149153E+02  0.21257412097E+03  0.22522876084E+03  0.00000000000E+00 0.  1.
         21    1    1    2  504  502  0.95831766885E+01  0.91927818029E+02 -0.44717104541E+02  0.10267512085E+03  0.00000000000E+00 0. -1.
         21    1    1    2  505  504  0.59746199369E+02 -0.12985550650E+02  0.32852712488E+03  0.33416807844E+03  0.00000000000E+00 0.  1.
         21    1    1    2  506  501 -0.55365219328E+02 -0.58311182258E+01  0.85964593569E+02  0.10241689704E+03  0.00000000000E+00 0.  1.
<scales pt_clust_3="14000.00000" pt_clust_4="90.29414" pt_clust_5="32.47400" pt_clust_6="55.67144"></scales>
<clustering>
<clus scale="   55.671">  1  6  2 -1</clus>
<clus scale="   32.474">  1  5  2 -1</clus>
<clus scale="   90.294">  2  4  1 -1</clus>
<clus scale="   55.671">  1  3  2 -1</clus>
</clustering>
</event>
<event>
 6    0  0.5563122E+002  0.1152237E+03  0.7546771E-02  0.1251191E+00
         21   -1    0    0  505  501  0.00000000000E+00  0.00000000000E+00  0.84176512363E+02  0.84176512363E+02  0.00000000000E+00 0.  1.
         21   -1    0    0  503  502 -0.00000000000E+00 -0.00000000000E+00 -0.59180707816E+03  0.59180707816E+03  0.00000000000E+00 0. -1.
         21    1    1    2  503  506  0.75795185830E+02  0.39098476397E+02 -0.30231971534E+03  0.31411910374E+03  0.00000000000E+00 0. -1.
         21    1    1    2  504  502 -0.26845703328E+02 -0.16946513038E+02 -0.55954916562E+02  0.64333729713E+02  0.00000000000E+00 0.  1.
         21    1    1    2  505  504 -0.64410465768E+02 -0.11054607763E+03 -0.55981692856E+01  0.12806437006E+03  0.00000000000E+00 0.  1.
         21    1    1    2  506  501  0.15460983267E+02  0.88394114268E+02 -0.14375776461E+03  0.16946638701E+03  0.00000000000E+00 0.  1.
<scales pt_clust_3="66.96916" pt_clust_4="31.74706" pt_clust_5="115.22371" pt_clust_6="14000.00000"></scales>
<clustering>
<clus scale="   31.747">  2  4  1 -1</clus>
<clus scale="   66.969">  2  3  1 -1</clus>
<clus scale="  115.224">  1  5  2 -1</clus>
<clus scale="  115.224">  1  3  2 -1</clus>
</clustering>
</event>
<event>
 6    0  0.5563122E+002  0.1159797E+03  0.7546771E-02  0.1249881E+00
         21   -1    0    0  505  501  0.00000000000E+00  0.00000000000E+00  0.13093685829E+03  0.13093685829E+03  0.00000000000E+00 0. -1.
         21   -1    0    0  503  502 -0.00000000000E+00 -0.00000000000E+00 -0.30305166542E+03  0.30305166542E+03  0.00000000000E+00 0.  1.
         21    1    1    2  503  506  0.32959630668E+02 -0.95259766936E+01 -0.24686555674E+02  0.42267097331E+02  0.00000000000E+00 0. -1.
         21    1    1    2  504  502 -0.14055188053E+03  0.13191826032E+02 -0.17230337634E+03  0.22274943074E+03  0.00000000000E+00 0.  1.
         21    1    1    2  505  504 -0.15080893616E+00 -0.49864922187E+02  0.90217212786E+01  0.50674694502E+02  0.00000000000E+00 0.  1.
         21    1    1    2  506  501  0.10774305880E+03  0.46199072848E+02  0.15853403601E+02  0.11829730114E+03  0.00000000000E+00 0. -1.
<scales pt_clust_3="34.30862" pt_clust_4="115.97974" pt_clust_5="50.65754" pt_clust_6="14000.00000"></scales>
<clustering>
<clus scale="   34.309">  2  3  1 -1</clus>
<clus scale="   50.658">  1  5  2 -1</clus>
<clus scale="  115.980">  2  4  1 -1</clus>
<clus scale="   50.658">  1  3  2 -1</clus>
</clustering>
</event>
<event>
 6    0  0.5563122E+002  0.7699718E+02  0.7546771E-02  0.1337796E+00
         21   -1    0    0  505  501  0.00000000000E+00  0.00000000000E+00  0.18467675191E+03  0.18467675191E+03  0.00000000000E+00 0. -1.
         21   -1    0    0  504  502 -0.00000000000E+00 -0.00000000000E+00 -0.25094183619E+03  0.25094183619E+03  0.00000000000E+00 0.  1.
         21    1    1    2  503  502 -0.40023710454E+02  0.23233232848E+02 -0.21815040883E+02  0.51162256750E+02  0.00000000000E+00 0.  1.
         21    1    1    2  504  506  0.58056080003E+02  0.40697686626E+02 -0.13695846853E+03  0.15422202250E+03  0.00000000000E+00 0.  1.
         21    1    1    2  505  503 -0.58100193174E+02  0.42491553019E+02  0.91622634624E+02  0.11651554274E+03  0.00000000000E+00 0. -1.
         21    1    1    2  506  501  0.40067823624E+02 -0.10642247249E+03  0.88579050555E+00  0.11371876611E+03  0.00000000000E+00 0.  1.
<scales pt_clust_3="46.27829" pt_clust_4="64.36429" pt_clust_5="14000.00000" pt_clust_6="76.99718"></scales>
<clustering>
<clus scale="   46.278">  2  3  1 -1</clus>
<clus scale="   64.364">  2  4  1 -1</clus>
<clus scale="   76.997">  2  6  1 -1</clus>
<clus scale="   76.997">  1  3  2 -1</clus>
</clustering>
</event>
<event>
 6    0  0.5563122E+002  0.2668879E+03  0.7546771E-02  0.1103074E+00
         21   -1    0    0  504  501  0.00000000000E+00  0.00000000000E+00  0.56510911894E+03  0.56510911894E+03  0.00000000000E+00 0.  1.
         21   -1    0    0  506  502 -0.00000000000E+00 -0.00000000000E+00 -0.28034878310E+03  0.28034878310E+03  0.00000000000E+00 0.  1.
         21    1    1    2  503  501  0.11284928520E+03  0.63320218810E+02  0.17011467094E+03  0.21373678333E+03  0.00000000000E+00 0.  1.
         21    1    1    2  504  505 -0.34332542147E+02 -0.50551882224E+02  0.63948552340E+02  0.88451306339E+02  0.00000000000E+00 0.  1.
         21    1    1    2  505  502 -0.20888734101E+03 -0.20976557282E+03 -0.19944662741E+02  0.29670407201E+03  0.00000000000E+00 0.  1.
         21    1    1    2  506  503  0.13037059796E+03  0.19699723623E+03  0.70641775298E+02  0.24656574035E+03  0.00000000000E+00 0.  1.
<scales pt_clust_3="108.46599" pt_clust_4="61.10823" pt_clust_5="266.88788" pt_clust_6="14000.00000"></scales>
<clustering>
<clus scale="   61.108">  1  4  2 -1</clus>
<clus scale="  108.466">  1  3  2 -1</clus>
<clus scale="  266.888">  2  5  1 -1</clus>
<clus scale="   61.108">  1  3  2 -1</clus>
</clustering>
</event>
<event>
 6    0  0.5563122E+002  0.6049930E+02  0.7546771E-02  0.1395748E+00
         21   -1    0    0  503  501  0.00000000000E+00  0.00000000000E+00  0.77928525779E+02  0.77928525779E+02  0.00000000000E+00 0. -1.
         21   -1    0    0  506  502 -0.00000000000E+00 -0.00000000000E+00 -0.59746156168E+03  0.59746156168E+03  0.00000000000E+00 0. -1.
         21    1    1    2  503  504  0.13539788874E+02 -0.55084776044E+02  0.42002968573E+02  0.70582631033E+02  0.00000000000E+00 0. -1.
         21    1    1    2  504  505 -0.19940809489E+02 -0.42884081655E+02 -0.27634114914E+03  0.28035889686E+03  0.00000000000E+00 0. -1.
         21    1    1    2  505  502  0.19572047976E+02 -0.24322462144E+02 -0.68513320883E+02  0.75290918211E+02  0.00000000000E+00 0. -1.
         21    1    1    2  506  501 -0.13171027361E+02  0.12229131984E+03 -0.21668153445E+03  0.24915764135E+03  0.00000000000E+00 0. -1.
<scales pt_clust_3="14000.00000" pt_clust_4="56.58193" pt_clust_5="31.21934" pt_clust_6="60.49930"></scales>
<clustering>
<clus scale="   31.219">  2  5  1 -1</clus>
<clus scale="   56.582">  2  4  1 -1</clus>
<clus scale="   60.499">  2  6  1 -1</clus>
<clus scale="   60.499">  1  3  2 -1</clus>
</clustering>
</event>
<event>
 6    0  0.5563122E+002  0.3361003E+03  0.7546771E-02  0.1068469E+00
         21   -1    0    0  504  501  0.00000000000E+00  0.00000000000E+00  0.16550217724E+04  0.16550217724E+04  0.00000000000E+00 0. -1.
         21   -1    0    0  506  502 -0.00000000000E+00 -0.00000000000E+00 -0.18329547345E+03  0.18329547345E+03  0.00000000000E+00 0. -1.
         21    1    1    2  503  501 -0.48572541225E+02  0.55748405313E+02  0.81851145786E+03  0.82184437888E+03  0.00000000000E+00 0. -1.
         21    1    1    2  504  502 -0.30482683395E+03 -0.63524501126E+02  0.58284979344E+02  0.31678367975E+03  0.00000000000E+00 0. -1.
         21    1    1    2  505  503  0.18345661577E+03 -0.33149095704E+02  0.37473170506E+03  0.41854395611E+03  0.00000000000E+00 0. -1.
         21    1    1    2  506  505  0.16994275940E+03  0.40925191517E+02  0.22019815673E+03  0.28114523115E+03  0.00000000000E+00 0. -1.
<scales pt_clust_3="73.94036" pt_clust_4="319.83052" pt_clust_5="101.67185" pt_clust_6="101.67185"></scales>
<clustering>
<clus scale="   73.940">  1  3  2 -1</clus>
<clus scale="  101.672">  5  6 -1 -1</clus>
<clus scale="  319.831">  2  4  1 -1</clus>
<clus scale="   73.940">  1  3  2 -1</clus>
</clustering>
</event>
<event>
 6    0  0.5563122E+002  0.1108389E+03  0.7546771E-02  0.1259024E+00
         21   -1    0    0  503  501  0.00000000000E+00  0.00000000000E+00  0.18708628351E+03  0.18708628351E+03  0.00000000000E+00 0.  1.
         21   -1    0    0  506  502 -0.00000000000E+00 -0.00000000000E+00 -0.81119867654E+03  0.81119867654E+03  0.00000000000E+00 0.  1.
         21    1    1    2  503  504  0.10012892371E+02 -0.11658029801E+03  0.12953014637E+02  0.11772427314E+03  0.00000000000E+00 0.  1.
         21    1    1    2  504  502  0.74223841120E+02  0.50825362936E+02 -0.72803370272E+03  0.73357035682E+03  0.00000000000E+00 0.  1.
         21    1    1    2  505  501 -0.46125999635E+02  0.38895939198E+02  0.77967700139E+02  0.98587342968E+02  0.00000000000E+00 0.  1.
         21    1    1    2  506  505 -0.38110733857E+02  0.26858995878E+02  0.13000594910E+02  0.48402987126E+02  0.00000000000E+00 0.  1.
<scales pt_clust_3="101.85223" pt_clust_4="89.95775" pt_clust_5="38.43179" pt_clust_6="38.43179"></scales>
<clustering>
<clus scale="   38.432">  5  6 -1 -1</clus>
<clus scale="   89.958">  2  4  1 -1</clus>
<clus scale="  101.852">  2  3  1 -1</clus>
<clus scale="  110.839">  1  3  2 -1</clus>
</clustering>
</event>
<event>
 6    0  0.5563122E+002  0.1429402E+03  0.7546771E-02  0.1209427E+00
         21   -1    0    0  505  501  0.00000000000E+00  0.00000000000E+00  0.11905610544E+04  0.11905610544E+04  0.00000000000E+00 0. -1.
         21   -1    0    0  504  502 -0.00000000000E+00 -0.00000000000E+00 -0.46527214647E+03  0.46527214647E+03  0.00000000000E+00 0.  1.
         21    1    1    2  503  501 -0.25190546808E+02  0.30547405641E+02  0.21669733335E+03  0.22028491079E+03  0.00000000000E+00 0. -1.
         21    1    1    2  504  506 -0.32921128021E+02 -0.32619495246E+02 -0.44649473644E+03  0.44889350831E+03  0.00000000000E+00 0.  1.
         21    1    1    2  505  502  0.32762563173E+02 -0.10903239946E+03  0.28414555309E+03  0.30610479418E+03  0.00000000000E+00 0. -1.
         21    1    1    2  506  503  0.25349111656E+02  0.11110448906E+03  0.67094075792E+03  0.68054998757E+03  0.00000000000E+00 0. -1.
<scales pt_clust_3="35.05493" pt_clust_4="46.34471" pt_clust_5="129.98100" pt_clust_6="35.05493"></scales>
<clustering>
<clus scale="   35.055">  3  6 -1 -1</clus>
<clus scale="   46.345">  2  4  1 -1</clus>
<clus scale="  129.981">  2  5  1 -1</clus>
<clus scale="  142.940">  1  3  2 -1</clus>
</clustering>
</event>
<event>
 6    0  0.5563122E+002  0.1328965E+03  0.7546771E-02  0.1223220E+00
         21   -1    0    0  506  501  0.00000000000E+00  0.00000000000E+00  0.51263778347E+02  0.51263778347E+02  0.00000000000E+00 0. -1.
         21   -1    0    0  504  502 -0.00000000000E+00 -0.00000000000E+00 -0.10588878096E+04  0.10588878096E+04  0.00000000000E+00 0. -1.
         21    1    1    2  503  501  0.10135391211E+02  0.46340296492E+02 -0.11841523803E+03  0.12756299555E+03  0.00000000000E+00 0. -1.
         21    1    1    2  504  503 -0.43079170561E+02  0.11768630889E+03 -0.86412369399E+02  0.15222673820E+03  0.00000000000E+00 0. -1.
         21    1    1    2  505  502  0.38281530630E+02 -0.12869549207E+03 -0.77077120468E+03  0.78237858817E+03  0.00000000000E+00 0. -1.
         21    1    1    2  506  505 -0.53377512794E+01 -0.35331113319E+02 -0.32025219107E+02  0.47983265999E+02  0.00000000000E+00 0.  1.
<scales pt_clust_3="43.66871" pt_clust_4="14000.00000" pt_clust_5="132.89651" pt_clust_6="35.73205"></scales>
<clustering>
<clus scale="   35.732">  1  6  2 -1</clus>
<clus scale="   43.669">  1  3  2 -1</clus>
<clus scale="  132.897">  2  5  1 -1</clus>
<clus scale="   35.732">  1  3  2 -1</clus>
</clustering>
</event>
<event>
 6    0  0.5563122E+002  0.1622693E+03  0.7546771E-02  0.1186158E+00
         21   -1    0    0  503  501  0.00000000000E+00  0.00000000000E+00  0.30497295432E+02  0.30497295432E+02  0.00000000000E+00 0. -1.
         21   -1    0    0  506  502 -0.00000000000E+00 -0.00000000000E+00 -0.96265046967E+03  0.96265046967E+03  0.00000000000E+00 0. -1.
         21    1    1    2  503  504  0.24847500248E+02  0.65294282639E+02 -0.19045055089E+03  0.20285993678E+03  0.00000000000E+00 0. -1.
         21    1    1    2  504  502 -0.31629669368E+01  0.80175708158E+02 -0.44438712743E+03  0.45157288179E+03  0.00000000000E+00 0. -1.
         21    1    1    2  505  501  0.22581396952E+02 -0.73478515838E+02 -0.12402791638E+03  0.14591756515E+03  0.00000000000E+00 0. -1.
         21    1    1    2  506  505 -0.44265930263E+02 -0.71991474959E+02 -0.17328757954E+03  0.19279738139E+03  0.00000000000E+00 0. -1.
<scales pt_clust_3="56.23234" pt_clust_4="158.94476" pt_clust_5="65.38065" pt_clust_6="65.38065"></scales>
<clustering>
<clus scale="   56.232">  3  4 -1 -1</clus>
<clus scale="   65.381">  5  6 -1 -1</clus>
<clus scale="  158.945">  2  3  1 -1</clus>
<clus scale="  162.269">  1  3  2 -1</clus>
</clustering>
</event>
<event>
 6    0  0.5563122E+002  0.9733302E+02  0.7546771E-02  0.1286006E+00
         21   -1    0    0  504  501  0.00000000000E+00  0.00000000000E+00  0.19803956135E+03  0.19803956135E+03  0.00000000000E+00 0.  1.
         21   -1    0    0  506  502 -0.00000000000E+00 -0.00000000000E+00 -0.10021669422E+03  0.10021669422E+03  0.00000000000E+00 0.  1.
         21    1    1    2  503  505  0.79210678773E+02  0.36551843506E+02  0.17276051308E+02  0.88931607678E+02  0.00000000000E+00 0.  1.
         21    1    1    2  504  502 -0.46263183482E+02 -0.30858643148E+02  0.34371015375E+01  0.55716709072E+02  0.00000000000E+00 0.  1.
         21    1    1    2  505  501 -0.69709009006E+02  0.13234804724E+02  0.85818778930E+02  0.11135245309E+03  0.00000000000E+00 0.  1.
         21    1    1    2  506  503  0.36761513715E+02 -0.18928005082E+02 -0.87090646455E+01  0.42255485727E+02  0.00000000000E+00 0.  1.
<scales pt_clust_3="40.00472" pt_clust_4="55.61059" pt_clust_5="78.08461" pt_clust_6="40.00472"></scales>
<clustering>
<clus scale="   40.005">  3  6 -1 -1</clus>
<clus scale="   55.611">  2  4  1 -1</clus>
<clus scale="   78.085">  1  5  2 -1</clus>
<clus scale="   78.085">  1  3  2 -1</clus>
</clustering>
</event>
<event>
 6    0  0.5563122E+002  0.1462682E+03  0.7546771E-02  0.1205135E+00
         21   -1    0    0  503  501  0.00000000000E+00  0.00000000000E+00  0.24594627578E+03  0.24594627578E+03  0.00000000000E+00 0. -1.
         21   -1    0    0  504  502 -0.00000000000E+00 -0.00000000000E+00 -0.89008980308E+03  0.89008980308E+03  0.00000000000E+00 0. -1.
         21    1    1    2  503  505  0.23563735206E+02 -0.14752518961E+03  0.20607400393E+03  0.25452981413E+03  0.00000000000E+00 0. -1.
         21    1    1    2  504  506  0.53357963322E+02  0.69453790754E+02 -0.28001881199E+03  0.29339638097E+03  0.00000000000E+00 0. -1.
         21    1    1    2  505  502 -0.46016384955E+02 -0.35347715854E+01 -0.10350670338E+03  0.11332978399E+03  0.00000000000E+00 0. -1.
         21    1    1    2  506  501 -0.30905313573E+02  0.81606170445E+02 -0.46669201586E+03  0.47478009976E+03  0.00000000000E+00 0. -1.
<scales pt_clust_3="14000.00000" pt_clust_4="77.30578" pt_clust_5="46.15195" pt_clust_6="146.26818"></scales>
<clustering>
<clus scale="   46.152">  2  5  1 -1</clus>
<clus scale="   77.306">  2  4  1 -1</clus>
<clus scale="  146.268">  2  6  1 -1</clus>
<clus scale="  146.268">  1  3  2 -1</clus>
</clustering>
</event>
<event>
 6    0  0.5563122E+002  0.1377397E+03  0.7546771E-02  0.1216403E+00
         21   -1    0    0  503  501  0.00000000000E+00  0.00000000000E+00  0.23582314302E+04  0.23582314302E+04  0.00000000000E+00 0. -1.
         21   -1    0    0  505  502 -0.00000000000E+00 -0.00000000000E+00 -0.14188450123E+03  0.14188450123E+03  0.00000000000E+00 0.  1.
         21    1    1    2  503  504 -0.73819745262E+02  0.11644611381E+03  0.22538494168E+04  0.22580624982E+04  0.00000000000E+00 0. -1.
         21    1    1    2  504  506  0.37910804322E+02 -0.18692523407E+02  0.12757043274E+02  0.44151802554E+02  0.00000000000E+00 0. -1.
         21    1    1    2  505  501  0.36536109549E+02 -0.13110099714E+03 -0.75901051625E+02  0.15583108929E+03  0.00000000000E+00 0.  1.
         21    1    1    2  506  502 -0.62716860946E+00  0.33347406734E+02  0.25641520491E+02  0.42070541349E+02  0.00000000000E+00 0. -1.
<scales pt_clust_3="14000.00000" pt_clust_4="40.62010" pt_clust_5="137.73967" pt_clust_6="33.35330"></scales>
<clustering>
<clus scale="   33.353">  2  6  1 -1</clus>
<clus scale="   40.620">  2  4  1 -1</clus>
<clus scale="  137.740">  2  5  1 -1</clus>
<clus scale="  137.740">  1  3  2 -1</clus>
</clustering>
</event>
<event>
 6    0  0.5563122E+002  0.7864877E+02  0.7546771E-02  0.1332930E+00
         21   -1    0    0  503  501  0.00000000000E+00  0.00000000000E+00  0.56456898126E+03  0.56456898126E+03  0.00000000000E+00 0. -1.
         21   -1    0    0  504  502 -0.00000000000E+00 -0.00000000000E+00 -0.11196971517E+03  0.11196971517E+03  0.00000000000E+00 0.  1.
         21    1    1    2  503  505 -0.32654048197E+02 -0.63896025263E+02 -0.15862240596E+02  0.73488771828E+02  0.00000000000E+00 0.  1.
         21    1    1    2  504  506 -0.51313315589E+02  0.14217966022E+02 -0.10431249611E+00  0.53246763241E+02  0.00000000000E+00 0.  1.
         21    1    1    2  505  502  0.18887374463E+01  0.44474256283E+02 -0.23894855038E+02  0.50522182240E+02  0.00000000000E+00 0.  1.
         21    1    1    2  506  501  0.82078626340E+02  0.52038029585E+01  0.49246067422E+03  0.49928097913E+03  0.00000000000E+00 0. -1.
<scales pt_clust_3="48.85261" pt_clust_4="78.64877" pt_clust_5="44.51434" pt_clust_6="14000.00000"></scales>
<clustering>
<clus scale="   44.514">  2  5  1 -1</clus>
<clus scale="   48.853">  2  3  1 -1</clus>
<clus scale="   78.649">  2  4  1 -1</clus>
<clus scale="   78.649">  1  3  2 -1</clus>
</clustering>
</event>
<event>
 6    0  0.5563122E+002  0.1103411E+03  0.7546771E-02  0.1259939E+00
         21   -1    0    0  503  501  0.00000000000E+00  0.00000000000E+00  0.17516121441E+03  0.17516121441E+03  0.00000000000E+00 0. -1.
         21   -1    0    0  504  502 -0.00000000000E+00 -0.00000000000E+00 -0.19079945562E+03  0.19079945562E+03  0.00000000000E+00 0. -1.
         21    1    1    2  503  505  0.44935404887E+02  0.27167559786E+02  0.98968610577E+02  0.11203594422E+03  0.00000000000E+00 0. -1.
         21    1    1    2  504  501 -0.87122635754E+02 -0.10214800262E+03 -0.67571045328E+02  0.15030107873E+03  0.00000000000E+00 0. -1.
         21    1    1    2  505  506  0.30563573674E+02  0.33853084796E+02 -0.39269867131E+02  0.60185428888E+02  0.00000000000E+00 0. -1.
         21    1    1    2  506  502  0.11623657193E+02  0.41127358041E+02 -0.77659393319E+01  0.43438218192E+02  0.00000000000E+00 0. -1.
<scales pt_clust_3="52.50968" pt_clust_4="105.12614" pt_clust_5="32.44912" pt_clust_6="32.44912"></scales>
<clustering>
<clus scale="   32.449">  5  6 -1 -1</clus>
<clus scale="   52.510">  1  3  2 -1</clus>
<clus scale="  105.126">  1  4  2 -1</clus>
<clus scale="   52.510">  1  3  2 -1</clus>
</clustering>
</event>
<event>
 6    0  0.5563122E+002  0.9743790E+02  0.7546771E-02  0.1285778E+00
         21   -1    0    0  506  501  0.00000000000E+00  0.00000000000E+00  0.26023947478E+04  0.26023947478E+04  0.00000000000E+00 0. -1.
         21   -1    0    0  505  502 -0.00000000000E+00 -0.00000000000E+00 -0.18230805740E+03  0.18230805740E+03  0.00000000000E+00 0. -1.
         21    1    1    2  503  501  0.55970310784E+02 -0.28215410620E+02  0.19245090305E+04  0.19255294839E+04  0.00000000000E+00 0. -1.
         21    1    1    2  504  503 -0.19075004146E+02  0.88000930842E+02  0.29784102196E+03  0.31115477495E+03  0.00000000000E+00 0. -1.
         21    1    1    2  505  504 -0.13257819916E+03 -0.49427717286E+02  0.34455034644E+03  0.37247150141E+03  0.00000000000E+00 0. -1.
         21    1    1    2  506  502  0.95682892523E+02 -0.10357802936E+02 -0.14681370844E+03  0.17554704494E+03  0.00000000000E+00 0. -1.
<scales pt_clust_3="62.68002" pt_clust_4="75.56279" pt_clust_5="14000.00000" pt_clust_6="97.43790"></scales>
<clustering>
<clus scale="   62.680">  1  3  2 -1</clus>
<clus scale="   75.563">  1  4  2 -1</clus>
<clus scale="   97.438">  2  6  1 -1</clus>
<clus scale="   62.680">  1  3  2 -1</clus>
</clustering>
</event>
<event>
 6    0  0.5563122E+002  0.2071556E+03  0.7546771E-02  0.1143838E+00
         21   -1    0    0  506  501  0.00000000000E+00  0.00000000000E+00  0.19932944988E+04  0.19932944988E+04  0.00000000000E+00 0.  1.
         21   -1    0    0  503  502 -0.00000000000E+00 -0.00000000000E+00 -0.77521158949E+02  0.77521158949E+02  0.00000000000E+00 0.  1.
         21    1    1    2  503  505 -0.33467910756E+02  0.18062052766E+03  0.26113839380E+03  0.31927595709E+03  0.00000000000E+00 0.  1.
         21    1    1    2  504  502 -0.36073687143E+02 -0.23612533188E+03  0.27181709987E+03  0.36185773315E+03  0.00000000000E+00 0.  1.
         21    1    1    2  505  501  0.31928988891E+02  0.61765441086E+02  0.12372789620E+04  0.12392310761E+04  0.00000000000E+00 0.  1.
         21    1    1    2  506  504  0.37612609008E+02 -0.62606368592E+01  0.14553888422E+03  0.15045089149E+03  0.00000000000E+00 0.  1.
<scales pt_clust_3="207.15559" pt_clust_4="14000.00000" pt_clust_5="81.12869" pt_clust_6="38.13009"></scales>
<clustering>
<clus scale="   38.130">  1  6  2 -1</clus>
<clus scale="   81.129">  1  5  2 -1</clus>
<clus scale="  207.156">  2  3  1 -1</clus>
<clus scale="   38.130">  1  3  2 -1</clus>
</clustering>
</event>
<event>
 6    0  0.5563122E+002  0.4114209E+03  0.7546771E-02  0.1039895E+00
         21   -1    0    0  504  501  0.00000000000E+00  0.00000000000E+00  0.72369496218E+03  0.72369496218E+03  0.00000000000E+00 0. -1.
         21   -1    0    0  505  502 -0.00000000000E+00 -0.00000000000E+00 -0.27122929443E+03  0.27122929443E+03  0.00000000000E+00 0. -1.
         21    1    1    2  503  506  0.22176744026E+03  0.70989081978E+02  0.24963099927E+03  0.34137352434E+03  0.00000000000E+00 0. -1.
         21    1    1    2  504  502 -0.34475160631E+03  0.44234740852E+02  0.14864406281E+03  0.37802835841E+03  0.00000000000E+00 0. -1.
         21    1    1    2  505  503 -0.27607583223E+02 -0.12186080464E+02 -0.55103501311E+02  0.62825751609E+02  0.00000000000E+00 0. -1.
         21    1    1    2  506  501  0.15059174928E+03 -0.10303774237E+03  0.10929410697E+03  0.21269662226E+03  0.00000000000E+00 0. -1.
<scales pt_clust_3="174.30976" pt_clust_4="361.63396" pt_clust_5="30.17746" pt_clust_6="174.30976"></scales>
<clustering>
<clus scale="   30.177">  2  5  1 -1</clus>
<clus scale="  174.310">  3  6 -1 -1</clus>
<clus scale="  361.634">  2  4  1 -1</clus>
<clus scale="  411.421">  1  3  2 -1</clus>
</clustering>
</event>
<event>
 6    0  0.5563122E+002  0.1189110E+03  0.7546771E-02  0.1244904E+00
         21   -1    0    0  506  501  0.00000000000E+00  0.00000000000E+00  0.20344451340E+03  0.20344451340E+03  0.00000000000E+00 0. -1.
         21   -1    0    0  503  502 -0.00000000000E+00 -0.00000000000E+00 -0.57730148510E+03  0.57730148510E+03  0.00000000000E+00 0. -1.
         21    1    1    2  503  505 -0.41351713856E+02  0.87480205076E+02 -0.79791085198E+02  0.12541677637E+03  0.00000000000E+00 0. -1.
         21    1    1    2  504  502  0.52733214133E+02 -0.77780933910E+02 -0.40951876823E+03  0.42016221520E+03  0.00000000000E+00 0. -1.
         21    1    1    2  505  501 -0.59838136887E+02  0.18369612723E+02 -0.37029378841E+02  0.72727025204E+02  0.00000000000E+00 0. -1.
         21    1    1    2  506  504  0.48456636610E+02 -0.28068883889E+02  0.15248226056E+03  0.16243998172E+03  0.00000000000E+00 0. -1.
<scales pt_clust_3="51.94026" pt_clust_4="99.84715" pt_clust_5="51.94026" pt_clust_6="55.99918"></scales>
<clustering>
<clus scale="   51.940">  3  5 -1 -1</clus>
<clus scale="   55.999">  1  6  2 -1</clus>
<clus scale="   99.847">  2  4  1 -1</clus>
<clus scale="   55.999">  1  3  2 -1</clus>
</clustering>
</event>
<event>
 6    0  0.5563122E+002  0.9649889E+02  0.7546771E-02  0.1287835E+00
         21   -1    0    0  506  501  0.00000000000E+00  0.00000000000E+00  0.12145005987E+03  0.12145005987E+03  0.00000000000E+00 0. -1.
         21   -1    0    0  505  502 -0.00000000000E+00 -0.00000000000E+00 -0.14838205543E+03  0.14838205543E+03  0.00000000000E+00 0. -1.
         21    1    1    2  503  504 -0.12484779801E+01 -0.39591874738E+02  0.17067833281E+02  0.43132194187E+02  0.00000000000E+00 0. -1.
         21    1    1    2  504  502  0.43433067912E+02  0.99703697746E+02 -0.11676530126E+01  0.10875946922E+03  0.00000000000E+00 0. -1.
         21    1    1    2  505  501 -0.61505512801E+02 -0.19354973571E+02 -0.29498891467E+02  0.70906471529E+02  0.00000000000E+00 0. -1.
         21    1    1    2  506  503  0.19320922870E+02 -0.40756849438E+02 -0.13333284359E+02  0.47033980359E+02  0.00000000000E+00 0. -1.
<scales pt_clust_3="34.22087" pt_clust_4="89.32287" pt_clust_5="64.47901" pt_clust_6="34.22087"></scales>
<clustering>
<clus scale="   34.221">  3  6 -1 -1</clus>
<clus scale="   64.479">  2  5  1 -1</clus>
<clus scale="   89.323">  2  4  1 -1</clus>
<clus scale="   96.499">  1  3  2 -1</clus>
</clustering>
</event>
<event>
 6    0  0.5563122E+002  0.2400518E+03  0.7546771E-02  0.1119758E+00
         21   -1    0    0  503  501  0.00000000000E+00  0.00000000000E+00  0.28551511842E+03  0.28551511842E+03  0.00000000000E+00 0. -1.
         21   -1    0    0  504  502 -0.00000000000E+00 -0.00000000000E+00 -0.64614371862E+03  0.64614371862E+03  0.00000000000E+00 0. -1.
         21    1    1    2  503  502 -0.16450768853E+03 -0.19522865310E+03 -0.25457361473E+03  0.36053395387E+03  0.00000000000E+00 0. -1.
         21    1    1    2  504  505 -0.26400710859E+02  0.28172666672E+02 -0.18425013856E+03  0.18825198602E+03  0.00000000000E+00 0. -1.
         21    1    1    2  505  506  0.18325789833E+03  0.12512451651E+03 -0.66804809963E+02  0.23173796531E+03  0.00000000000E+00 0.  1.
         21    1    1    2  506  501  0.76505010651E+01  0.41931469915E+02  0.14499996306E+03  0.15113493184E+03  0.00000000000E+00 0. -1.
<scales pt_clust_3="240.05179" pt_clust_4="38.60954" pt_clust_5="14000.00000" pt_clust_6="42.77744"></scales>
<clustering>
<clus scale="   38.610">  2  4  1 -1</clus>
<clus scale="   42.777">  1  6  2 -1</clus>
<clus scale="  240.052">  2  3  1 -1</clus>
<clus scale="   42.777">  1  3  2 -1</clus>
</clustering>
</event>
<event>
 6    0  0.5563122E+002  0.9106415E+02  0.7546771E-02  0.1300295E+00
         21   -1    0    0  504  501  0.00000000000E+00  0.00000000000E+00  0.66217206762E+03  0.66217206762E+03  0.00000000000E+00 0. -1.
         21   -1    0    0  506  502 -0.00000000000E+00 -0.00000000000E+00 -0.36084533091E+03  0.36084533091E+03  0.00000000000E+00 0.  1.
         21    1    1    2  503  501  0.26092585743E+02  0.42851258448E+02  0.95336589331E+02  0.10773169750E+03  0.00000000000E+00 0. -1.
         21    1    1    2  504  505 -0.12090215839E+03 -0.37702366342E+02  0.52860270768E+03  0.54356197705E+03  0.00000000000E+00 0. -1.
         21    1    1    2  505  502  0.60602996159E+02 -0.41020230205E+02 -0.37300922287E+02  0.82138549006E+02  0.00000000000E+00 0.  1.
         21    1    1    2  506  503  0.34206576490E+02  0.35871338099E+02 -0.28531163802E+03  0.28958517497E+03  0.00000000000E+00 0.  1.
<scales pt_clust_3="54.26682" pt_clust_4="14000.00000" pt_clust_5="91.06415" pt_clust_6="49.56655"></scales>
<clustering>
<clus scale="   49.567">  2  6  1 -1</clus>
<clus scale="   54.267">  1  3  2 -1</clus>
<clus scale="   91.064">  2  5  1 -1</clus>
<clus scale="   54.267">  1  3  2 -1</clus>
</clustering>
</event>
<event>
 6    0  0.5563122E+002  0.1591363E+03  0.7546771E-02  0.1189675E+00
         21   -1    0    0  505  501  0.00000000000E+00  0.00000000000E+00  0.53595670233E+03  0.53595670233E+03  0.00000000000E+00 0. -1.
         21   -1    0    0  503  502 -0.00000000000E+00 -0.00000000000E+00 -0.32238433175E+03  0.32238433175E+03  0.00000000000E+00 0.  1.
         21    1    1    2  503  501 -0.11129522866E+02  0.14109994188E+03  0.44658491904E+03  0.46847748056E+03  0.00000000000E+00 0. -1.
         21    1    1    2  504  506 -0.81588567799E+01 -0.14043692686E+03 -0.76698002447E+02  0.16022384638E+03  0.00000000000E+00 0.  1.
         21    1    1    2  505  504 -0.10986195857E+02 -0.49905397839E+02  0.11302473302E+02  0.52335371744E+02  0.00000000000E+00 0.  1.
         21    1    1    2  506  502  0.30274575502E+02  0.49242382817E+02 -0.16761701931E+03  0.17730433540E+03  0.00000000000E+00 0.  1.
<scales pt_clust_3="144.96987" pt_clust_4="39.55933" pt_clust_5="39.55933" pt_clust_6="57.80452"></scales>
<clustering>
<clus scale="   39.559">  4  5 -1 -1</clus>
<clus scale="   57.805">  2  6  1 -1</clus>
<clus scale="  144.970">  1  3  2 -1</clus>
<clus scale="  144.970">  1  3  2 -1</clus>
</clustering>
</event>
<event>
 6    0  0.5563122E+002  0.1167171E+03  0.7546771E-02  0.1248613E+00
         21   -1    0    0  505  501  0.00000000000E+00  0.00000000000E+00  0.31131884702E+02  0.31131884702E+02  0.00000000000E+00 0.  1.
         21   -1    0    0  504  502 -0.00000000000E+00 -0.00000000000E+00 -0.11199117761E+04  0.11199117761E+04  0.00000000000E+00 0. -1.
         21    1    1    2  503  502  0.65144929340E+01 -0.11103258758E+03 -0.62553824559E+03  0.63534932975E+03  0.00000000000E+00 0. -1.
         21    1    1    2  504  501 -0.44600947208E+02 -0.34448020968E+02 -0.11049569731E+03  0.12403713059E+03  0.00000000000E+00 0. -1.
         21    1    1    2  505  506  0.33271422778E+02  0.10598366729E+02 -0.82375330018E+02  0.89470709992E+02  0.00000000000E+00 0. -1.
         21    1    1    2  506  503  0.48150314964E+01  0.13488224182E+03 -0.27037061851E+03  0.30218649050E+03  0.00000000000E+00 0.  1.
<scales pt_clust_3="116.71705" pt_clust_4="48.39071" pt_clust_5="34.91866" pt_clust_6="14000.00000"></scales>
<clustering>
<clus scale="   34.919">  1  5  2 -1</clus>
<clus scale="   48.391">  1  4  2 -1</clus>
<clus scale="  116.717">  2  3  1 -1</clus>
<clus scale="   34.919">  1  3  2 -1</clus>
</clustering>
</event>
<event>
 6    0  0.5563122E+002  0.1285184E+03  0.7546771E-02  0.1229671E+00
         21   -1    0    0  506  501  0.00000000000E+00  0.00000000000E+00  0.71439683916E+03  0.71439683916E+03  0.00000000000E+00 0.  1.
         21   -1    0    0  505  502 -0.00000000000E+00 -0.00000000000E+00 -0.54813108839E+03  0.54813108839E+03  0.00000000000E+00 0.  1.
         21    1    1    2  503  501 -0.74135483821E+02  0.53632630008E+02 -0.16801984900E+02  0.93031369223E+02  0.00000000000E+00 0.  1.
         21    1    1    2  504  502  0.77182900912E+02 -0.14220115186E+03 -0.39758117268E+03  0.42924253827E+03  0.00000000000E+00 0.  1.
         21    1    1    2  505  503  0.10845288605E+02  0.31909926567E+02 -0.74890184569E+02  0.82124317003E+02  0.00000000000E+00 0.  1.
         21    1    1    2  506  504 -0.13892705697E+02  0.56658595289E+02  0.65553909293E+03  0.65812970306E+03  0.00000000000E+00 0.  1.
<scales pt_clust_3="128.51843" pt_clust_4="14000.00000" pt_clust_5="33.70258" pt_clust_6="58.41536"></scales>
<clustering>
<clus scale="   33.703">  2  5  1 -1</clus>
<clus scale="   58.415">  1  6  2 -1</clus>
<clus scale="  128.518">  1  3  2 -1</clus>
<clus scale="   58.415">  1  3  2 -1</clus>
</clustering>
</event>
<event>
 6    0  0.5563122E+002  0.1964005E+03  0.7546771E-02  0.1152812E+00
         21   -1    0    0  504  501  0.00000000000E+00  0.00000000000E+00  0.13717413027E+03  0.13717413027E+03  0.00000000000E+00 0.  1.
         21   -1    0    0  506  502 -0.00000000000E+00 -0.00000000000E+00 -0.16970658557E+04  0.16970658557E+04  0.00000000000E+00 0.  1.
         21    1    1    2  503  505  0.84471397110E+02  0.10448528942E+03 -0.21468033639E+00  0.13436010837E+03  0.00000000000E+00 0.  1.
         21    1    1    2  504  503  0.12694242042E+02  0.69205984506E+02 -0.14848316561E+01  0.70376251658E+02  0.00000000000E+00 0.  1.
         21    1    1    2  505  502  0.29016544679E+01 -0.31977427363E+02 -0.13815315256E+04  0.13819046030E+04  0.00000000000E+00 0.  1.
         21    1    1    2  506  501 -0.10006729362E+03 -0.14171384656E+03 -0.17666068787E+03  0.24759902302E+03  0.00000000000E+00 0.  1.
<scales pt_clust_3="34.48340" pt_clust_4="34.48340" pt_clust_5="32.10881" pt_clust_6="190.44395"></scales>
<clustering>
<clus scale="   32.109">  2  5  1 -1</clus>
<clus scale="   34.483">  3  4 -1 -1</clus>
<clus scale="  190.444">  2  6  1 -1</clus>
<clus scale="  196.401">  1  3  2 -1</clus>
</clustering>
</event>
<event>
 6    0  0.5563122E+002  0.7858721E+02  0.7546771E-02  0.1333109E+00
         21   -1    0    0  504  501  0.00000000000E+00  0.00000000000E+00  0.15906261148E+03  0.15906261148E+03  0.00000000000E+00 0. -1.
         21   -1    0    0  505  502 -0.00000000000E+00 -0.00000000000E+00 -0.45602846431E+03  0.45602846431E+03  0.00000000000E+00 0.  1.
         21    1    1    2  503  501 -0.68746326958E+01  0.77174097657E+02  0.12100919523E+03  0.14368829895E+03  0.00000000000E+00 0. -1.
         21    1    1    2  504  502  0.24232387552E+02 -0.89853719649E+02 -0.11902679364E+03  0.15109029467E+03  0.00000000000E+00 0.  1.
         21    1    1    2  505  506  0.11345909996E+02 -0.35793365396E+02 -0.22083578412E+03  0.22400521920E+03  0.00000000000E+00 0.  1.
         21    1    1    2  506  503 -0.28703664853E+02  0.48472987389E+02 -0.78112470307E+02  0.96307262965E+02  0.00000000000E+00 0.  1.
<scales pt_clust_3="78.58721" pt_clust_4="14000.00000" pt_clust_5="37.54856" pt_clust_6="42.79541"></scales>
<clustering>
<clus scale="   37.549">  2  5  1 -1</clus>
<clus scale="   42.795">  2  6  1 -1</clus>
<clus scale="   78.587">  1  3  2 -1</clus>
<clus scale="   78.587">  1  3  2 -1</clus>
</clustering>
</event>
<event>
 6    0  0.5563122E+002  0.1397577E+03  0.7546771E-02  0.1213655E+00
         21   -1    0    0  503  501  0.00000000000E+00  0.00000000000E+00  0.11779132804E+04  0.11779132804E+04  0.00000000000E+00 0. -1.
         21   -1    0    0  506  502 -0.00000000000E+00 -0.00000000000E+00 -0.48893598247E+02  0.48893598247E+02  0.00000000000E+00 0. -1.
         21    1    1    2  503  505  0.50055740017E+02  0.54607080586E+02  0.11743398027E+03  0.13884613815E+03  0.00000000000E+00 0.  1.
         21    1    1    2  504  501 -0.64760605968E+02 -0.10337152581E+03  0.91408510119E+03  0.92218825662E+03  0.00000000000E+00 0. -1.
         21    1    1    2  505  502  0.44885830507E+02  0.77871195140E+02  0.51751117723E+02  0.10371518210E+03  0.00000000000E+00 0. -1.
         21    1    1    2  506  504 -0.30180964556E+02 -0.29106749912E+02  0.45749483016E+02  0.62057301812E+02  0.00000000000E+00 0. -1.
<scales pt_clust_3="59.67985" pt_clust_4="126.03258" pt_clust_5="59.67985" pt_clust_6="41.92963"></scales>
<clustering>
<clus scale="   41.930">  2  6  1 -1</clus>
<clus scale="   59.680">  3  5 -1 -1</clus>
<clus scale="  126.033">  1  4  2 -1</clus>
<clus scale="  126.033">  1  3  2 -1</clus>
</clustering>
</event>
<event>
 6    0  0.5563122E+002  0.2373944E+03  0.7546771E-02  0.1121541E+00
         21   -1    0    0  503  501  0.00000000000E+00  0.00000000000E+00  0.16546238305E+03  0.16546238305E+03  0.00000000000E+00 0. -1.
         21   -1    0    0  504  502 -0.00000000000E+00 -0.00000000000E+00 -0.12950855827E+04  0.12950855827E+04  0.00000000000E+00 0. -1.
         21    1    1    2  503  505  0.64946830048E+02  0.27305283112E+02  0.63315694811E+01  0.70737246138E+02  0.00000000000E+00 0. -1.
         21    1    1    2  504  501 -0.38448940892E+02  0.19577139061E+02 -0.90405724034E+03  0.90508622752E+03  0.00000000000E+00 0. -1.
         21    1    1    2  505  506  0.16083158018E+03 -0.77419890722E+02  0.81788587498E+01  0.17868276467E+03  0.00000000000E+00 0. -1.
         21    1    1    2  506  502 -0.18732946933E+03  0.30537468549E+02 -0.24007638751E+03  0.30604172739E+03  0.00000000000E+00 0. -1.
<scales pt_clust_3="58.60128" pt_clust_4="43.14609" pt_clust_5="58.60128" pt_clust_6="218.73195"></scales>
<clustering>
<clus scale="   43.146">  2  4  1 -1</clus>
<clus scale="   58.601">  3  5 -1 -1</clus>
<clus scale="  218.732">  2  6  1 -1</clus>
<clus scale="  237.394">  1  3  2 -1</clus>
</clustering>
</event>
<event>
 6    0  0.5563122E+002  0.2933329E+03  0.7546771E-02  0.1088622E+00
         21   -1    0    0  506  501  0.00000000000E+00  0.00000000000E+00  0.86037489787E+03  0.86037489787E+03  0.00000000000E+00 0.  1.
         21   -1    0    0  504  502 -0.00000000000E+00 -0.00000000000E+00 -0.43091448131E+03  0.43091448131E+03  0.00000000000E+00 0. -1.
         21    1    1    2  503  501 -0.11154875022E+01 -0.60264412853E+02  0.39389600726E+03  0.39848100119E+03  0.00000000000E+00 0.  1.
         21    1    1    2  504  503  0.15240912002E+03 -0.19495342108E+03  0.31445282999E+03  0.40014492193E+03  0.00000000000E+00 0.  1.
         21    1    1    2  505  502 -0.12733168074E+03  0.27380398964E+03 -0.32104020451E+03  0.44073664992E+03  0.00000000000E+00 0. -1.
         21    1    1    2  506  505 -0.23961951773E+02 -0.18586155713E+02  0.42151783828E+02  0.51926806148E+02  0.00000000000E+00 0. -1.
<scales pt_clust_3="70.48769" pt_clust_4="14000.00000" pt_clust_5="293.33294" pt_clust_6="30.32524"></scales>
<clustering>
<clus scale="   30.325">  1  6  2 -1</clus>
<clus scale="   70.488">  1  3  2 -1</clus>
<clus scale="  293.333">  2  5  1 -1</clus>
<clus scale="   30.325">  1  3  2 -1</clus>
</clustering>
</event>
<event>
 6    0  0.5563122E+002  0.1123137E+03  0.7546771E-02  0.1256344E+00
         21   -1    0    0  503  501  0.00000000000E+00  0.00000000000E+00  0.14200163091E+04  0.14200163091E+04  0.00000000000E+00 0. -1.
         21   -1    0    0  505  502 -0.00000000000E+00 -0.00000000000E+00 -0.13458574661E+03  0.13458574661E+03  0.00000000000E+00 0.  1.
         21    1    1    2  503  506  0.45132635304E+02  0.15249273054E+02 -0.46771915659E+02  0.66761569728E+02  0.00000000000E+00 0.  1.
         21    1    1    2  504  501 -0.10262865249E+03  0.63909519074E+01  0.13582156546E+04  0.13621025105E+04  0.00000000000E+00 0. -1.
         21    1    1    2  505  504 -0.29502140106E+02 -0.18720837143E+02 -0.18941399810E+00  0.34941120358E+02  0.00000000000E+00 0.  1.
         21    1    1    2  506  502  0.86998157296E+02 -0.29193878181E+01 -0.25823762468E+02  0.90796855156E+02  0.00000000000E+00 0.  1.
<scales pt_clust_3="32.61729" pt_clust_4="103.29770" pt_clust_5="34.94061" pt_clust_6="32.61729"></scales>
<clustering>
<clus scale="   32.617">  3  6 -1 -1</clus>
<clus scale="   34.941">  2  5  1 -1</clus>
<clus scale="  103.298">  1  4  2 -1</clus>
<clus scale="  103.298">  1  3  2 -1</clus>
</clustering>
</event>
<event>
 6    0  0.5563122E+002  0.1032578E+03  0.7546771E-02  0.1273591E+00
         21   -1    0    0  505  501  0.00000000000E+00  0.00000000000E+00  0.11574837138E+03  0.11574837138E+03  0.00000000000E+00 0.  1.
         21   -1    0    0  504  502 -0.00000000000E+00 -0.00000000000E+00 -0.13173880695E+04  0.13173880695E+04  0.00000000000E+00 0.  1.
         21    1    1    2  503  501  0.23911760706E+00  0.95508738328E+02 -0.56082133855E+03  0.56889590441E+03  0.00000000000E+00 0.  1.
         21    1    1    2  504  503 -0.23837056170E+02 -0.33580405620E+02 -0.44890259616E+03  0.45078752171E+03  0.00000000000E+00 0.  1.
         21    1    1    2  505  506  0.76895649919E+02 -0.71416715943E+02  0.82661631428E+02  0.13358979603E+03  0.00000000000E+00 0.  1.
         21    1    1    2  506  502 -0.53297711356E+02  0.94883832353E+01 -0.27457739484E+03  0.27986321875E+03  0.00000000000E+00 0.  1.
<scales pt_clust_3="14000.00000" pt_clust_4="41.18069" pt_clust_5="103.25778" pt_clust_6="60.92742"></scales>
<clustering>
<clus scale="   41.181">  2  4  1 -1</clus>
<clus scale="   60.927">  2  6  1 -1</clus>
<clus scale="  103.258">  1  5  2 -1</clus>
<clus scale="  103.258">  1  3  2 -1</clus>
</clustering>
</event>
<event>
 6    0  0.5563122E+002  0.1082283E+03  0.7546771E-02  0.1263886E+00
         21   -1    0    0  506  501  0.00000000000E+00  0.00000000000E+00  0.20865648116E+02  0.20865648116E+02  0.00000000000E+00 0. -1.
         21   -1    0    0  504  502 -0.00000000000E+00 -0.00000000000E+00 -0.19890869990E+04  0.19890869990E+04  0.00000000000E+00 0. -1.
         21    1    1    2  503  502  0.34514843345E+02 -0.10835895434E+03 -0.54364699819E+03  0.55541425624E+03  0.00000000000E+00 0. -1.
         21    1    1    2  504  501 -0.80940630859E+02  0.74984810908E+02 -0.11848418012E+04  0.11899681515E+04  0.00000000000E+00 0. -1.
         21    1    1    2  505  503  0.56783180824E+02 -0.17352084208E+02 -0.14340984707E+03  0.15521536228E+03  0.00000000000E+00 0. -1.
         21    1    1    2  506  505 -0.10357393310E+02  0.50726227642E+02 -0.96322704396E+02  0.10935487712E+03  0.00000000000E+00 0. -1.
<scales pt_clust_3="108.22834" pt_clust_4="14000.00000" pt_clust_5="52.64007" pt_clust_6="51.77283"></scales>
<clustering>
<clus scale="   51.773">  1  6  2 -1</clus>
<clus scale="   52.640">  1  5  2 -1</clus>
<clus scale="  108.228">  1  3  2 -1</clus>
<clus scale="   51.773">  1  3  2 -1</clus>
</clustering>
</event>
<event>
 6    0  0.5563122E+002  0.1184884E+03  0.7546771E-02  0.1245612E+00
         21   -1    0    0  505  501  0.00000000000E+00  0.00000000000E+00  0.97846495105E+03  0.97846495105E+03  0.00000000000E+00 0.  1.
         21   -1    0    0  506  502 -0.00000000000E+00 -0.00000000000E+00 -0.61316246275E+02  0.61316246275E+02  0.00000000000E+00 0.  1.
         21    1    1    2  503  501 -0.82793863683E+02  0.22699988423E+02  0.13156186720E+03  0.15709436094E+03  0.00000000000E+00 0.  1.
         21    1    1    2  504  502  0.13970391406E+03  0.25570116809E+02  0.67379288716E+03  0.68859848190E+03  0.00000000000E+00 0.  1.
         21    1    1    2  505  504  0.63159234741E+01 -0.36917550813E+02  0.12326987367E+03  0.12883422760E+03  0.00000000000E+00 0.  1.
         21    1    1    2  506  503 -0.63225973852E+02 -0.11352554419E+02 -0.11475923256E+02  0.65254126889E+02  0.00000000000E+00 0.  1.
<scales pt_clust_3="118.48844" pt_clust_4="14000.00000" pt_clust_5="37.45392" pt_clust_6="64.25767"></scales>
<clustering>
<clus scale="   37.454">  1  5  2 -1</clus>
<clus scale="   64.258">  2  6  1 -1</clus>
<clus scale="  118.488">  2  3  1 -1</clus>
<clus scale="   37.454">  1  3  2 -1</clus>
</clustering>
</event>
<event>
 6    0  0.5563122E+002  0.7892870E+02  0.7546771E-02  0.1332119E+00
         21   -1    0    0  504  501  0.00000000000E+00  0.00000000000E+00  0.91052500450E+03  0.91052500450E+03  0.00000000000E+00 0.  1.
         21   -1    0    0  505  502 -0.00000000000E+00 -0.00000000000E+00 -0.71474554095E+02  0.71474554095E+02  0.00000000000E+00 0.  1.
         21    1    1    2  503  502  0.66206852554E+02 -0.43125243802E+02 -0.28128168686E+02  0.83870899910E+02  0.00000000000E+00 0.  1.
         21    1    1    2  504  503 -0.92758609732E+02 -0.24140439683E+01  0.24197361706E+03  0.25915481597E+03  0.00000000000E+00 0.  1.
         21    1    1    2  505  506 -0.15654422105E+02  0.71796831274E+02  0.47769391775E+03  0.48331286448E+03  0.00000000000E+00 0.  1.
         21    1    1    2  506  501  0.42206179283E+02 -0.26257543504E+02  0.14751108428E+03  0.15566097823E+03  0.00000000000E+00 0.  1.
<scales pt_clust_3="14000.00000" pt_clust_4="78.92870" pt_clust_5="56.27161" pt_clust_6="49.70735"></scales>
<clustering>
<clus scale="   49.707">  1  6  2 -1</clus>
<clus scale="   56.272">  1  5  2 -1</clus>
<clus scale="   78.929">  1  4  2 -1</clus>
<clus scale="   49.707">  1  3  2 -1</clus>
</clustering>
</event>
<event>
 6    0  0.5563122E+002  0.1325371E+03  0.7546771E-02  0.1223739E+00
         21   -1    0    0  503  501  0.00000000000E+00  0.00000000000E+00  0.24748396002E+03  0.24748396002E+03  0.00000000000E+00 0. -1.
         21   -1    0    0  505  502 -0.00000000000E+00 -0.00000000000E+00 -0.94950181476E+02  0.94950181476E+02  0.00000000000E+00 0. -1.
         21    1    1    2  503  504 -0.16783497875E+00  0.34009487140E+02  0.66775198466E+02  0.74937310562E+02  0.00000000000E+00 0. -1.
         21    1    1    2  504  506 -0.37104970241E+02  0.65300159138E+02  0.34080713436E+02  0.82476570178E+02  0.00000000000E+00 0. -1.
         21    1    1    2  505  501  0.84208275025E+02 -0.99890118699E+02  0.35735740197E+02  0.13544782215E+03  0.00000000000E+00 0. -1.
         21    1    1    2  506  502 -0.46935469805E+02  0.58047242158E+00  0.15942126443E+02  0.49572438608E+02  0.00000000000E+00 0. -1.
<scales pt_clust_3="34.00990" pt_clust_4="44.39248" pt_clust_5="118.46725" pt_clust_6="44.39248"></scales>
<clustering>
<clus scale="   34.010">  1  3  2 -1</clus>
<clus scale="   44.392">  4  6 -1 -1</clus>
<clus scale="  118.467">  1  5  2 -1</clus>
<clus scale="   34.010">  1  3  2 -1</clus>
</clustering>
</event>
<event>
 6    0  0.5563122E+002  0.2067631E+03  0.7546771E-02  0.1144155E+00
         21   -1    0    0  506  501  0.00000000000E+00  0.00000000000E+00  0.18227957770E+03  0.18227957770E+03  0.00000000000E+00 0. -1.
         21   -1    0    0  505  502 -0.00000000000E+00 -0.00000000000E+00 -0.16664130891E+04  0.16664130891E+04  0.00000000000E+00 0. -1.
         21    1    1    2  503  501 -0.65655212614E+02 -0.24009562905E+02  0.17670659776E+02  0.72106298416E+02  0.00000000000E+00 0. -1.
         21    1    1    2  504  502  0.98132816573E+02 -0.16552050974E+03 -0.32668940372E+03  0.37914780144E+03  0.00000000000E+00 0.  1.
         21    1    1    2  505  503  0.33208255245E+02 -0.69407908748E+01 -0.11893086936E+04  0.11897924741E+04  0.00000000000E+00 0. -1.
         21    1    1    2  506  504 -0.65685859204E+02  0.19647086352E+03  0.14193926174E+02  0.20764609279E+03  0.00000000000E+00 0. -1.
<scales pt_clust_3="68.27115" pt_clust_4="14000.00000" pt_clust_5="33.92584" pt_clust_6="206.76313"></scales>
<clustering>
<clus scale="   33.926">  2  5  1 -1</clus>
<clus scale="   68.271">  1  3  2 -1</clus>
<clus scale="  206.763">  1  6  2 -1</clus>
<clus scale="   68.271">  1  3  2 -1</clus>
</clustering>
</event>
<event>
 6    0  0.5563122E+002  0.2134111E+03  0.7546771E-02  0.1138893E+00
         21   -1    0    0  506  501  0.00000000000E+00  0.00000000000E+00  0.23474761351E+04  0.23474761351E+04  0.00000000000E+00 0. -1.
         21   -1    0    0  505  502 -0.00000000000E+00 -0.00000000000E+00 -0.13105344125E+04  0.13105344125E+04  0.00000000000E+00 0. -1.
         21    1    1    2  503  501  0.21265161354E+03  0.10004937631E+03  0.16594207667E+04  0.16759796739E+04  0.00000000000E+00 0. -1.
         21    1    1    2  504  502 -0.54545055191E+02 -0.16456794534E+03 -0.12484319095E+04  0.12604126326E+04  0.00000000000E+00 0. -1.
         21    1    1    2  505  503 -0.50499990236E+02 -0.22245971426E+02 -0.21761314395E+02  0.59318522088E+02  0.00000000000E+00 0. -1.
         21    1    1    2  506  504 -0.10760656812E+03  0.86764540448E+02  0.64771417982E+03  0.66229971895E+03  0.00000000000E+00 0. -1.
<scales pt_clust_3="14000.00000" pt_clust_4="213.41108" pt_clust_5="55.18272" pt_clust_6="138.37486"></scales>
<clustering>
<clus scale="   55.183">  2  5  1 -1</clus>
<clus scale="  138.375">  1  6  2 -1</clus>
<clus scale="  213.411">  2  4  1 -1</clus>
<clus scale="  138.375">  1  3  2 -1</clus>
</clustering>
</event>
<event>
 6    0  0.5563122E+002  0.1127556E+03  0.7546771E-02  0.1255550E+00
         21   -1    0    0  506  501  0.00000000000E+00  0.00000000000E+00  0.11930857983E+04  0.11930857983E+04  0.00000000000E+00 0.  1.
         21   -1    0    0  503  502 -0.00000000000E+00 -0.00000000000E+00 -0.61903974782E+02  0.61903974782E+02  0.00000000000E+00 0.  1.
         21    1    1    2  503  501  0.10084088376E+03 -0.12318582841E+03  0.78114497813E+03  0.79720205031E+03  0.00000000000E+00 0.  1.
         21    1    1    2  504  505 -0.32748961357E+02  0.31049856318E+02  0.22816797449E+02  0.50568708637E+02  0.00000000000E+00 0.  1.
         21    1    1    2  505  502 -0.14845162097E+02  0.26819481684E+02 -0.28377533598E+02  0.41772572922E+02  0.00000000000E+00 0.  1.
         21    1    1    2  506  504 -0.53246760304E+02  0.65316490408E+02  0.35559758156E+03  0.36544644124E+03  0.00000000000E+00 0.  1.
<scales pt_clust_3="14000.00000" pt_clust_4="60.43363" pt_clust_5="30.65393" pt_clust_6="112.75556"></scales>
<clustering>
<clus scale="   30.654">  2  5  1 -1</clus>
<clus scale="   60.434">  2  4  1 -1</clus>
<clus scale="  112.756">  1  6  2 -1</clus>
<clus scale="  112.756">  1  3  2 -1</clus>
</clustering>
</event>
<event>
 6    0  0.5563122E+002  0.1980884E+03  0.7546771E-02  0.1151362E+00
         21   -1    0    0  503  501  0.00000000000E+00  0.00000000000E+00  0.11566809202E+04  0.11566809202E+04  0.00000000000E+00 0.  1.
         21   -1    0    0  504  502 -0.00000000000E+00 -0.00000000000E+00 -0.35537879615E+03  0.35537879615E+03  0.00000000000E+00 0. -1.
         21    1    1    2  503  502  0.31627408978E+02 -0.13355714237E+02  0.15396789850E+03  0.15774911052E+03  0.00000000000E+00 0.  1.
         21    1    1    2  504  506  0.17141965212E+03  0.67761653613E+02 -0.31595979762E+03  0.36579629925E+03  0.00000000000E+00 0. -1.
         21    1    1    2  505  501 -0.38483591380E+02 -0.17144357215E+02  0.34671827148E+03  0.34926848637E+03  0.00000000000E+00 0. -1.
         21    1    1    2  506  505 -0.16456346972E+03 -0.37261582161E+02  0.61657575165E+03  0.63924582017E+03  0.00000000000E+00 0.  1.
<scales pt_clust_3="34.33174" pt_clust_4="184.93776" pt_clust_5="34.12125" pt_clust_6="34.12125"></scales>
<clustering>
<clus scale="   34.332">  1  3  2 -1</clus>
<clus scale="   34.121">  5  6 -1 -1</clus>
<clus scale="  184.938">  2  4  1 -1</clus>
<clus scale="   34.332">  1  3  2 -1</clus>
</clustering>
</event>
<event>
 6    0  0.5563122E+002  0.2069814E+03  0.7546771E-02  0.1143979E+00
         21   -1    0    0  506  501  0.00000000000E+00  0.00000000000E+00  0.80417446537E+03  0.80417446537E+03  0.00000000000E+00 0.  1.
         21   -1    0    0  504  502 -0.00000000000E+00 -0.00000000000E+00 -0.85907756591E+02  0.85907756591E+02  0.00000000000E+00 0.  1.
         21    1    1    2  503  501  0.39066804191E+02 -0.90501489819E+01  0.29434235062E+03  0.29706150837E+03  0.00000000000E+00 0.  1.
         21    1    1    2  504  505 -0.11659849235E+03  0.65917052782E+02  0.76786079001E+02  0.15439031121E+03  0.00000000000E+00 0.  1.
         21    1    1    2  505  503 -0.17663237912E+02  0.82243171127E+02  0.52428035893E+02  0.99119262094E+02  0.00000000000E+00 0.  1.
         21    1    1    2  506  502  0.95194926072E+02 -0.13911007493E+03  0.29471024327E+03  0.33951114029E+03  0.00000000000E+00 0.  1.
<scales pt_clust_3="40.10138" pt_clust_4="70.40895" pt_clust_5="70.40895" pt_clust_6="187.74493"></scales>
<clustering>
<clus scale="   40.101">  1  3  2 -1</clus>
<clus scale="   70.409">  4  5 -1 -1</clus>
<clus scale="  187.745">  1  6  2 -1</clus>
<clus scale="   40.101">  1  3  2 -1</clus>
</clustering>
</event>
<event>
 6    0  0.5563122E+002  0.1163862E+03  0.7546771E-02  0.1249181E+00
         21   -1    0    0  504  501  0.00000000000E+00  0.00000000000E+00  0.11563146132E+03  0.11563146132E+03  0.00000000000E+00 0.  1.
         21   -1    0    0  506  502 -0.00000000000E+00 -0.00000000000E+00 -0.55455016501E+03  0.55455016501E+03  0.00000000000E+00 0.  1.
         21    1    1    2  503  505  0.17454746350E+02 -0.91906905502E+02 -0.20250909373E+03  0.22307281433E+03  0.00000000000E+00 0.  1.
         21    1    1    2  504  503  0.84011079907E+02 -0.52273302024E+02 -0.25126678566E+02  0.10208677499E+03  0.00000000000E+00 0.  1.
         21    1    1    2  505  502 -0.18391440416E+02  0.28054290143E+02 -0.19889504878E+03  0.20170406219E+03  0.00000000000E+00 0. -1.
         21    1    1    2  506  501 -0.83074385841E+02  0.11612591738E+03 -0.12387882604E+02  0.14331797482E+03  0.00000000000E+00 0.  1.
<scales pt_clust_3="75.32828" pt_clust_4="14000.00000" pt_clust_5="33.54532" pt_clust_6="116.38616"></scales>
<clustering>
<clus scale="   33.545">  2  5  1 -1</clus>
<clus scale="   75.328">  2  3  1 -1</clus>
<clus scale="  116.386">  2  6  1 -1</clus>
<clus scale="  116.386">  1  3  2 -1</clus>
</clustering>
</event>
<event>
 6    0  0.5563122E+002  0.1022625E+03  0.7546771E-02  0.1275609E+00
         21   -1    0    0  505  501  0.00000000000E+00  0.00000000000E+00  0.22163019702E+03  0.22163019702E+03  0.00000000000E+00 0.  1.
         21   -1    0    0  504  502 -0.00000000000E+00 -0.00000000000E+00 -0.41727575797E+03  0.41727575797E+03  0.00000000000E+00 0. -1.
         21    1    1    2  503  506  0.54700376925E+02 -0.48529139041E+02  0.18951696229E+02  0.75540554418E+02  0.00000000000E+00 0.  1.
         21    1    1    2  504  503 -0.74418833287E+02  0.27426837784E+02 -0.31522413419E+03  0.32504868705E+03  0.00000000000E+00 0. -1.
         21    1    1    2  505  502 -0.69410866725E+02  0.38239530682E+02  0.12161827576E+03  0.14515899946E+03  0.00000000000E+00 0.  1.
         21    1    1    2  506  501  0.89129323087E+02 -0.17137229425E+02 -0.20991398755E+02  0.93157714055E+02  0.00000000000E+00 0. -1.
<scales pt_clust_3="52.76671" pt_clust_4="83.67636" pt_clust_5="79.24727" pt_clust_6="52.76671"></scales>
<clustering>
<clus scale="   52.767">  3  6 -1 -1</clus>
<clus scale="   79.247">  1  5  2 -1</clus>
<clus scale="   83.676">  2  4  1 -1</clus>
<clus scale="   79.247">  1  3  2 -1</clus>
</clustering>
</event>
<event>
 6    0  0.5563122E+002  0.1487353E+03  0.7546771E-02  0.1202036E+00
         21   -1    0    0  505  501  0.00000000000E+00  0.00000000000E+00  0.59033934524E+02  0.59033934524E+02  0.00000000000E+00 0.  1.
         21   -1    0    0  504  502 -0.00000000000E+00 -0.00000000000E+00 -0.12502101560E+04  0.12502101560E+04  0.00000000000E+00 0.  1.
         21    1    1    2  503  502  0.17792584321E+02  0.44116835482E+02 -0.37182743692E+03  0.37485799188E+03  0.00000000000E+00 0. -1.
         21    1    1    2  504  501 -0.44773337440E+02  0.79703665302E+02 -0.52145476171E+03  0.52940758827E+03  0.00000000000E+00 0.  1.
         21    1    1    2  505  506 -0.91857399124E+01 -0.15743461023E+03 -0.71307198754E+02  0.17307440859E+03  0.00000000000E+00 0.  1.
         21    1    1    2  506  503  0.36166493032E+02  0.33614109441E+02 -0.22658682408E+03  0.23190410178E+03  0.00000000000E+00 0.  1.
<scales pt_clust_3="32.65651" pt_clust_4="91.41841" pt_clust_5="144.96642" pt_clust_6="32.65651"></scales>
<clustering>
<clus scale="   32.657">  3  6 -1 -1</clus>
<clus scale="   91.418">  2  4  1 -1</clus>
<clus scale="  144.966">  1  5  2 -1</clus>
<clus scale="  144.966">  1  3  2 -1</clus>
</clustering>
</event>
<event>
 6    0  0.5563122E+002  0.8532671E+02  0.7546771E-02  0.1314580E+00
         21   -1    0    0  504  501  0.00000000000E+00  0.00000000000E+00  0.30257135507E+03  0.30257135507E+03  0.00000000000E+00 0. -1.
         21   -1    0    0  506  502 -0.00000000000E+00 -0.00000000000E+00 -0.62110029878E+03  0.62110029878E+03  0.00000000000E+00 0.  1.
         21    1    1    2  503  501 -0.35898946737E+02  0.14898612055E+02  0.25009242553E+03  0.25309469438E+03  0.00000000000E+00 0. -1.
         21    1    1    2  504  505 -0.40393174789E+02 -0.98542067612E+02 -0.75469623274E+02  0.13052896880E+03  0.00000000000E+00 0.  1.
         21    1    1    2  505  502  0.24487882719E+02  0.78939969560E+02 -0.47908514305E+03  0.48616226662E+03  0.00000000000E+00 0.  1.
         21    1    1    2  506  503  0.51804238808E+02  0.47034859973E+01 -0.14066602916E+02  0.53885724052E+02  0.00000000000E+00 0.  1.
<scales pt_clust_3="38.86776" pt_clust_4="85.32671" pt_clust_5="14000.00000" pt_clust_6="39.22155"></scales>
<clustering>
<clus scale="   38.868">  1  3  2 -1</clus>
<clus scale="   39.222">  1  6  2 -1</clus>
<clus scale="   85.327">  1  4  2 -1</clus>
<clus scale="   38.868">  1  3  2 -1</clus>
</clustering>
</event>
<event>
 6    0  0.5563122E+002  0.1856346E+03  0.7546771E-02  0.1162459E+00
         21   -1    0    0  502  501  0.00000000000E+00  0.00000000000E+00  0.35408284139E+03  0.35408284139E+03  0.00000000000E+00 0. -1.
         21   -1    0    0  504  502 -0.00000000000E+00 -0.00000000000E+00 -0.26608785016E+04  0.26608785016E+04  0.00000000000E+00 0.  1.
         21    1    1    2  503  501  0.24026068623E+02  0.75593134874E+02  0.24509289641E+03  0.25760842744E+03  0.00000000000E+00 0. -1.
         21    1    1    2  504  505  0.15866413763E+03  0.20098260188E+02 -0.25244774654E+04  0.25295384405E+04  0.00000000000E+00 0.  1.
         21    1    1    2  505  506 -0.15208318260E+03 -0.50103028427E+02 -0.51004026101E+02  0.16805064286E+03  0.00000000000E+00 0. -1.
         21    1    1    2  506  503 -0.30607023659E+02 -0.45588366636E+02  0.23592934840E+02  0.59763832241E+02  0.00000000000E+00 0.  1.
<scales pt_clust_3="79.31944" pt_clust_4="160.76290" pt_clust_5="54.35478" pt_clust_6="54.35478"></scales>
<clustering>
<clus scale="   54.355">  5  6 -1 -1</clus>
<clus scale="   79.319">  1  3  2 -1</clus>
<clus scale="  160.763">  2  4  1 -1</clus>
<clus scale="   79.319">  1  3  2 -1</clus>
</clustering>
</event>
<event>
 6    0  0.5563122E+002  0.1940900E+03  0.7546771E-02  0.1154823E+00
         21   -1    0    0  504  501  0.00000000000E+00  0.00000000000E+00  0.70938785616E+03  0.70938785616E+03  0.00000000000E+00 0. -1.
         21   -1    0    0  505  502 -0.00000000000E+00 -0.00000000000E+00 -0.20507834864E+03  0.20507834864E+03  0.00000000000E+00 0. -1.
         21    1    1    2  503  501 -0.71775486318E+01 -0.36904108691E+02  0.13545225282E+02  0.39961275888E+02  0.00000000000E+00 0. -1.
         21    1    1    2  504  506 -0.93390207437E+01 -0.36057843850E+02  0.52997178385E+03  0.53127909529E+03  0.00000000000E+00 0. -1.
         21    1    1    2  505  503  0.97649716748E+02 -0.10185611227E+03  0.17854212247E+02  0.14222836455E+03  0.00000000000E+00 0. -1.
         21    1    1    2  506  502 -0.81133147372E+02  0.17481806481E+03 -0.57061713856E+02  0.20099746907E+03  0.00000000000E+00 0. -1.
<scales pt_clust_3="35.64074" pt_clust_4="37.24762" pt_clust_5="35.64074" pt_clust_6="181.39294"></scales>
<clustering>
<clus scale="   35.641">  3  5 -1 -1</clus>
<clus scale="   37.248">  1  4  2 -1</clus>
<clus scale="  181.393">  2  6  1 -1</clus>
<clus scale="   37.248">  1  3  2 -1</clus>
</clustering>
</event>
<event>
 6    0  0.5563122E+002  0.9584091E+02  0.7546771E-02  0.1289293E+00
         21   -1    0    0  504  501  0.00000000000E+00  0.00000000000E+00  0.26603885426E+03  0.26603885426E+03  0.00000000000E+00 0. -1.
         21   -1    0    0  503  502 -0.00000000000E+00 -0.00000000000E+00 -0.17101367501E+03  0.17101367501E+03  0.00000000000E+00 0. -1.
         21    1    1    2  503  505  0.69680777706E+02 -0.11448090505E+03 -0.81131188544E+02  0.15666383806E+03  0.00000000000E+00 0. -1.
         21    1    1    2  504  506 -0.47234663592E+02  0.18616312575E+02  0.42974202484E+02  0.66516634143E+02  0.00000000000E+00 0. -1.
         21    1    1    2  505  501 -0.95668148645E+01  0.28933671346E+02  0.14192041244E+03  0.14515538140E+03  0.00000000000E+00 0. -1.
         21    1    1    2  506  502 -0.12879299249E+02  0.66930921126E+02 -0.87382471284E+01  0.68716675668E+02  0.00000000000E+00 0. -1.
<scales pt_clust_3="14000.00000" pt_clust_4="60.40265" pt_clust_5="30.47427" pt_clust_6="95.84091"></scales>
<clustering>
<clus scale="   30.474">  1  5  2 -1</clus>
<clus scale="   60.403">  1  4  2 -1</clus>
<clus scale="   95.841">  2  6  1 -1</clus>
<clus scale="   30.474">  1  3  2 -1</clus>
</clustering>
</event>
<event>
 6    0  0.5563122E+002  0.2538101E+03  0.7546771E-02  0.1110920E+00
         21   -1    0    0  504  501  0.00000000000E+00  0.00000000000E+00  0.39504385046E+03  0.39504385046E+03  0.00000000000E+00 0. -1.
         21   -1    0    0  503  502 -0.00000000000E+00 -0.00000000000E+00 -0.25899264700E+03  0.25899264700E+03  0.00000000000E+00 0.  1.
         21    1    1    2  503  501  0.37391836571E+02  0.10249566718E+03 -0.30649492944E+02  0.11332653110E+03  0.00000000000E+00 0. -1.
         21    1    1    2  504  505  0.39272979604E+02 -0.41279047287E+02  0.58326514956E+02  0.81537163422E+02  0.00000000000E+00 0. -1.
         21    1    1    2  505  506  0.12985138284E+03 -0.16689218455E+03  0.77175561900E+02  0.22510097789E+03  0.00000000000E+00 0.  1.
         21    1    1    2  506  502 -0.20651619902E+03  0.10567556466E+03  0.31198619553E+02  0.23407182506E+03  0.00000000000E+00 0. -1.
<scales pt_clust_3="109.10321" pt_clust_4="31.69305" pt_clust_5="31.69305" pt_clust_6="246.35691"></scales>
<clustering>
<clus scale="   31.693">  4  5 -1 -1</clus>
<clus scale="  109.103">  2  3  1 -1</clus>
<clus scale="  246.357">  2  6  1 -1</clus>
<clus scale="  253.810">  1  3  2 -1</clus>
</clustering>
</event>
<event>
 6    0  0.5563122E+002  0.1546511E+03  0.7546771E-02  0.1194871E+00
         21   -1    0    0  506  501  0.00000000000E+00  0.00000000000E+00  0.25841454201E+03  0.25841454201E+03  0.00000000000E+00 0.  1.
         21   -1    0    0  503  502 -0.00000000000E+00 -0.00000000000E+00 -0.20901585836E+04  0.20901585836E+04  0.00000000000E+00 0. -1.
         21    1    1    2  503  504  0.12163555729E+02  0.14810832724E+03 -0.22698428096E+03  0.27130405911E+03  0.00000000000E+00 0. -1.
         21    1    1    2  504  501 -0.24973458153E+02  0.40291177953E+02 -0.84642518024E+02  0.97012414104E+02  0.00000000000E+00 0.  1.
         21    1    1    2  505  502 -0.58259599297E+02 -0.63990598712E+02 -0.17266909981E+04  0.17288582304E+04  0.00000000000E+00 0. -1.
         21    1    1    2  506  505  0.71069501721E+02 -0.12440890648E+03  0.20657375558E+03  0.25139842199E+03  0.00000000000E+00 0.  1.
<scales pt_clust_3="30.34795" pt_clust_4="30.34795" pt_clust_5="86.53888" pt_clust_6="145.01610"></scales>
<clustering>
<clus scale="   30.348">  3  4 -1 -1</clus>
<clus scale="   86.539">  2  5  1 -1</clus>
<clus scale="  145.016">  1  6  2 -1</clus>
<clus scale="  145.016">  1  3  2 -1</clus>
</clustering>
</event>
<event>
 6    0  0.5563122E+002  0.1550990E+03  0.7546771E-02  0.1194344E+00
         21   -1    0    0  503  501  0.00000000000E+00  0.00000000000E+00  0.13930864087E+04  0.13930864087E+04  0.00000000000E+00 0. -1.
         21   -1    0    0  505  502 -0.00000000000E+00 -0.00000000000E+00 -0.99158801087E+02  0.99158801087E+02  0.00000000000E+00 0. -1.
         21    1    1    2  503  504  0.11709838975E+03 -0.63979629551E+01  0.64173564636E+03  0.65236309416E+03  0.00000000000E+00 0. -1.
         21    1    1    2  504  506  0.56904612745E+02  0.20930546424E+02  0.21783114935E+03  0.22611199073E+03  0.00000000000E+00 0. -1.
         21    1    1    2  505  501 -0.11998465227E+03 -0.40392613336E+02  0.50530730651E+03  0.52092547836E+03  0.00000000000E+00 0. -1.
         21    1    1    2  506  502 -0.54018350228E+02  0.25860029867E+02 -0.70946494568E+02  0.92844646574E+02  0.00000000000E+00 0. -1.
<scales pt_clust_3="35.04270" pt_clust_4="35.04270" pt_clust_5="147.24313" pt_clust_6="59.88926"></scales>
<clustering>
<clus scale="   35.043">  3  4 -1 -1</clus>
<clus scale="   59.889">  2  6  1 -1</clus>
<clus scale="  147.243">  1  5  2 -1</clus>
<clus scale="  147.243">  1  3  2 -1</clus>
</clustering>
</event>
<event>
 6    0  0.5563122E+002  0.9755925E+02  0.7546771E-02  0.1285514E+00
         21   -1    0    0  506  501  0.00000000000E+00  0.00000000000E+00  0.53672795788E+03  0.53672795788E+03  0.00000000000E+00 0. -1.
         21   -1    0    0  503  502 -0.00000000000E+00 -0.00000000000E+00 -0.91438368941E+02  0.91438368941E+02  0.00000000000E+00 0.  1.
         21    1    1    2  503  505 -0.43011665262E+02 -0.10400356892E+03  0.14371626297E+03  0.18254070762E+03  0.00000000000E+00 0. -1.
         21    1    1    2  504  502  0.42842732846E+02 -0.14395227142E+02 -0.49280423585E+02  0.66867648911E+02  0.00000000000E+00 0.  1.
         21    1    1    2  505  501  0.39082964423E+02  0.68833725709E+02  0.21116571418E+03  0.22551389923E+03  0.00000000000E+00 0. -1.
         21    1    1    2  506  504 -0.38914032007E+02  0.49565070355E+02  0.13968803538E+03  0.15324407106E+03  0.00000000000E+00 0. -1.
<scales pt_clust_3="97.55925" pt_clust_4="45.19649" pt_clust_5="14000.00000" pt_clust_6="55.56998"></scales>
<clustering>
<clus scale="   45.196">  2  4  1 -1</clus>
<clus scale="   55.570">  1  6  2 -1</clus>
<clus scale="   97.559">  2  3  1 -1</clus>
<clus scale="   55.570">  1  3  2 -1</clus>
</clustering>
</event>
<event>
 6    0  0.5563122E+002  0.1143726E+03  0.7546771E-02  0.1252680E+00
         21   -1    0    0  504  501  0.00000000000E+00  0.00000000000E+00  0.50237347935E+03  0.50237347935E+03  0.00000000000E+00 0. -1.
         21   -1    0    0  503  502 -0.00000000000E+00 -0.00000000000E+00 -0.38150237393E+03  0.38150237393E+03  0.00000000000E+00 0. -1.
         21    1    1    2  503  506 -0.82831988740E+02 -0.25285748415E+02 -0.34696230751E+03  0.35760781628E+03  0.00000000000E+00 0. -1.
         21    1    1    2  504  502 -0.63128835499E+02  0.34415212372E+02  0.96082466645E+02  0.12000623780E+03  0.00000000000E+00 0. -1.
         21    1    1    2  505  501  0.68815021414E+02 -0.24641273681E+02  0.10350508647E+03  0.12671228223E+03  0.00000000000E+00 0. -1.
         21    1    1    2  506  505  0.77145802825E+02  0.15511809725E+02  0.26824585981E+03  0.27954951698E+03  0.00000000000E+00 0. -1.
<scales pt_clust_3="87.28759" pt_clust_4="71.90032" pt_clust_5="71.22881" pt_clust_6="71.22881"></scales>
<clustering>
<clus scale="   71.229">  5  6 -1 -1</clus>
<clus scale="   71.900">  1  4  2 -1</clus>
<clus scale="   87.288">  2  3  1 -1</clus>
<clus scale="   71.900">  1  3  2 -1</clus>
</clustering>
</event>
<event>
 6    0  0.5563122E+002  0.1208915E+03  0.7546771E-02  0.1241634E+00
         21   -1    0    0  503  501  0.00000000000E+00  0.00000000000E+00  0.21966644505E+03  0.21966644505E+03  0.00000000000E+00 0. -1.
         21   -1    0    0  504  502 -0.00000000000E+00 -0.00000000000E+00 -0.44541590164E+03  0.44541590164E+03  0.00000000000E+00 0. -1.
         21    1    1    2  503  502 -0.63740620990E+01 -0.43136886807E+02 -0.28019700742E+03  0.28356971390E+03  0.00000000000E+00 0. -1.
         21    1    1    2  504  506  0.66481285893E+02 -0.95405960814E+02 -0.67893942249E+02  0.13465380101E+03  0.00000000000E+00 0. -1.
         21    1    1    2  505  501 -0.42054119759E+02  0.18969787026E+02  0.11705128629E+03  0.12581496505E+03  0.00000000000E+00 0. -1.
         21    1    1    2  506  505 -0.18053104035E+02  0.11957306059E+03  0.52902067892E+01  0.12104386673E+03  0.00000000000E+00 0. -1.
<scales pt_clust_3="43.60527" pt_clust_4="120.89149" pt_clust_5="45.82881" pt_clust_6="14000.00000"></scales>
<clustering>
<clus scale="   43.605">  2  3  1 -1</clus>
<clus scale="   45.829">  1  5  2 -1</clus>
<clus scale="  120.891">  2  4  1 -1</clus>
<clus scale="   45.829">  1  3  2 -1</clus>
</clustering>
</event>
<event>
 6    0  0.5563122E+002  0.1242117E+03  0.7546771E-02  0.1236306E+00
         21   -1    0    0  503  501  0.00000000000E+00  0.00000000000E+00  0.27459311526E+04  0.27459311526E+04  0.00000000000E+00 0. -1.
         21   -1    0    0  505  502 -0.00000000000E+00 -0.00000000000E+00 -0.39601163438E+02  0.39601163438E+02  0.00000000000E+00 0. -1.
         21    1    1    2  503  506  0.64930199189E+01  0.92369693859E+02  0.44247415030E+03  0.45205939138E+03  0.00000000000E+00 0. -1.
         21    1    1    2  504  501 -0.40238114757E+02 -0.13476095221E+03  0.20891782727E+04  0.20939067494E+04  0.00000000000E+00 0. -1.
         21    1    1    2  505  504 -0.30640009689E+02  0.14691673302E+02 -0.15155540891E+02  0.37206798812E+02  0.00000000000E+00 0. -1.
         21    1    1    2  506  502  0.64385104527E+02  0.27699585047E+02  0.18983310703E+03  0.20235937641E+03  0.00000000000E+00 0. -1.
<scales pt_clust_3="14000.00000" pt_clust_4="124.21174" pt_clust_5="33.98022" pt_clust_6="60.84961"></scales>
<clustering>
<clus scale="   33.980">  2  5  1 -1</clus>
<clus scale="   60.850">  2  6  1 -1</clus>
<clus scale="  124.212">  1  4  2 -1</clus>
<clus scale="  124.212">  1  3  2 -1</clus>
</clustering>
</event>
<event>
 6    0  0.5563122E+002  0.1128266E+03  0.7546771E-02  0.1255423E+00
         21   -1    0    0  503  501  0.00000000000E+00  0.00000000000E+00  0.11697289713E+03  0.11697289713E+03  0.00000000000E+00 0. -1.
         21   -1    0    0  506  502 -0.00000000000E+00 -0.00000000000E+00 -0.13254259834E+04  0.13254259834E+04  0.00000000000E+00 0.  1.
         21    1    1    2  503  502 -0.33384424546E+02  0.20823013770E+02 -0.37323603441E+02  0.54232546303E+02  0.00000000000E+00 0. -1.
         21    1    1    2  504  505  0.41118963502E+02 -0.15768506322E+03 -0.10274449105E+03  0.19264417656E+03  0.00000000000E+00 0. -1.
         21    1    1    2  505  501 -0.21345360447E+02  0.73628206448E+02  0.39164986485E+02  0.86085035655E+02  0.00000000000E+00 0. -1.
         21    1    1    2  506  504  0.13610821491E+02  0.63233842999E+02 -0.11075499783E+04  0.11094371220E+04  0.00000000000E+00 0.  1.
<scales pt_clust_3="39.34613" pt_clust_4="112.82660" pt_clust_5="14000.00000" pt_clust_6="64.79881"></scales>
<clustering>
<clus scale="   39.346">  1  3  2 -1</clus>
<clus scale="   64.799">  2  6  1 -1</clus>
<clus scale="  112.827">  2  4  1 -1</clus>
<clus scale="   39.346">  1  3  2 -1</clus>
</clustering>
</event>
<event>
 6    0  0.5563122E+002  0.1769618E+03  0.7546771E-02  0.1170776E+00
         21   -1    0    0  506  501  0.00000000000E+00  0.00000000000E+00  0.28487132829E+02  0.28487132829E+02  0.00000000000E+00 0.  1.
         21   -1    0    0  503  502 -0.00000000000E+00 -0.00000000000E+00 -0.32601170455E+04  0.32601170455E+04  0.00000000000E+00 0.  1.
         21    1    1    2  503  501 -0.12167195123E+03 -0.33735498272E+02 -0.39246221993E+03  0.41227265448E+03  0.00000000000E+00 0. -1.
         21    1    1    2  504  502  0.72626127033E+02  0.34502569982E+01 -0.11514266408E+04  0.11537199694E+04  0.00000000000E+00 0.  1.
         21    1    1    2  505  504  0.94269073561E+02  0.69866035692E+02 -0.16442409266E+04  0.16484223202E+04  0.00000000000E+00 0.  1.
         21    1    1    2  506  505 -0.45223249366E+02 -0.39580794418E+02 -0.43500125339E+02  0.74189234222E+02  0.00000000000E+00 0.  1.
<scales pt_clust_3="168.22748" pt_clust_4="43.22312" pt_clust_5="43.22312" pt_clust_6="60.09810"></scales>
<clustering>
<clus scale="   43.223">  4  5 -1 -1</clus>
<clus scale="   60.098">  1  6  2 -1</clus>
<clus scale="  168.227">  1  3  2 -1</clus>
<clus scale="   60.098">  1  3  2 -1</clus>
</clustering>
</event>
<event>
 6    0  0.5563122E+002  0.9351917E+02  0.7546771E-02  0.1294547E+00
         21   -1    0    0  503  501  0.00000000000E+00  0.00000000000E+00  0.13217552432E+04  0.13217552432E+04  0.00000000000E+00 0.  1.
         21   -1    0    0  505  502 -0.00000000000E+00 -0.00000000000E+00 -0.16386746316E+03  0.16386746316E+03  0.00000000000E+00 0.  1.
         21    1    1    2  503  506  0.88637330820E+02  0.31749218596E+02  0.12397401598E+04  0.12433101999E+04  0.00000000000E+00 0.  1.
         21    1    1    2  504  502  0.10928254775E+02 -0.30939534649E+02 -0.22090790050E+02  0.39556093863E+02  0.00000000000E+00 0.  1.
         21    1    1    2  505  501 -0.40748441852E+02  0.69668450985E+02 -0.74435631588E+02  0.10979431600E+03  0.00000000000E+00 0.  1.
         21    1    1    2  506  504 -0.58817143744E+02 -0.70478134932E+02  0.14674041858E+02  0.92962096610E+02  0.00000000000E+00 0.  1.
<scales pt_clust_3="14000.00000" pt_clust_4="32.81283" pt_clust_5="58.55618" pt_clust_6="93.51917"></scales>
<clustering>
<clus scale="   32.813">  2  4  1 -1</clus>
<clus scale="   58.556">  2  5  1 -1</clus>
<clus scale="   93.519">  2  6  1 -1</clus>
<clus scale="   93.519">  1  3  2 -1</clus>
</clustering>
</event>
<event>
 6    0  0.5563122E+002  0.8053242E+02  0.7546771E-02  0.1327547E+00
         21   -1    0    0  506  501  0.00000000000E+00  0.00000000000E+00  0.17169730613E+03  0.17169730613E+03  0.00000000000E+00 0. -1.
         21   -1    0    0  505  502 -0.00000000000E+00 -0.00000000000E+00 -0.63813625972E+03  0.63813625972E+03  0.00000000000E+00 0. -1.
         21    1    1    2  503  501  0.78915224726E+02  0.26646621318E+02 -0.16530475680E+03  0.18510353249E+03  0.00000000000E+00 0. -1.
         21    1    1    2  504  502  0.28188970365E+01 -0.54045445910E+02 -0.70228205722E+02  0.88661475755E+02  0.00000000000E+00 0.  1.
         21    1    1    2  505  503 -0.27778707253E+02 -0.39649804278E+02 -0.36964635197E+03  0.37280315058E+03  0.00000000000E+00 0. -1.
         21    1    1    2  506  504 -0.53955414510E+02  0.67048628870E+02  0.13874036090E+03  0.16326540703E+03  0.00000000000E+00 0. -1.
<scales pt_clust_3="60.68409" pt_clust_4="14000.00000" pt_clust_5="48.41243" pt_clust_6="80.53242"></scales>
<clustering>
<clus scale="   48.412">  2  5  1 -1</clus>
<clus scale="   60.684">  2  3  1 -1</clus>
<clus scale="   80.532">  1  6  2 -1</clus>
<clus scale="   80.532">  1  3  2 -1</clus>
</clustering>
</event>
<event>
 6    0  0.5563122E+002  0.1646086E+03  0.7546771E-02  0.1183590E+00
         21   -1    0    0  505  501  0.00000000000E+00  0.00000000000E+00  0.71536728860E+03  0.71536728860E+03  0.00000000000E+00 0.  1.
         21   -1    0    0  503  502 -0.00000000000E+00 -0.00000000000E+00 -0.14227023934E+03  0.14227023934E+03  0.00000000000E+00 0.  1.
         21    1    1    2  503  506 -0.42160614181E+02 -0.31829151988E+02  0.42366959332E+01  0.52995866790E+02  0.00000000000E+00 0. -1.
         21    1    1    2  504  502  0.50058000882E+02  0.40328386420E+02 -0.28486146755E+02  0.70311042949E+02  0.00000000000E+00 0.  1.
         21    1    1    2  505  504  0.63945281146E+02  0.12001519902E+03  0.18724741226E+02  0.13727076496E+03  0.00000000000E+00 0.  1.
         21    1    1    2  506  501 -0.71842667847E+02 -0.12851443346E+03  0.57862175886E+03  0.59705985324E+03  0.00000000000E+00 0.  1.
<scales pt_clust_3="52.82625" pt_clust_4="45.02233" pt_clust_5="45.02233" pt_clust_6="151.02276"></scales>
<clustering>
<clus scale="   45.022">  4  5 -1 -1</clus>
<clus scale="   52.826">  2  3  1 -1</clus>
<clus scale="  151.023">  1  6  2 -1</clus>
<clus scale="  151.023">  1  3  2 -1</clus>
</clustering>
</event>
<event>
 6    0  0.5950559E+002  0.1342353E+03  0.7546771E-02  0.1221303E+00
         21   -1    0    0  505  501  0.00000000000E+00  0.00000000000E+00  0.84139052197E+03  0.84139052197E+03  0.00000000000E+00 0.  1.
         21   -1    0    0  503  502 -0.00000000000E+00 -0.00000000000E+00 -0.14946326174E+04  0.14946326174E+04  0.00000000000E+00 0.  1.
         21    1    1    2  503  506 -0.61529744788E+02  0.11605510933E+02 -0.14700663593E+04  0.14713992314E+04  0.00000000000E+00 0.  1.
         21    1    1    2  504  502  0.89977915771E+02  0.29284084774E+02  0.46823784851E+03  0.47770311462E+03  0.00000000000E+00 0.  1.
         21    1    1    2  505  504  0.35413618463E+02  0.39932324339E+02  0.19362613463E+03  0.20084769083E+03  0.00000000000E+00 0.  1.
         21    1    1    2  506  501 -0.63861789445E+02 -0.80821920046E+02  0.15496028069E+03  0.18607310258E+03  0.00000000000E+00 0.  1.
<scales pt_clust_3="62.61467" pt_clust_4="32.33238" pt_clust_5="32.33238" pt_clust_6="127.14477"></scales>
<clustering>
<clus scale="   32.332">  4  5 -1 -1</clus>
<clus scale="   62.615">  2  3  1 -1</clus>
<clus scale="  127.145">  2  6  1 -1</clus>
<clus scale="  134.235">  1  3  2 -1</clus>
</clustering>
</event>
<event>
 6    0  0.5563122E+002  0.5983491E+02  0.7546771E-02  0.1398526E+00
         21   -1    0    0  504  501  0.00000000000E+00  0.00000000000E+00  0.70656155758E+03  0.70656155758E+03  0.00000000000E+00 0.  1.
         21   -1    0    0  505  502 -0.00000000000E+00 -0.00000000000E+00 -0.65285471665E+02  0.65285471665E+02  0.00000000000E+00 0.  1.
         21    1    1    2  503  506  0.45424918022E+02 -0.62728693225E+02  0.61656622179E+02  0.98994197757E+02  0.00000000000E+00 0.  1.
         21    1    1    2  504  502 -0.71842529088E+02 -0.35295303452E+02  0.19289836992E+02  0.82335929233E+02  0.00000000000E+00 0.  1.
         21    1    1    2  505  503  0.13569900299E+02  0.43204952778E+02  0.24023746043E+02  0.51263539798E+02  0.00000000000E+00 0.  1.
         21    1    1    2  506  501  0.12847710767E+02  0.54819043899E+02  0.53630588070E+03  0.53925336245E+03  0.00000000000E+00 0.  1.
<scales pt_clust_3="14000.00000" pt_clust_4="59.83491" pt_clust_5="45.28587" pt_clust_6="57.59275"></scales>
<clustering>
<clus scale="   45.286">  2  5  1 -1</clus>
<clus scale="   57.593">  1  6  2 -1</clus>
<clus scale="   59.835">  2  4  1 -1</clus>
<clus scale="   57.593">  1  3  2 -1</clus>
</clustering>
</event>
<event>
 6    0  0.5563122E+002  0.1184773E+03  0.7546771E-02  0.1245630E+00
         21   -1    0    0  504  501  0.00000000000E+00  0.00000000000E+00  0.94531252064E+02  0.94531252064E+02  0.00000000000E+00 0.  1.
         21   -1    0    0  501  502 -0.00000000000E+00 -0.00000000000E+00 -0.17889129693E+03  0.17889129693E+03  0.00000000000E+00 0.  1.
         21    1    1    2  503  505 -0.11618805678E+02  0.97073787104E+02 -0.57171721396E+02  0.11325600432E+03  0.00000000000E+00 0.  1.
         21    1    1    2  504  506  0.12751755130E+02 -0.84080774925E+02 -0.15994561937E+02  0.86533288291E+02  0.00000000000E+00 0.  1.
         21    1    1    2  505  502  0.26511212408E+02  0.15905604788E+02 -0.13142880143E+02  0.33594165349E+02  0.00000000000E+00 0.  1.
         21    1    1    2  506  503 -0.27644161860E+02 -0.28898616966E+02  0.19491186065E+01  0.40039091034E+02  0.00000000000E+00 0.  1.
<scales pt_clust_3="105.82871" pt_clust_4="35.52772" pt_clust_5="30.91654" pt_clust_6="35.52772"></scales>
<clustering>
<clus scale="   30.917">  2  5  1 -1</clus>
<clus scale="   35.528">  4  6 -1 -1</clus>
<clus scale="  105.829">  2  3  1 -1</clus>
<clus scale="  118.477">  1  3  2 -1</clus>
</clustering>
</event>
<event>
 6    0  0.5563122E+002  0.1182496E+03  0.7546771E-02  0.1246013E+00
         21   -1    0    0  505  501  0.00000000000E+00  0.00000000000E+00  0.84328381257E+02  0.84328381257E+02  0.00000000000E+00 0.  1.
         21   -1    0    0  504  502 -0.00000000000E+00 -0.00000000000E+00 -0.74258646451E+03  0.74258646451E+03  0.00000000000E+00 0.  1.
         21    1    1    2  503  506  0.93722001142E+02 -0.26743690098E+02 -0.13420370574E+03  0.16586040243E+03  0.00000000000E+00 0.  1.
         21    1    1    2  504  501  0.30479054586E+02  0.43075249163E+02 -0.62725119916E+02  0.81968838759E+02  0.00000000000E+00 0.  1.
         21    1    1    2  505  503  0.36561237334E+01 -0.35115859097E+02  0.44616968852E+02  0.56896086951E+02  0.00000000000E+00 0.  1.
         21    1    1    2  506  502 -0.12785717946E+03  0.18784300031E+02 -0.50594622645E+03  0.52218951763E+03  0.00000000000E+00 0.  1.
<scales pt_clust_3="14000.00000" pt_clust_4="45.64717" pt_clust_5="35.30568" pt_clust_6="118.24956"></scales>
<clustering>
<clus scale="   35.306">  1  5  2 -1</clus>
<clus scale="   45.647">  1  4  2 -1</clus>
<clus scale="  118.250">  2  6  1 -1</clus>
<clus scale="   35.306">  1  3  2 -1</clus>
</clustering>
</event>
<event>
 6    0  0.5563122E+002  0.1069039E+03  0.7546771E-02  0.1266413E+00
         21   -1    0    0  505  501  0.00000000000E+00  0.00000000000E+00  0.10283526052E+03  0.10283526052E+03  0.00000000000E+00 0. -1.
         21   -1    0    0  503  502 -0.00000000000E+00 -0.00000000000E+00 -0.18593720082E+03  0.18593720082E+03  0.00000000000E+00 0. -1.
         21    1    1    2  503  504  0.84473515642E+01 -0.46743478227E+02 -0.39508087964E+02  0.61783489055E+02  0.00000000000E+00 0. -1.
         21    1    1    2  504  501 -0.66707955049E+02 -0.61558272311E+02  0.13162121210E+01  0.90780529692E+02  0.00000000000E+00 0. -1.
         21    1    1    2  505  506  0.20531899740E+02  0.68894526096E+02 -0.13152510890E+02  0.73082167289E+02  0.00000000000E+00 0. -1.
         21    1    1    2  506  502  0.37728703745E+02  0.39407224443E+02 -0.31757553568E+02  0.63126275300E+02  0.00000000000E+00 0. -1.
<scales pt_clust_3="47.50064" pt_clust_4="100.08084" pt_clust_5="32.73772" pt_clust_6="32.73772"></scales>
<clustering>
<clus scale="   32.738">  5  6 -1 -1</clus>
<clus scale="   47.501">  2  3  1 -1</clus>
<clus scale="  100.081">  1  4  2 -1</clus>
<clus scale="  100.081">  1  3  2 -1</clus>
</clustering>
</event>
<event>
 6    0  0.5563122E+002  0.1810241E+03  0.7546771E-02  0.1166816E+00
         21   -1    0    0  506  501  0.00000000000E+00  0.00000000000E+00  0.59370276176E+03  0.59370276176E+03  0.00000000000E+00 0.  1.
         21   -1    0    0  505  502 -0.00000000000E+00 -0.00000000000E+00 -0.22826009820E+03  0.22826009820E+03  0.00000000000E+00 0.  1.
         21    1    1    2  503  504 -0.13190898988E+03  0.12579039612E+02 -0.48676388677E+02  0.14116516802E+03  0.00000000000E+00 0.  1.
         21    1    1    2  504  501  0.57523454903E+02  0.26583233932E+02  0.44591187064E+03  0.45039206539E+03  0.00000000000E+00 0.  1.
         21    1    1    2  505  503 -0.47953424587E+02  0.39381761929E+02 -0.55321286113E+02  0.83131815807E+02  0.00000000000E+00 0.  1.
         21    1    1    2  506  502  0.12233895956E+03 -0.78544035473E+02  0.23528467714E+02  0.14727381074E+03  0.00000000000E+00 0.  1.
<scales pt_clust_3="45.61485" pt_clust_4="63.36889" pt_clust_5="45.61485" pt_clust_6="168.30482"></scales>
<clustering>
<clus scale="   45.615">  3  5 -1 -1</clus>
<clus scale="   63.369">  1  4  2 -1</clus>
<clus scale="  168.305">  1  6  2 -1</clus>
<clus scale="   63.369">  1  3  2 -1</clus>
</clustering>
</event>
<event>
 6    0  0.5563122E+002  0.1296977E+03  0.7546771E-02  0.1227905E+00
         21   -1    0    0  506  501  0.00000000000E+00  0.00000000000E+00  0.20738706443E+03  0.20738706443E+03  0.00000000000E+00 0. -1.
         21   -1    0    0  505  502 -0.00000000000E+00 -0.00000000000E+00 -0.25169870209E+03  0.25169870209E+03  0.00000000000E+00 0. -1.
         21    1    1    2  503  502 -0.10921818528E+02 -0.60793190460E+02 -0.54568310067E+02  0.82418435983E+02  0.00000000000E+00 0. -1.
         21    1    1    2  504  503 -0.37751006032E+02 -0.72091527881E+02 -0.22684982336E+02  0.84480383949E+02  0.00000000000E+00 0. -1.
         21    1    1    2  505  501  0.32817649535E+02  0.10698275601E+03 -0.10348638016E+03  0.15241961515E+03  0.00000000000E+00 0. -1.
         21    1    1    2  506  504  0.15855175025E+02  0.25901962327E+02  0.13642803490E+03  0.13976733143E+03  0.00000000000E+00 0. -1.
<scales pt_clust_3="39.21527" pt_clust_4="39.21527" pt_clust_5="122.31818" pt_clust_6="30.36936"></scales>
<clustering>
<clus scale="   30.369">  1  6  2 -1</clus>
<clus scale="   39.215">  3  4 -1 -1</clus>
<clus scale="  122.318">  2  5  1 -1</clus>
<clus scale="   30.369">  1  3  2 -1</clus>
</clustering>
</event>
<event>
 6    0  0.5563122E+002  0.2049418E+03  0.7546771E-02  0.1145635E+00
         21   -1    0    0  502  501  0.00000000000E+00  0.00000000000E+00  0.23742626940E+04  0.23742626940E+04  0.00000000000E+00 0.  1.
         21   -1    0    0  504  502 -0.00000000000E+00 -0.00000000000E+00 -0.60418025199E+02  0.60418025199E+02  0.00000000000E+00 0.  1.
         21    1    1    2  503  506  0.19510812748E+03 -0.80546782327E+02  0.91392350618E+03  0.93798248422E+03  0.00000000000E+00 0.  1.
         21    1    1    2  504  505 -0.15023193017E+02  0.36023826847E+02  0.90924574881E+02  0.98947919364E+02  0.00000000000E+00 0. -1.
         21    1    1    2  505  503 -0.26476084696E+02 -0.91979959433E+02  0.27086215674E+02  0.99473408897E+02  0.00000000000E+00 0.  1.
         21    1    1    2  506  501 -0.15360884977E+03  0.13650291491E+03  0.12819103721E+04  0.12982769067E+04  0.00000000000E+00 0.  1.
<scales pt_clust_3="14000.00000" pt_clust_4="39.03092" pt_clust_5="77.76078" pt_clust_6="204.94178"></scales>
<clustering>
<clus scale="   39.031">  2  4  1 -1</clus>
<clus scale="   77.761">  2  5  1 -1</clus>
<clus scale="  204.942">  1  6  2 -1</clus>
<clus scale="  204.942">  1  3  2 -1</clus>
</clustering>
</event>
<event>
 6    0  0.5563122E+002  0.9898877E+02  0.7546771E-02  0.1282437E+00
         21   -1    0    0  506  501  0.00000000000E+00  0.00000000000E+00  0.17158415789E+03  0.17158415789E+03  0.00000000000E+00 0.  1.
         21   -1    0    0  505  502 -0.00000000000E+00 -0.00000000000E+00 -0.53001207053E+03  0.53001207053E+03  0.00000000000E+00 0.  1.
         21    1    1    2  503  502 -0.86648136897E+01 -0.10810981348E+03 -0.41223703139E+03  0.42626538777E+03  0.00000000000E+00 0.  1.
         21    1    1    2  504  503 -0.65317674460E+02  0.66914504960E+02 -0.69590464001E+02  0.11656235349E+03  0.00000000000E+00 0.  1.
         21    1    1    2  505  501  0.30742566863E+02  0.24606910399E+02  0.17317265651E+02  0.43017358663E+02  0.00000000000E+00 0.  1.
         21    1    1    2  506  504  0.43239921287E+02  0.16588398117E+02  0.10608231711E+03  0.11575112849E+03  0.00000000000E+00 0.  1.
<scales pt_clust_3="14000.00000" pt_clust_4="98.98877" pt_clust_5="39.37773" pt_clust_6="76.31687"></scales>
<clustering>
<clus scale="   39.378">  1  5  2 -1</clus>
<clus scale="   76.317">  1  6  2 -1</clus>
<clus scale="   98.989">  1  4  2 -1</clus>
<clus scale="   39.378">  1  3  2 -1</clus>
</clustering>
</event>
<event>
 6    0  0.5563122E+002  0.1077372E+03  0.7546771E-02  0.1264818E+00
         21   -1    0    0  504  501  0.00000000000E+00  0.00000000000E+00  0.13951462450E+03  0.13951462450E+03  0.00000000000E+00 0. -1.
         21   -1    0    0  506  502 -0.00000000000E+00 -0.00000000000E+00 -0.48317046965E+03  0.48317046965E+03  0.00000000000E+00 0.  1.
         21    1    1    2  503  502  0.55390968094E+02  0.43840990711E+02 -0.14109221468E+03  0.15778848138E+03  0.00000000000E+00 0.  1.
         21    1    1    2  504  505 -0.52512309500E+02 -0.80598961933E+02  0.96727000252E+02  0.13641791631E+03  0.00000000000E+00 0. -1.
         21    1    1    2  505  503  0.38827086740E+02  0.39472819287E+02 -0.46639238160E+02  0.72393816472E+02  0.00000000000E+00 0.  1.
         21    1    1    2  506  501 -0.41705745334E+02 -0.27148480645E+01 -0.25265139256E+03  0.25608487999E+03  0.00000000000E+00 0.  1.
<scales pt_clust_3="38.81870" pt_clust_4="98.41113" pt_clust_5="38.81870" pt_clust_6="41.79401"></scales>
<clustering>
<clus scale="   38.819">  3  5 -1 -1</clus>
<clus scale="   41.794">  2  6  1 -1</clus>
<clus scale="   98.411">  1  4  2 -1</clus>
<clus scale="   98.411">  1  3  2 -1</clus>
</clustering>
</event>
<event>
 6    0  0.5563122E+002  0.9884444E+02  0.7546771E-02  0.1282745E+00
         21   -1    0    0  506  501  0.00000000000E+00  0.00000000000E+00  0.41707956527E+02  0.41707956527E+02  0.00000000000E+00 0. -1.
         21   -1    0    0  503  502 -0.00000000000E+00 -0.00000000000E+00 -0.19600350937E+04  0.19600350937E+04  0.00000000000E+00 0.  1.
         21    1    1    2  503  501 -0.35609497459E+02  0.22705150122E+02 -0.12859100131E+03  0.13534846053E+03  0.00000000000E+00 0. -1.
         21    1    1    2  504  502  0.40361885703E+02 -0.53196363481E+02 -0.15143309257E+04  0.15158024566E+04  0.00000000000E+00 0.  1.
         21    1    1    2  505  504 -0.22469341987E+02  0.12031219251E+03 -0.18578608789E+03  0.22247778642E+03  0.00000000000E+00 0. -1.
         21    1    1    2  506  505  0.17716953743E+02 -0.89820979149E+02 -0.89619122254E+02  0.12811434665E+03  0.00000000000E+00 0. -1.
<scales pt_clust_3="42.23222" pt_clust_4="66.01547" pt_clust_5="14000.00000" pt_clust_6="98.84444"></scales>
<clustering>
<clus scale="   42.232">  1  3  2 -1</clus>
<clus scale="   66.015">  2  4  1 -1</clus>
<clus scale="   98.844">  1  6  2 -1</clus>
<clus scale="   42.232">  1  3  2 -1</clus>
</clustering>
</event>
<event>
 6    0  0.5563122E+002  0.9712943E+02  0.7546771E-02  0.1286451E+00
         21   -1    0    0  504  501  0.00000000000E+00  0.00000000000E+00  0.40764963404E+03  0.40764963404E+03  0.00000000000E+00 0. -1.
         21   -1    0    0  506  502 -0.00000000000E+00 -0.00000000000E+00 -0.19267941183E+03  0.19267941183E+03  0.00000000000E+00 0.  1.
         21    1    1    2  503  505 -0.37128860803E+02  0.35736021600E+02 -0.87965147077E+02  0.10194843130E+03  0.00000000000E+00 0.  1.
         21    1    1    2  504  502  0.11085585023E+03 -0.26294472100E+02  0.41947224101E+00  0.11393241308E+03  0.00000000000E+00 0.  1.
         21    1    1    2  505  501 -0.64331074467E+02 -0.47837062885E+02  0.32784259598E+03  0.33750205846E+03  0.00000000000E+00 0. -1.
         21    1    1    2  506  503 -0.93959149588E+01  0.38395513385E+02 -0.25326698939E+02  0.46946143028E+02  0.00000000000E+00 0.  1.
<scales pt_clust_3="35.83916" pt_clust_4="88.08867" pt_clust_5="80.16777" pt_clust_6="35.83916"></scales>
<clustering>
<clus scale="   35.839">  3  6 -1 -1</clus>
<clus scale="   80.168">  1  5  2 -1</clus>
<clus scale="   88.089">  1  4  2 -1</clus>
<clus scale="   80.168">  1  3  2 -1</clus>
</clustering>
</event>
<event>
 6    0  0.5563122E+002  0.1307877E+03  0.7546771E-02  0.1226292E+00
         21   -1    0    0  503  501  0.00000000000E+00  0.00000000000E+00  0.13077024638E+04  0.13077024638E+04  0.00000000000E+00 0. -1.
         21   -1    0    0  505  502 -0.00000000000E+00 -0.00000000000E+00 -0.33301430908E+02  0.33301430908E+02  0.00000000000E+00 0. -1.
         21    1    1    2  503  504 -0.25869821566E+02  0.18193844200E+02  0.35827211665E+03  0.35966536281E+03  0.00000000000E+00 0. -1.
         21    1    1    2  504  502  0.44479499687E+02  0.12999034836E+03  0.17837323045E+03  0.22515089584E+03  0.00000000000E+00 0. -1.
         21    1    1    2  505  506  0.92942283263E+01 -0.12211490075E+03  0.46871476347E+03  0.48445016375E+03  0.00000000000E+00 0. -1.
         21    1    1    2  506  501 -0.27903906447E+02 -0.26069291809E+02  0.26904092228E+03  0.27173747226E+03  0.00000000000E+00 0. -1.
<scales pt_clust_3="31.62694" pt_clust_4="130.78766" pt_clust_5="14000.00000" pt_clust_6="40.99508"></scales>
<clustering>
<clus scale="   31.627">  1  3  2 -1</clus>
<clus scale="   40.995">  1  6  2 -1</clus>
<clus scale="  130.788">  2  4  1 -1</clus>
<clus scale="   31.627">  1  3  2 -1</clus>
</clustering>
</event>
<event>
 6    0  0.5563122E+002  0.8545191E+02  0.7546771E-02  0.1314255E+00
         21   -1    0    0  503  501  0.00000000000E+00  0.00000000000E+00  0.12140319557E+04  0.12140319557E+04  0.00000000000E+00 0. -1.
         21   -1    0    0  505  502 -0.00000000000E+00 -0.00000000000E+00 -0.17668657256E+03  0.17668657256E+03  0.00000000000E+00 0. -1.
         21    1    1    2  503  506 -0.20074664742E+02 -0.55917770591E+02  0.11322153319E+04  0.11337730580E+04  0.00000000000E+00 0. -1.
         21    1    1    2  504  501  0.21787340333E+02  0.11607783323E+03 -0.41352384500E+02  0.12513501216E+03  0.00000000000E+00 0. -1.
         21    1    1    2  505  504  0.41067679780E+02 -0.62419730025E+02 -0.19810520190E+02  0.77299636022E+02  0.00000000000E+00 0. -1.
         21    1    1    2  506  502 -0.42780355372E+02  0.22596673887E+01 -0.33707044079E+02  0.54510822072E+02  0.00000000000E+00 0.  1.
<scales pt_clust_3="59.48494" pt_clust_4="85.45191" pt_clust_5="14000.00000" pt_clust_6="42.83999"></scales>
<clustering>
<clus scale="   42.840">  2  6  1 -1</clus>
<clus scale="   59.485">  1  3  2 -1</clus>
<clus scale="   85.452">  1  4  2 -1</clus>
<clus scale="   59.485">  1  3  2 -1</clus>
</clustering>
</event>
<event>
 6    0  0.5563122E+002  0.1945721E+03  0.7546771E-02  0.1154401E+00
         21   -1    0    0  505  501  0.00000000000E+00  0.00000000000E+00  0.13567501027E+04  0.13567501027E+04  0.00000000000E+00 0.  1.
         21   -1    0    0  503  502 -0.00000000000E+00 -0.00000000000E+00 -0.57626092181E+02  0.57626092181E+02  0.00000000000E+00 0.  1.
         21    1    1    2  503  506 -0.11111363486E+03 -0.16950912861E+03  0.20406061943E+03  0.28761140613E+03  0.00000000000E+00 0.  1.
         21    1    1    2  504  502  0.32081174056E+02 -0.22770210834E+02  0.16775907561E+03  0.17231016128E+03  0.00000000000E+00 0. -1.
         21    1    1    2  505  504  0.12287688274E+01  0.35017172947E+02  0.33167341640E+03  0.33351906605E+03  0.00000000000E+00 0.  1.
         21    1    1    2  506  501  0.77803691978E+02  0.15726216650E+03  0.59563089904E+03  0.62093556138E+03  0.00000000000E+00 0.  1.
<scales pt_clust_3="194.57214" pt_clust_4="36.46719" pt_clust_5="35.03873" pt_clust_6="14000.00000"></scales>
<clustering>
<clus scale="   35.039">  1  5  2 -1</clus>
<clus scale="   36.467">  1  4  2 -1</clus>
<clus scale="  194.572">  2  3  1 -1</clus>
<clus scale="   35.039">  1  3  2 -1</clus>
</clustering>
</event>
<event>
 6    0  0.5563122E+002  0.1490858E+03  0.7546771E-02  0.1201601E+00
         21   -1    0    0  505  501  0.00000000000E+00  0.00000000000E+00  0.11190847358E+03  0.11190847358E+03  0.00000000000E+00 0.  1.
         21   -1    0    0  503  502 -0.00000000000E+00 -0.00000000000E+00 -0.84902745219E+03  0.84902745219E+03  0.00000000000E+00 0.  1.
         21    1    1    2  503  506  0.29530665681E+02  0.93759588571E+01 -0.45114320716E+02  0.54729066809E+02  0.00000000000E+00 0.  1.
         21    1    1    2  504  501  0.20589874502E+02 -0.58729287677E+02  0.13091087980E+02  0.63595980593E+02  0.00000000000E+00 0.  1.
         21    1    1    2  505  502 -0.24269740309E+02  0.13251903444E+03 -0.73748705467E+03  0.74969158365E+03  0.00000000000E+00 0.  1.
         21    1    1    2  506  504 -0.25850799874E+02 -0.83165705620E+02  0.32391308794E+02  0.92919294717E+02  0.00000000000E+00 0.  1.
<scales pt_clust_3="30.98336" pt_clust_4="40.41122" pt_clust_5="141.28007" pt_clust_6="40.41122"></scales>
<clustering>
<clus scale="   30.983">  2  3  1 -1</clus>
<clus scale="   40.411">  4  6 -1 -1</clus>
<clus scale="  141.280">  2  5  1 -1</clus>
<clus scale="  149.086">  1  3  2 -1</clus>
</clustering>
</event>
<event>
 6    0  0.5563122E+002  0.1179983E+03  0.7546771E-02  0.1246436E+00
         21   -1    0    0  505  501  0.00000000000E+00  0.00000000000E+00  0.19705480887E+04  0.19705480887E+04  0.00000000000E+00 0.  1.
         21   -1    0    0  506  502 -0.00000000000E+00 -0.00000000000E+00 -0.29599867439E+02  0.29599867439E+02  0.00000000000E+00 0. -1.
         21    1    1    2  503  501 -0.60016178925E+02  0.10186572382E+02  0.26466190225E+03  0.27157251424E+03  0.00000000000E+00 0.  1.
         21    1    1    2  504  502  0.46211237203E+02 -0.11110023832E+03  0.14584976342E+03  0.18907907046E+03  0.00000000000E+00 0. -1.
         21    1    1    2  505  504  0.51296013102E+02  0.55795251908E+00  0.74840581245E+03  0.75016188412E+03  0.00000000000E+00 0.  1.
         21    1    1    2  506  503 -0.37491071380E+02  0.10035571342E+03  0.78203074316E+03  0.78933448733E+03  0.00000000000E+00 0.  1.
<scales pt_clust_3="49.83261" pt_clust_4="117.99825" pt_clust_5="51.29905" pt_clust_6="14000.00000"></scales>
<clustering>
<clus scale="   51.299">  1  5  2 -1</clus>
<clus scale="   49.833">  1  3  2 -1</clus>
<clus scale="  117.998">  2  4  1 -1</clus>
<clus scale="   51.299">  1  3  2 -1</clus>
</clustering>
</event>
<event>
 6    0  0.5563122E+002  0.8429154E+02  0.7546771E-02  0.1317296E+00
         21   -1    0    0  506  501  0.00000000000E+00  0.00000000000E+00  0.18768291304E+03  0.18768291304E+03  0.00000000000E+00 0. -1.
         21   -1    0    0  503  502 -0.00000000000E+00 -0.00000000000E+00 -0.75085832464E+03  0.75085832464E+03  0.00000000000E+00 0.  1.
         21    1    1    2  503  505  0.43496409835E+02 -0.50156631042E+02 -0.11683495351E+03  0.13438017587E+03  0.00000000000E+00 0.  1.
         21    1    1    2  504  502 -0.21353443669E+02  0.33980838065E+02 -0.53365946638E+02  0.66772682833E+02  0.00000000000E+00 0.  1.
         21    1    1    2  505  501 -0.53496262969E+02  0.93951226687E+02 -0.54938205673E+03  0.55991903647E+03  0.00000000000E+00 0.  1.
         21    1    1    2  506  504  0.31353296803E+02 -0.77775433710E+02  0.15640754527E+03  0.17746934250E+03  0.00000000000E+00 0. -1.
<scales pt_clust_3="59.18861" pt_clust_4="40.13311" pt_clust_5="14000.00000" pt_clust_6="84.29154"></scales>
<clustering>
<clus scale="   40.133">  2  4  1 -1</clus>
<clus scale="   59.189">  2  3  1 -1</clus>
<clus scale="   84.292">  1  6  2 -1</clus>
<clus scale="   84.292">  1  3  2 -1</clus>
</clustering>
</event>
<event>
 6    0  0.5563122E+002  0.7140877E+02  0.7546771E-02  0.1355367E+00
         21   -1    0    0  506  501  0.00000000000E+00  0.00000000000E+00  0.61572897830E+03  0.61572897830E+03  0.00000000000E+00 0.  1.
         21   -1    0    0  505  502 -0.00000000000E+00 -0.00000000000E+00 -0.19388282757E+03  0.19388282757E+03  0.00000000000E+00 0.  1.
         21    1    1    2  503  501  0.55580816267E+02 -0.33020667056E+01 -0.32200196378E+02  0.64319386100E+02  0.00000000000E+00 0.  1.
         21    1    1    2  504  502 -0.10894608815E+03 -0.40241301321E+02 -0.65641754686E+02  0.13340709281E+03  0.00000000000E+00 0.  1.
         21    1    1    2  505  503 -0.17190563385E+02  0.43643640934E+02 -0.31304449596E+02  0.56393717983E+02  0.00000000000E+00 0.  1.
         21    1    1    2  506  504  0.70555835265E+02 -0.10027290699E+00  0.55099255140E+03  0.55549160897E+03  0.00000000000E+00 0.  1.
<scales pt_clust_3="51.18986" pt_clust_4="14000.00000" pt_clust_5="46.90717" pt_clust_6="71.40877"></scales>
<clustering>
<clus scale="   46.907">  2  5  1 -1</clus>
<clus scale="   51.190">  2  3  1 -1</clus>
<clus scale="   71.409">  1  6  2 -1</clus>
<clus scale="   71.409">  1  3  2 -1</clus>
</clustering>
</event>
<event>
 6    0  0.5563122E+002  0.1462467E+03  0.7546771E-02  0.1205162E+00
         21   -1    0    0  504  501  0.00000000000E+00  0.00000000000E+00  0.15095168743E+03  0.15095168743E+03  0.00000000000E+00 0. -1.
         21   -1    0    0  505  502 -0.00000000000E+00 -0.00000000000E+00 -0.85742930861E+03  0.85742930861E+03  0.00000000000E+00 0. -1.
         21    1    1    2  503  501  0.84858058416E+02 -0.11582719167E+03 -0.13722523807E+03  0.19861418472E+03  0.00000000000E+00 0. -1.
         21    1    1    2  504  506 -0.31494780697E+02  0.12413212109E+03  0.67981523787E+02  0.14499031786E+03  0.00000000000E+00 0. -1.
         21    1    1    2  505  503  0.51230786677E+02 -0.37346946822E+02 -0.11440028088E+03  0.13079301283E+03  0.00000000000E+00 0. -1.
         21    1    1    2  506  502 -0.10459406440E+03  0.29042017402E+02 -0.52283362603E+03  0.53398348063E+03  0.00000000000E+00 0. -1.
<scales pt_clust_3="37.65467" pt_clust_4="134.82164" pt_clust_5="37.65467" pt_clust_6="108.55117"></scales>
<clustering>
<clus scale="   37.655">  3  5 -1 -1</clus>
<clus scale="  108.551">  2  6  1 -1</clus>
<clus scale="  134.822">  1  4  2 -1</clus>
<clus scale="  134.822">  1  3  2 -1</clus>
</clustering>
</event>
<event>
 6    0  0.5563122E+002  0.1099402E+03  0.7546771E-02  0.1260681E+00
         21   -1    0    0  505  501  0.00000000000E+00  0.00000000000E+00  0.22722113733E+03  0.22722113733E+03  0.00000000000E+00 0.  1.
         21   -1    0    0  503  502 -0.00000000000E+00 -0.00000000000E+00 -0.21904974962E+03  0.21904974962E+03  0.00000000000E+00 0.  1.
         21    1    1    2  503  504  0.58912879308E+02 -0.37691664594E+02  0.22370277238E+02  0.73429001300E+02  0.00000000000E+00 0.  1.
         21    1    1    2  504  501 -0.61649101038E+01 -0.63891536996E+02  0.85699141503E+02  0.10707230020E+03  0.00000000000E+00 0.  1.
         21    1    1    2  505  506  0.44723980353E+02  0.14112769437E+02  0.48758409949E+02  0.67651956516E+02  0.00000000000E+00 0.  1.
         21    1    1    2  506  502 -0.97471949557E+02  0.87470432153E+02 -0.14865644097E+03  0.19811762893E+03  0.00000000000E+00 0.  1.
<scales pt_clust_3="14000.00000" pt_clust_4="59.09755" pt_clust_5="46.89781" pt_clust_6="109.94021"></scales>
<clustering>
<clus scale="   46.898">  1  5  2 -1</clus>
<clus scale="   59.098">  1  4  2 -1</clus>
<clus scale="  109.940">  2  6  1 -1</clus>
<clus scale="   46.898">  1  3  2 -1</clus>
</clustering>
</event>
<event>
 6    0  0.5563122E+002  0.1435671E+03  0.7546771E-02  0.1208608E+00
         21   -1    0    0  504  501  0.00000000000E+00  0.00000000000E+00  0.37716461336E+03  0.37716461336E+03  0.00000000000E+00 0.  1.
         21   -1    0    0  506  502 -0.00000000000E+00 -0.00000000000E+00 -0.13180763245E+03  0.13180763245E+03  0.00000000000E+00 0.  1.
         21    1    1    2  503  502 -0.52302472688E+02 -0.47842114495E+02  0.27870273584E+02  0.76165403683E+02  0.00000000000E+00 0. -1.
         21    1    1    2  504  505  0.58342076977E+02  0.49714971825E+02  0.14869722908E+03  0.16729089128E+03  0.00000000000E+00 0.  1.
         21    1    1    2  505  503  0.33602078615E+02  0.71802177370E+02  0.13652355948E+03  0.15787125975E+03  0.00000000000E+00 0.  1.
         21    1    1    2  506  501 -0.39641682904E+02 -0.73675034701E+02 -0.67734081231E+02  0.10764469110E+03  0.00000000000E+00 0.  1.
<scales pt_clust_3="70.88312" pt_clust_4="33.48125" pt_clust_5="33.48125" pt_clust_6="139.47086"></scales>
<clustering>
<clus scale="   33.481">  4  5 -1 -1</clus>
<clus scale="   70.883">  2  3  1 -1</clus>
<clus scale="  139.471">  2  6  1 -1</clus>
<clus scale="  143.567">  1  3  2 -1</clus>
</clustering>
</event>
<event>
 6    0  0.5563122E+002  0.1105156E+03  0.7546771E-02  0.1259618E+00
         21   -1    0    0  506  501  0.00000000000E+00  0.00000000000E+00  0.62378504987E+03  0.62378504987E+03  0.00000000000E+00 0.  1.
         21   -1    0    0  505  502 -0.00000000000E+00 -0.00000000000E+00 -0.14461507838E+03  0.14461507838E+03  0.00000000000E+00 0. -1.
         21    1    1    2  503  502  0.47752471626E+02  0.39720623818E+02 -0.75513505547E+02  0.97776868547E+02  0.00000000000E+00 0. -1.
         21    1    1    2  504  503  0.51855281852E+02  0.17839139211E+02 -0.19213435383E+02  0.58106464726E+02  0.00000000000E+00 0. -1.
         21    1    1    2  505  501 -0.87958731227E+00 -0.39711945852E+02  0.11658875980E+02  0.41397363519E+02  0.00000000000E+00 0.  1.
         21    1    1    2  506  504 -0.98728166166E+02 -0.17847817176E+02  0.56223803643E+03  0.57111943145E+03  0.00000000000E+00 0.  1.
<scales pt_clust_3="44.40983" pt_clust_4="44.40983" pt_clust_5="39.72169" pt_clust_6="100.60867"></scales>
<clustering>
<clus scale="   39.722">  2  5  1 -1</clus>
<clus scale="   44.410">  3  4 -1 -1</clus>
<clus scale="  100.609">  1  6  2 -1</clus>
<clus scale="  100.609">  1  3  2 -1</clus>
</clustering>
</event>
<event>
 6    0  0.5563122E+002  0.1094487E+03  0.7546771E-02  0.1261594E+00
         21   -1    0    0  505  501  0.00000000000E+00  0.00000000000E+00  0.47174786255E+03  0.47174786255E+03  0.00000000000E+00 0.  1.
         21   -1    0    0  504  502 -0.00000000000E+00 -0.00000000000E+00 -0.30007436361E+03  0.30007436361E+03  0.00000000000E+00 0. -1.
         21    1    1    2  503  506  0.10976215126E+02 -0.12190049766E+03 -0.48715829323E+02  0.13173245862E+03  0.00000000000E+00 0. -1.
         21    1    1    2  504  503 -0.12250437906E+02  0.10587116771E+03 -0.15767576007E+03  0.19031663799E+03  0.00000000000E+00 0. -1.
         21    1    1    2  505  502 -0.38295867968E+02 -0.14440327317E+02 -0.22093266683E+02  0.46510310568E+02  0.00000000000E+00 0.  1.
         21    1    1    2  506  501  0.39570090748E+02  0.30469657265E+02  0.40015835501E+03  0.40326281899E+03  0.00000000000E+00 0.  1.
<scales pt_clust_3="109.44866" pt_clust_4="14000.00000" pt_clust_5="40.92794" pt_clust_6="49.71327"></scales>
<clustering>
<clus scale="   40.928">  2  5  1 -1</clus>
<clus scale="   49.713">  1  6  2 -1</clus>
<clus scale="  109.449">  1  3  2 -1</clus>
<clus scale="   49.713">  1  3  2 -1</clus>
</clustering>
</event>
<event>
 6    0  0.5563122E+002  0.1135487E+03  0.7546771E-02  0.1254136E+00
         21   -1    0    0  503  501  0.00000000000E+00  0.00000000000E+00  0.32408040952E+03  0.32408040952E+03  0.00000000000E+00 0.  1.
         21   -1    0    0  504  502 -0.00000000000E+00 -0.00000000000E+00 -0.75126578369E+03  0.75126578369E+03  0.00000000000E+00 0.  1.
         21    1    1    2  503  505  0.27795647377E+02  0.70596631377E+02 -0.59338599728E+02  0.96320048757E+02  0.00000000000E+00 0.  1.
         21    1    1    2  504  506 -0.14545633641E+03 -0.75793008767E+01 -0.35028501221E+03  0.37936075361E+03  0.00000000000E+00 0.  1.
         21    1    1    2  505  502  0.77523547203E+01 -0.37889327400E+02 -0.29639159769E+03  0.29890413064E+03  0.00000000000E+00 0.  1.
         21    1    1    2  506  501  0.10990833431E+03 -0.25128003101E+02  0.27882983545E+03  0.30076126019E+03  0.00000000000E+00 0.  1.
<scales pt_clust_3="70.40298" pt_clust_4="113.54866" pt_clust_5="38.67428" pt_clust_6="14000.00000"></scales>
<clustering>
<clus scale="   38.674">  2  5  1 -1</clus>
<clus scale="   70.403">  2  3  1 -1</clus>
<clus scale="  113.549">  2  4  1 -1</clus>
<clus scale="  113.549">  1  3  2 -1</clus>
</clustering>
</event>
<event>
 6    0  0.5563122E+002  0.7530687E+02  0.7546771E-02  0.1342923E+00
         21   -1    0    0  505  501  0.00000000000E+00  0.00000000000E+00  0.49228281905E+03  0.49228281905E+03  0.00000000000E+00 0.  1.
         21   -1    0    0  503  502 -0.00000000000E+00 -0.00000000000E+00 -0.28775910308E+03  0.28775910308E+03  0.00000000000E+00 0.  1.
         21    1    1    2  503  504  0.11917460886E+02  0.30234889023E+02 -0.16964698961E+03  0.17273180215E+03  0.00000000000E+00 0.  1.
         21    1    1    2  504  501 -0.55533923711E+02  0.39329101862E+02  0.31732601418E+03  0.32454058947E+03  0.00000000000E+00 0.  1.
         21    1    1    2  505  506  0.88503326740E+02 -0.97065590787E+02  0.13511551852E+03  0.18844301819E+03  0.00000000000E+00 0.  1.
         21    1    1    2  506  502 -0.44886863916E+02  0.27501599902E+02 -0.78270827118E+02  0.94326512323E+02  0.00000000000E+00 0.  1.
<scales pt_clust_3="32.49884" pt_clust_4="14000.00000" pt_clust_5="75.30687" pt_clust_6="61.55599"></scales>
<clustering>
<clus scale="   32.499">  2  3  1 -1</clus>
<clus scale="   61.556">  2  6  1 -1</clus>
<clus scale="   75.307">  2  5  1 -1</clus>
<clus scale="   75.307">  1  3  2 -1</clus>
</clustering>
</event>
<event>
 6    0  0.5563122E+002  0.2429324E+03  0.7546771E-02  0.1117855E+00
         21   -1    0    0  505  501  0.00000000000E+00  0.00000000000E+00  0.58910674380E+03  0.58910674380E+03  0.00000000000E+00 0. -1.
         21   -1    0    0  503  502 -0.00000000000E+00 -0.00000000000E+00 -0.35916014867E+03  0.35916014867E+03  0.00000000000E+00 0.  1.
         21    1    1    2  503  506  0.38986994726E+02  0.57604044377E+02  0.18948734474E+01  0.69583059948E+02  0.00000000000E+00 0.  1.
         21    1    1    2  504  501 -0.21373860528E+03  0.13880140746E+03  0.38662851706E+03  0.46306763253E+03  0.00000000000E+00 0. -1.
         21    1    1    2  505  502 -0.11500102482E+02 -0.92948146940E+02 -0.17855280431E+03  0.20162518271E+03  0.00000000000E+00 0.  1.
         21    1    1    2  506  504  0.18625171303E+03 -0.10345730490E+03  0.19976008925E+02  0.21399101728E+03  0.00000000000E+00 0.  1.
<scales pt_clust_3="69.55725" pt_clust_4="242.93238" pt_clust_5="60.35255" pt_clust_6="14000.00000"></scales>
<clustering>
<clus scale="   69.557">  2  3  1 -1</clus>
<clus scale="   60.353">  2  5  1 -1</clus>
<clus scale="  242.932">  1  4  2 -1</clus>
<clus scale="  242.932">  1  3  2 -1</clus>
</clustering>
</event>
<event>
 6    0  0.5563122E+002  0.1078181E+03  0.7546771E-02  0.1264665E+00
         21   -1    0    0  506  501  0.00000000000E+00  0.00000000000E+00  0.22690330163E+03  0.22690330163E+03  0.00000000000E+00 0. -1.
         21   -1    0    0  503  502 -0.00000000000E+00 -0.00000000000E+00 -0.61575620707E+03  0.61575620707E+03  0.00000000000E+00 0.  1.
         21    1    1    2  503  504  0.66077515708E+02  0.35372489375E+02 -0.24712739816E+03  0.25824291279E+03  0.00000000000E+00 0.  1.
         21    1    1    2  504  505 -0.34523336521E+02  0.74201810031E+02 -0.33300016147E+03  0.34290942961E+03  0.00000000000E+00 0.  1.
         21    1    1    2  505  501 -0.20782789257E+02 -0.29919824809E+02  0.27157108534E+01  0.36530745015E+02  0.00000000000E+00 0.  1.
         21    1    1    2  506  502 -0.10771389931E+02 -0.79654474596E+02  0.18855894334E+03  0.20497642127E+03  0.00000000000E+00 0. -1.
<scales pt_clust_3="74.08109" pt_clust_4="14000.00000" pt_clust_5="36.42966" pt_clust_6="107.81806"></scales>
<clustering>
<clus scale="   36.430">  1  5  2 -1</clus>
<clus scale="   74.081">  2  3  1 -1</clus>
<clus scale="  107.818">  1  6  2 -1</clus>
<clus scale="   36.430">  1  3  2 -1</clus>
</clustering>
</event>
<event>
 6    0  0.5563122E+002  0.1100979E+03  0.7546771E-02  0.1260389E+00
         21   -1    0    0  505  501  0.00000000000E+00  0.00000000000E+00  0.33342439021E+03  0.33342439021E+03  0.00000000000E+00 0.  1.
         21   -1    0    0  503  502 -0.00000000000E+00 -0.00000000000E+00 -0.59178164935E+03  0.59178164935E+03  0.00000000000E+00 0.  1.
         21    1    1    2  503  504  0.49105129481E+02  0.12641397055E+03  0.53347374366E+02  0.14573176745E+03  0.00000000000E+00 0.  1.
         21    1    1    2  504  501 -0.58698775328E+01 -0.68785868013E+02  0.15895862648E+03  0.17330261404E+03  0.00000000000E+00 0.  1.
         21    1    1    2  505  506 -0.10525128814E+03 -0.76304323160E+02  0.10779090466E+01  0.13000517403E+03  0.00000000000E+00 0.  1.
         21    1    1    2  506  502  0.62016036190E+02  0.18676220622E+02 -0.47174116903E+03  0.47616648403E+03  0.00000000000E+00 0.  1.
<scales pt_clust_3="110.09793" pt_clust_4="67.68151" pt_clust_5="14000.00000" pt_clust_6="64.76720"></scales>
<clustering>
<clus scale="   64.767">  2  6  1 -1</clus>
<clus scale="   67.682">  1  4  2 -1</clus>
<clus scale="  110.098">  1  3  2 -1</clus>
<clus scale="   67.682">  1  3  2 -1</clus>
</clustering>
</event>
<event>
 6    0  0.5563122E+002  0.1430679E+03  0.7546771E-02  0.1209260E+00
         21   -1    0    0  503  501  0.00000000000E+00  0.00000000000E+00  0.85935251140E+02  0.85935251140E+02  0.00000000000E+00 0.  1.
         21   -1    0    0  506  502 -0.00000000000E+00 -0.00000000000E+00 -0.65490770915E+03  0.65490770915E+03  0.00000000000E+00 0.  1.
         21    1    1    2  503  505  0.46556448026E+02  0.61123126776E+02  0.14268513963E+02  0.78148128387E+02  0.00000000000E+00 0.  1.
         21    1    1    2  504  501  0.28665952506E+02 -0.67770456313E+02 -0.91960007492E+02  0.11777612050E+03  0.00000000000E+00 0.  1.
         21    1    1    2  505  502 -0.29536376302E+02  0.10773923420E+03 -0.33597223033E+03  0.35405858225E+03  0.00000000000E+00 0.  1.
         21    1    1    2  506  504 -0.45686024230E+02 -0.10109190466E+03 -0.15530873415E+03  0.19086012915E+03  0.00000000000E+00 0.  1.
<scales pt_clust_3="76.83449" pt_clust_4="59.34927" pt_clust_5="123.11823" pt_clust_6="59.34927"></scales>
<clustering>
<clus scale="   59.349">  4  6 -1 -1</clus>
<clus scale="   76.834">  1  3  2 -1</clus>
<clus scale="  123.118">  2  5  1 -1</clus>
<clus scale="   76.834">  1  3  2 -1</clus>
</clustering>
</event>
<event>
 6    0  0.5563122E+002  0.1375333E+03  0.7546771E-02  0.1216687E+00
         21   -1    0    0  504  501  0.00000000000E+00  0.00000000000E+00  0.52926799692E+03  0.52926799692E+03  0.00000000000E+00 0.  1.
         21   -1    0    0  506  502 -0.00000000000E+00 -0.00000000000E+00 -0.81406966202E+02  0.81406966202E+02  0.00000000000E+00 0.  1.
         21    1    1    2  503  501 -0.10280625728E+02 -0.11311839086E+03  0.25562700155E+03  0.27972598295E+03  0.00000000000E+00 0.  1.
         21    1    1    2  504  505 -0.41237272453E+02  0.50487625753E+02  0.10696084431E+03  0.12526026988E+03  0.00000000000E+00 0. -1.
         21    1    1    2  505  502  0.86347929017E+02  0.85229790975E+02  0.12583601330E+02  0.12197716646E+03  0.00000000000E+00 0.  1.
         21    1    1    2  506  503 -0.34830030836E+02 -0.22599025870E+02  0.72689583528E+02  0.83711543838E+02  0.00000000000E+00 0.  1.
<scales pt_clust_3="37.46965" pt_clust_4="65.18829" pt_clust_5="122.77838" pt_clust_6="37.46965"></scales>
<clustering>
<clus scale="   37.470">  3  6 -1 -1</clus>
<clus scale="   65.188">  1  4  2 -1</clus>
<clus scale="  122.778">  2  5  1 -1</clus>
<clus scale="   65.188">  1  3  2 -1</clus>
</clustering>
</event>
<event>
 6    0  0.5563122E+002  0.1516923E+03  0.7546771E-02  0.1198409E+00
         21   -1    0    0  506  501  0.00000000000E+00  0.00000000000E+00  0.71721485428E+03  0.71721485428E+03  0.00000000000E+00 0. -1.
         21   -1    0    0  501  502 -0.00000000000E+00 -0.00000000000E+00 -0.26559610568E+03  0.26559610568E+03  0.00000000000E+00 0.  1.
         21    1    1    2  503  502  0.75556704802E+01  0.15244253171E+03 -0.21391317721E+03  0.26278253560E+03  0.00000000000E+00 0.  1.
         21    1    1    2  504  503  0.12268065353E+02 -0.14344976103E+03  0.20989880505E+03  0.25453064202E+03  0.00000000000E+00 0. -1.
         21    1    1    2  505  504 -0.30574664245E+02 -0.40579647973E+02  0.15724318566E+03  0.16524810849E+03  0.00000000000E+00 0. -1.
         21    1    1    2  506  505  0.10750928412E+02  0.31586877290E+02  0.29838993510E+03  0.30024967385E+03  0.00000000000E+00 0. -1.
<scales pt_clust_3="14000.00000" pt_clust_4="151.69230" pt_clust_5="38.78722" pt_clust_6="33.36635"></scales>
<clustering>
<clus scale="   33.366">  1  6  2 -1</clus>
<clus scale="   38.787">  1  5  2 -1</clus>
<clus scale="  151.692">  1  4  2 -1</clus>
<clus scale="   33.366">  1  3  2 -1</clus>
</clustering>
</event>
<event>
 6    0  0.5563122E+002  0.1302957E+03  0.7546771E-02  0.1227018E+00
         21   -1    0    0  504  501  0.00000000000E+00  0.00000000000E+00  0.55793446583E+02  0.55793446583E+02  0.00000000000E+00 0. -1.
         21   -1    0    0  505  502 -0.00000000000E+00 -0.00000000000E+00 -0.58134097198E+03  0.58134097198E+03  0.00000000000E+00 0. -1.
         21    1    1    2  503  502 -0.43770161050E+02  0.32423671732E+02 -0.55526223227E+02  0.77783564799E+02  0.00000000000E+00 0. -1.
         21    1    1    2  504  503 -0.72812270242E+02 -0.29520409354E+01 -0.88487498995E+02  0.11463149097E+03  0.00000000000E+00 0. -1.
         21    1    1    2  505  506  0.12521882969E+03  0.32900342865E+02 -0.35222361549E+03  0.37526479075E+03  0.00000000000E+00 0. -1.
         21    1    1    2  506  501 -0.86363983937E+01 -0.62371973662E+02 -0.29310187683E+02  0.69454572043E+02  0.00000000000E+00 0. -1.
<scales pt_clust_3="36.92014" pt_clust_4="36.92014" pt_clust_5="123.09915" pt_clust_6="62.96706"></scales>
<clustering>
<clus scale="   36.920">  3  4 -1 -1</clus>
<clus scale="   62.967">  1  6  2 -1</clus>
<clus scale="  123.099">  2  5  1 -1</clus>
<clus scale="   62.967">  1  3  2 -1</clus>
</clustering>
</event>
<event>
 6    0  0.5563122E+002  0.8976935E+02  0.7546771E-02  0.1303411E+00
         21   -1    0    0  503  501  0.00000000000E+00  0.00000000000E+00  0.27165396370E+03  0.27165396370E+03  0.00000000000E+00 0.  1.
         21   -1    0    0  505  502 -0.00000000000E+00 -0.00000000000E+00 -0.83821667539E+03  0.83821667539E+03  0.00000000000E+00 0. -1.
         21    1    1    2  503  506 -0.28960153124E+02  0.31666549442E+02  0.90916412544E+02  0.10053484417E+03  0.00000000000E+00 0.  1.
         21    1    1    2  504  502 -0.50236189772E+02 -0.63520113088E+02 -0.79805824068E+03  0.80215673971E+03  0.00000000000E+00 0. -1.
         21    1    1    2  505  501  0.75695330993E+02 -0.25446042106E+02  0.35397566676E+02  0.87351427690E+02  0.00000000000E+00 0.  1.
         21    1    1    2  506  504  0.35010119034E+01  0.57299605752E+02  0.10518154978E+03  0.11982762752E+03  0.00000000000E+00 0.  1.
<scales pt_clust_3="33.95169" pt_clust_4="80.72467" pt_clust_5="79.85790" pt_clust_6="33.95169"></scales>
<clustering>
<clus scale="   33.952">  3  6 -1 -1</clus>
<clus scale="   79.858">  1  5  2 -1</clus>
<clus scale="   80.725">  2  4  1 -1</clus>
<clus scale="   79.858">  1  3  2 -1</clus>
</clustering>
</event>
<event>
 6    0  0.5563122E+002  0.9438790E+02  0.7546771E-02  0.1292561E+00
         21   -1    0    0  504  501  0.00000000000E+00  0.00000000000E+00  0.58116515505E+02  0.58116515505E+02  0.00000000000E+00 0.  1.
         21   -1    0    0  506  502 -0.00000000000E+00 -0.00000000000E+00 -0.15353295856E+04  0.15353295856E+04  0.00000000000E+00 0.  1.
         21    1    1    2  503  502  0.22178673778E+02 -0.20357013014E+02 -0.11649734198E+04  0.11653623344E+04  0.00000000000E+00 0.  1.
         21    1    1    2  504  505 -0.30107849807E+02  0.84785623759E+02 -0.32942627655E+02  0.95813889040E+02  0.00000000000E+00 0.  1.
         21    1    1    2  505  503  0.68442691739E+02 -0.84230002465E+02 -0.12613395357E+03  0.16639972840E+03  0.00000000000E+00 0.  1.
         21    1    1    2  506  501 -0.60513515710E+02  0.19801391720E+02 -0.15316306906E+03  0.16587014928E+03  0.00000000000E+00 0.  1.
<scales pt_clust_3="30.10484" pt_clust_4="94.38790" pt_clust_5="14000.00000" pt_clust_6="52.13576"></scales>
<clustering>
<clus scale="   30.105">  2  3  1 -1</clus>
<clus scale="   52.136">  2  6  1 -1</clus>
<clus scale="   94.388">  1  4  2 -1</clus>
<clus scale="   94.388">  1  3  2 -1</clus>
</clustering>
</event>
<event>
 6    0  0.5563122E+002  0.1080155E+03  0.7546771E-02  0.1264290E+00
         21   -1    0    0  505  501  0.00000000000E+00  0.00000000000E+00  0.47879228619E+03  0.47879228619E+03  0.00000000000E+00 0. -1.
         21   -1    0    0  506  502 -0.00000000000E+00 -0.00000000000E+00 -0.15656366033E+03  0.15656366033E+03  0.00000000000E+00 0. -1.
         21    1    1    2  503  504 -0.71307913988E+02  0.47972983971E+01  0.62799128445E+02  0.95139703609E+02  0.00000000000E+00 0. -1.
         21    1    1    2  504  501 -0.46409401582E+02 -0.40759529196E+02  0.24734110178E+03  0.25493684003E+03  0.00000000000E+00 0. -1.
         21    1    1    2  505  502  0.15989847921E+03  0.44786862701E+02  0.95382708298E+02  0.19149738319E+03  0.00000000000E+00 0. -1.
         21    1    1    2  506  503 -0.42181163643E+02 -0.88246319023E+01 -0.83294312665E+02  0.93782019688E+02  0.00000000000E+00 0. -1.
<scales pt_clust_3="108.01547" pt_clust_4="63.87260" pt_clust_5="14000.00000" pt_clust_6="43.09437"></scales>
<clustering>
<clus scale="   43.094">  2  6  1 -1</clus>
<clus scale="   63.873">  1  4  2 -1</clus>
<clus scale="  108.015">  1  3  2 -1</clus>
<clus scale="   63.873">  1  3  2 -1</clus>
</clustering>
</event>
<event>
 6    0  0.5563122E+002  0.2805807E+03  0.7546771E-02  0.1095372E+00
         21   -1    0    0  504  501  0.00000000000E+00  0.00000000000E+00  0.29101383384E+03  0.29101383384E+03  0.00000000000E+00 0. -1.
         21   -1    0    0  503  502 -0.00000000000E+00 -0.00000000000E+00 -0.78682281632E+03  0.78682281632E+03  0.00000000000E+00 0.  1.
         21    1    1    2  503  506  0.12815435331E+03 -0.96705173819E+02 -0.49124389921E+03  0.51681331004E+03  0.00000000000E+00 0.  1.
         21    1    1    2  504  505  0.31776471635E+02  0.46592842175E+02  0.22245815504E+01  0.56440994451E+02  0.00000000000E+00 0.  1.
         21    1    1    2  505  502  0.10173884660E+03 -0.11956661557E+03 -0.91110173080E+02  0.18151592797E+03  0.00000000000E+00 0.  1.
         21    1    1    2  506  501 -0.26166967154E+03  0.16967894722E+03  0.84320508259E+02  0.32306641770E+03  0.00000000000E+00 0. -1.
<scales pt_clust_3="280.58072" pt_clust_4="56.39714" pt_clust_5="154.70658" pt_clust_6="14000.00000"></scales>
<clustering>
<clus scale="   56.397">  1  4  2 -1</clus>
<clus scale="  154.707">  2  5  1 -1</clus>
<clus scale="  280.581">  2  3  1 -1</clus>
<clus scale="   56.397">  1  3  2 -1</clus>
</clustering>
</event>
<event>
 6    0  0.5563122E+002  0.7944502E+02  0.7546771E-02  0.1330634E+00
         21   -1    0    0  504  501  0.00000000000E+00  0.00000000000E+00  0.32642124220E+03  0.32642124220E+03  0.00000000000E+00 0. -1.
         21   -1    0    0  505  502 -0.00000000000E+00 -0.00000000000E+00 -0.72056275881E+02  0.72056275881E+02  0.00000000000E+00 0. -1.
         21    1    1    2  503  501 -0.44088827147E+02  0.12610784335E+02  0.67642300141E+02  0.81721094762E+02  0.00000000000E+00 0. -1.
         21    1    1    2  504  506  0.88139696712E+02  0.62491802773E+02  0.17601464270E+03  0.20653083546E+03  0.00000000000E+00 0. -1.
         21    1    1    2  505  503 -0.53685665991E+02 -0.27349935009E+02  0.12261511375E+02  0.61485887317E+02  0.00000000000E+00 0. -1.
         21    1    1    2  506  502  0.96347964267E+01 -0.47752652099E+02 -0.15534878944E+01  0.48739700546E+02  0.00000000000E+00 0. -1.
<scales pt_clust_3="45.85691" pt_clust_4="14000.00000" pt_clust_5="79.44502" pt_clust_6="46.89474"></scales>
<clustering>
<clus scale="   45.857">  1  3  2 -1</clus>
<clus scale="   46.895">  2  6  1 -1</clus>
<clus scale="   79.445">  2  5  1 -1</clus>
<clus scale="   45.857">  1  3  2 -1</clus>
</clustering>
</event>
<event>
 6    0  0.5563122E+002  0.2075361E+03  0.7546771E-02  0.1143532E+00
         21   -1    0    0  506  501  0.00000000000E+00  0.00000000000E+00  0.10809926103E+03  0.10809926103E+03  0.00000000000E+00 0.  1.
         21   -1    0    0  505  502 -0.00000000000E+00 -0.00000000000E+00 -0.20687736753E+04  0.20687736753E+04  0.00000000000E+00 0.  1.
         21    1    1    2  503  502  0.36447356053E+01  0.19056993715E+03 -0.17051833244E+03  0.25574731033E+03  0.00000000000E+00 0.  1.
         21    1    1    2  504  501  0.58848474740E+02 -0.86558225394E+02 -0.14966614831E+02  0.10573300772E+03  0.00000000000E+00 0.  1.
         21    1    1    2  505  504 -0.92049534726E+02 -0.17400469044E+03 -0.16892596388E+04  0.17006907057E+04  0.00000000000E+00 0.  1.
         21    1    1    2  506  503  0.29556324380E+02  0.69992978686E+02 -0.85929828210E+02  0.11470191259E+03  0.00000000000E+00 0.  1.
<scales pt_clust_3="31.38825" pt_clust_4="104.66838" pt_clust_5="201.49348" pt_clust_6="31.38825"></scales>
<clustering>
<clus scale="   31.388">  3  6 -1 -1</clus>
<clus scale="  104.668">  1  4  2 -1</clus>
<clus scale="  201.493">  2  5  1 -1</clus>
<clus scale="  104.668">  1  3  2 -1</clus>
</clustering>
</event>
<event>
 6    0  0.5563122E+002  0.1166578E+03  0.7546771E-02  0.1248715E+00
         21   -1    0    0  505  501  0.00000000000E+00  0.00000000000E+00  0.26217363997E+04  0.26217363997E+04  0.00000000000E+00 0.  1.
         21   -1    0    0  503  502 -0.00000000000E+00 -0.00000000000E+00 -0.79998695372E+02  0.79998695372E+02  0.00000000000E+00 0.  1.
         21    1    1    2  503  501 -0.25467258800E+02 -0.36274575081E+02  0.88371552509E+02  0.98863326674E+02  0.00000000000E+00 0. -1.
         21    1    1    2  504  506  0.25978866210E+02  0.93998833243E+02  0.63560575261E+03  0.64304382035E+03  0.00000000000E+00 0.  1.
         21    1    1    2  505  504  0.43851604565E+02  0.96728304802E+01  0.18655232241E+04  0.18660636181E+04  0.00000000000E+00 0.  1.
         21    1    1    2  506  502 -0.44363211974E+02 -0.67397088642E+02 -0.47762824920E+02  0.93764329990E+02  0.00000000000E+00 0.  1.
<scales pt_clust_3="44.32185" pt_clust_4="14000.00000" pt_clust_5="44.78775" pt_clust_6="116.65782"></scales>
<clustering>
<clus scale="   44.322">  2  3  1 -1</clus>
<clus scale="   44.788">  1  5  2 -1</clus>
<clus scale="  116.658">  2  6  1 -1</clus>
<clus scale="   44.788">  1  3  2 -1</clus>
</clustering>
</event>
<event>
 6    0  0.5563122E+002  0.6766968E+02  0.7546771E-02  0.1368202E+00
         21   -1    0    0  506  501  0.00000000000E+00  0.00000000000E+00  0.30103656622E+03  0.30103656622E+03  0.00000000000E+00 0.  1.
         21   -1    0    0  505  502 -0.00000000000E+00 -0.00000000000E+00 -0.20643339967E+04  0.20643339967E+04  0.00000000000E+00 0. -1.
         21    1    1    2  503  502 -0.35733342690E+02  0.32558770601E+02 -0.51449995101E+03  0.51676604466E+03  0.00000000000E+00 0. -1.
         21    1    1    2  504  503  0.11547400551E+03  0.90368051488E+01 -0.57541639754E+03  0.58695821006E+03  0.00000000000E+00 0.  1.
         21    1    1    2  505  501 -0.32513131130E+02 -0.23507476725E+02 -0.96491986743E+03  0.96575362060E+03  0.00000000000E+00 0.  1.
         21    1    1    2  506  504 -0.47227531691E+02 -0.18088099025E+02  0.29153878554E+03  0.29589268755E+03  0.00000000000E+00 0.  1.
<scales pt_clust_3="14000.00000" pt_clust_4="67.66968" pt_clust_5="40.12113" pt_clust_6="50.64971"></scales>
<clustering>
<clus scale="   40.121">  2  5  1 -1</clus>
<clus scale="   50.650">  1  6  2 -1</clus>
<clus scale="   67.670">  1  4  2 -1</clus>
<clus scale="   50.650">  1  3  2 -1</clus>
</clustering>
</event>
<event>
 6    0  0.5563122E+002  0.9141309E+02  0.7546771E-02  0.1299465E+00
         21   -1    0    0  503  501  0.00000000000E+00  0.00000000000E+00  0.46421460107E+03  0.46421460107E+03  0.00000000000E+00 0. -1.
         21   -1    0    0  504  502 -0.00000000000E+00 -0.00000000000E+00 -0.11610868849E+03  0.11610868849E+03  0.00000000000E+00 0. -1.
         21    1    1    2  503  505 -0.47030262808E+02  0.53387951096E+02  0.12154533892E+03  0.14083816370E+03  0.00000000000E+00 0.  1.
         21    1    1    2  504  506  0.31932128753E+02  0.27092517487E+02 -0.61709972659E+02  0.74577383140E+02  0.00000000000E+00 0. -1.
         21    1    1    2  505  502  0.86508443944E+02  0.17482349548E+02  0.18762427550E+03  0.20734563457E+03  0.00000000000E+00 0. -1.
         21    1    1    2  506  501 -0.71410309889E+02 -0.97962818131E+02  0.10064627082E+03  0.15756210815E+03  0.00000000000E+00 0. -1.
<scales pt_clust_3="71.48972" pt_clust_4="41.87679" pt_clust_5="91.41309" pt_clust_6="14000.00000"></scales>
<clustering>
<clus scale="   41.877">  2  4  1 -1</clus>
<clus scale="   71.490">  1  3  2 -1</clus>
<clus scale="   91.413">  1  5  2 -1</clus>
<clus scale="   71.490">  1  3  2 -1</clus>
</clustering>
</event>
<event>
 6    0  0.5563122E+002  0.1627010E+03  0.7546771E-02  0.1185681E+00
         21   -1    0    0  504  501  0.00000000000E+00  0.00000000000E+00  0.89050732370E+03  0.89050732370E+03  0.00000000000E+00 0. -1.
         21   -1    0    0  506  502 -0.00000000000E+00 -0.00000000000E+00 -0.12308971403E+03  0.12308971403E+03  0.00000000000E+00 0. -1.
         21    1    1    2  503  501  0.63577235738E+02 -0.11608605235E+03  0.55428765790E+03  0.56987090130E+03  0.00000000000E+00 0. -1.
         21    1    1    2  504  505 -0.15663323713E+01  0.88799546054E+02  0.18065584652E+03  0.20130660113E+03  0.00000000000E+00 0. -1.
         21    1    1    2  505  502 -0.30456581167E+02  0.10655456081E+03  0.87237434883E+02  0.14103846217E+03  0.00000000000E+00 0. -1.
         21    1    1    2  506  503 -0.31554322200E+02 -0.79268054519E+02 -0.54763329623E+02  0.10138107313E+03  0.00000000000E+00 0. -1.
<scales pt_clust_3="142.22159" pt_clust_4="70.74246" pt_clust_5="70.74246" pt_clust_6="85.31764"></scales>
<clustering>
<clus scale="   70.742">  4  5 -1 -1</clus>
<clus scale="   85.318">  2  6  1 -1</clus>
<clus scale="  142.222">  1  3  2 -1</clus>
<clus scale="  142.222">  1  3  2 -1</clus>
</clustering>
</event>
<event>
 6    0  0.5563122E+002  0.6316408E+02  0.7546771E-02  0.1385014E+00
         21   -1    0    0  503  501  0.00000000000E+00  0.00000000000E+00  0.21687116427E+03  0.21687116427E+03  0.00000000000E+00 0.  1.
         21   -1    0    0  504  502 -0.00000000000E+00 -0.00000000000E+00 -0.14732215061E+03  0.14732215061E+03  0.00000000000E+00 0.  1.
         21    1    1    2  503  505 -0.45678286281E+02  0.21722176069E+02 -0.45766507382E+01  0.50786853641E+02  0.00000000000E+00 0. -1.
         21    1    1    2  504  506 -0.51256616258E+01 -0.99960913052E+02 -0.67386635908E+02  0.12066240195E+03  0.00000000000E+00 0.  1.
         21    1    1    2  505  502  0.14965963711E+01  0.39416558539E+02  0.16867431109E+01  0.39481007967E+02  0.00000000000E+00 0.  1.
         21    1    1    2  506  501  0.49307351536E+02  0.38822178443E+02  0.13982555720E+03  0.15326305132E+03  0.00000000000E+00 0.  1.
<scales pt_clust_3="54.50034" pt_clust_4="63.16408" pt_clust_5="39.44496" pt_clust_6="14000.00000"></scales>
<clustering>
<clus scale="   39.445">  2  5  1 -1</clus>
<clus scale="   54.500">  2  3  1 -1</clus>
<clus scale="   63.164">  2  4  1 -1</clus>
<clus scale="   63.164">  1  3  2 -1</clus>
</clustering>
</event>
<event>
 6    0  0.5563122E+002  0.1891435E+03  0.7546771E-02  0.1159236E+00
         21   -1    0    0  506  501  0.00000000000E+00  0.00000000000E+00  0.41198882616E+03  0.41198882616E+03  0.00000000000E+00 0.  1.
         21   -1    0    0  504  502 -0.00000000000E+00 -0.00000000000E+00 -0.12413189139E+03  0.12413189139E+03  0.00000000000E+00 0.  1.
         21    1    1    2  503  502  0.17462865985E+03  0.50390368256E+01  0.35863698538E+02  0.17834451381E+03  0.00000000000E+00 0.  1.
         21    1    1    2  504  501 -0.14792163010E+02 -0.41036903556E+02 -0.25538068654E+00  0.43622250736E+02  0.00000000000E+00 0.  1.
         21    1    1    2  505  503 -0.52632279437E+02  0.56950834471E+02  0.11582505779E+03  0.13938794208E+03  0.00000000000E+00 0.  1.
         21    1    1    2  506  505 -0.10720421740E+03 -0.20952967740E+02  0.13642355913E+03  0.17476601092E+03  0.00000000000E+00 0.  1.
<scales pt_clust_3="165.99845" pt_clust_4="43.62150" pt_clust_5="73.82830" pt_clust_6="73.82830"></scales>
<clustering>
<clus scale="   43.622">  2  4  1 -1</clus>
<clus scale="   73.828">  5  6 -1 -1</clus>
<clus scale="  165.998">  2  3  1 -1</clus>
<clus scale="  189.144">  1  3  2 -1</clus>
</clustering>
</event>
<event>
 6    0  0.5563122E+002  0.1063380E+03  0.7546771E-02  0.1267506E+00
         21   -1    0    0  504  501  0.00000000000E+00  0.00000000000E+00  0.32750236791E+03  0.32750236791E+03  0.00000000000E+00 0. -1.
         21   -1    0    0  501  502 -0.00000000000E+00 -0.00000000000E+00 -0.10891363367E+03  0.10891363367E+03  0.00000000000E+00 0. -1.
         21    1    1    2  503  502 -0.42916465163E+02 -0.83986669955E+02 -0.12760079163E+02  0.95175644639E+02  0.00000000000E+00 0. -1.
         21    1    1    2  504  505 -0.35949296672E+02 -0.37277178388E+02  0.46998709833E+02  0.69934388434E+02  0.00000000000E+00 0. -1.
         21    1    1    2  505  506 -0.34479174380E+02  0.45867489562E+01  0.46596904024E+02  0.58147426397E+02  0.00000000000E+00 0. -1.
         21    1    1    2  506  503  0.11334493622E+03  0.11667709939E+03  0.13775319955E+03  0.21315854211E+03  0.00000000000E+00 0. -1.
<scales pt_clust_3="106.33797" pt_clust_4="87.43462" pt_clust_5="32.94493" pt_clust_6="14000.00000"></scales>
<clustering>
<clus scale="   32.945">  4  5 -1 -1</clus>
<clus scale="   87.435">  1  4  2 -1</clus>
<clus scale="  106.338">  2  3  1 -1</clus>
<clus scale="   87.435">  1  3  2 -1</clus>
</clustering>
</event>
<event>
 6    0  0.5563122E+002  0.1219472E+03  0.7546771E-02  0.1239919E+00
         21   -1    0    0  506  501  0.00000000000E+00  0.00000000000E+00  0.20617755830E+03  0.20617755830E+03  0.00000000000E+00 0. -1.
         21   -1    0    0  504  502 -0.00000000000E+00 -0.00000000000E+00 -0.17151828132E+04  0.17151828132E+04  0.00000000000E+00 0.  1.
         21    1    1    2  503  501  0.42731581007E+02 -0.11055455541E+03 -0.69286544261E+03  0.70293016673E+03  0.00000000000E+00 0.  1.
         21    1    1    2  504  503  0.23433490033E+02 -0.35241654903E+02 -0.91812829714E+03  0.91910318937E+03  0.00000000000E+00 0.  1.
         21    1    1    2  505  502  0.18154834384E+01  0.44348587890E+02 -0.73301716518E+02  0.85692676889E+02  0.00000000000E+00 0.  1.
         21    1    1    2  506  505 -0.67980554478E+02  0.10144762242E+03  0.17529020139E+03  0.21363433850E+03  0.00000000000E+00 0. -1.
<scales pt_clust_3="121.94716" pt_clust_4="42.32142" pt_clust_5="41.04225" pt_clust_6="14000.00000"></scales>
<clustering>
<clus scale="   42.321">  2  4  1 -1</clus>
<clus scale="   41.042">  2  5  1 -1</clus>
<clus scale="  121.947">  2  3  1 -1</clus>
<clus scale="  121.947">  1  3  2 -1</clus>
</clustering>
</event>
<event>
 6    0  0.5563122E+002  0.1051426E+03  0.7546771E-02  0.1269839E+00
         21   -1    0    0  505  501  0.00000000000E+00  0.00000000000E+00  0.10183578742E+04  0.10183578742E+04  0.00000000000E+00 0. -1.
         21   -1    0    0  506  502 -0.00000000000E+00 -0.00000000000E+00 -0.36375043933E+02  0.36375043933E+02  0.00000000000E+00 0. -1.
         21    1    1    2  503  502 -0.38545972798E+02 -0.52287168932E+02  0.11006586140E+03  0.12780545332E+03  0.00000000000E+00 0. -1.
         21    1    1    2  504  503  0.56058455938E+02  0.69804706007E+02  0.14156154794E+03  0.16749602777E+03  0.00000000000E+00 0. -1.
         21    1    1    2  505  504  0.26614388838E+02  0.23479790095E+02  0.10431833704E+02  0.36992558583E+02  0.00000000000E+00 0. -1.
         21    1    1    2  506  501 -0.44126871979E+02 -0.40997327169E+02  0.71992358727E+03  0.72243887851E+03  0.00000000000E+00 0. -1.
<scales pt_clust_3="88.75905" pt_clust_4="35.48754" pt_clust_5="35.48754" pt_clust_6="60.23256"></scales>
<clustering>
<clus scale="   35.488">  4  5 -1 -1</clus>
<clus scale="   60.233">  1  6  2 -1</clus>
<clus scale="   88.759">  2  3  1 -1</clus>
<clus scale="   60.233">  1  3  2 -1</clus>
</clustering>
</event>
<event>
 6    0  0.5563122E+002  0.7967021E+02  0.7546771E-02  0.1329990E+00
         21   -1    0    0  505  501  0.00000000000E+00  0.00000000000E+00  0.11913725715E+04  0.11913725715E+04  0.00000000000E+00 0. -1.
         21   -1    0    0  506  502 -0.00000000000E+00 -0.00000000000E+00 -0.54402697748E+02  0.54402697748E+02  0.00000000000E+00 0. -1.
         21    1    1    2  503  504  0.93627159617E+02 -0.50373994362E+02  0.16131094474E+03  0.19319628676E+03  0.00000000000E+00 0. -1.
         21    1    1    2  504  502 -0.56979346658E+02  0.17328078781E+02  0.55434051380E+01  0.59813356371E+02  0.00000000000E+00 0. -1.
         21    1    1    2  505  503  0.31777270112E+02  0.13705035283E+02  0.86596932281E+03  0.86666053962E+03  0.00000000000E+00 0. -1.
         21    1    1    2  506  501 -0.68425083071E+02  0.19340880298E+02  0.10414620108E+03  0.12610508651E+03  0.00000000000E+00 0. -1.
<scales pt_clust_3="79.67021" pt_clust_4="56.94478" pt_clust_5="34.60669" pt_clust_6="14000.00000"></scales>
<clustering>
<clus scale="   34.607">  1  5  2 -1</clus>
<clus scale="   56.945">  2  4  1 -1</clus>
<clus scale="   79.670">  2  3  1 -1</clus>
<clus scale="   34.607">  1  3  2 -1</clus>
</clustering>
</event>
<event>
 6    0  0.5563122E+002  0.7159271E+02  0.7546771E-02  0.1354759E+00
         21   -1    0    0  504  501  0.00000000000E+00  0.00000000000E+00  0.41327040525E+03  0.41327040525E+03  0.00000000000E+00 0.  1.
         21   -1    0    0  506  502 -0.00000000000E+00 -0.00000000000E+00 -0.83066949319E+02  0.83066949319E+02  0.00000000000E+00 0.  1.
         21    1    1    2  503  505  0.60937420240E+02 -0.10074744297E+03  0.12000748616E+03  0.16812261354E+03  0.00000000000E+00 0.  1.
         21    1    1    2  504  503 -0.16338056044E+02  0.60778203374E+02  0.19096319638E+03  0.20106681589E+03  0.00000000000E+00 0.  1.
         21    1    1    2  505  502 -0.17476175443E+02  0.62641755383E+02 -0.25741511160E+02  0.69943059859E+02  0.00000000000E+00 0.  1.
         21    1    1    2  506  501 -0.27123188753E+02 -0.22672515788E+02  0.44974284557E+02  0.57204865280E+02  0.00000000000E+00 0.  1.
<scales pt_clust_3="71.59271" pt_clust_4="57.57663" pt_clust_5="14000.00000" pt_clust_6="35.35124"></scales>
<clustering>
<clus scale="   35.351">  1  6  2 -1</clus>
<clus scale="   57.577">  1  4  2 -1</clus>
<clus scale="   71.593">  1  3  2 -1</clus>
<clus scale="   35.351">  1  3  2 -1</clus>
</clustering>
</event>
<event>
 6    0  0.5563122E+002  0.1209886E+03  0.7546771E-02  0.1241475E+00
         21   -1    0    0  506  501  0.00000000000E+00  0.00000000000E+00  0.38355657686E+03  0.38355657686E+03  0.00000000000E+00 0.  1.
         21   -1    0    0  504  502 -0.00000000000E+00 -0.00000000000E+00 -0.83668603855E+03  0.83668603855E+03  0.00000000000E+00 0.  1.
         21    1    1    2  503  501  0.33455390036E+02 -0.26327266558E+01  0.57156337594E+02  0.66280021871E+02  0.00000000000E+00 0.  1.
         21    1    1    2  504  503  0.73232798372E+02  0.95057490687E+02 -0.74068461945E+03  0.75034170535E+03  0.00000000000E+00 0.  1.
         21    1    1    2  505  502 -0.14928439189E+03 -0.55233239690E+02 -0.72474834612E+01  0.15933946920E+03  0.00000000000E+00 0.  1.
         21    1    1    2  506  505  0.42596203485E+02 -0.37191524342E+02  0.23764630363E+03  0.24428141899E+03  0.00000000000E+00 0.  1.
<scales pt_clust_3="33.55882" pt_clust_4="14000.00000" pt_clust_5="120.98863" pt_clust_6="78.16335"></scales>
<clustering>
<clus scale="   33.559">  1  3  2 -1</clus>
<clus scale="   78.163">  1  6  2 -1</clus>
<clus scale="  120.989">  1  5  2 -1</clus>
<clus scale="   33.559">  1  3  2 -1</clus>
</clustering>
</event>
<event>
 6    0  0.5563122E+002  0.9062922E+02  0.7546771E-02  0.1301335E+00
         21   -1    0    0  506  501  0.00000000000E+00  0.00000000000E+00  0.30283175424E+03  0.30283175424E+03  0.00000000000E+00 0. -1.
         21   -1    0    0  503  502 -0.00000000000E+00 -0.00000000000E+00 -0.23146920075E+03  0.23146920075E+03  0.00000000000E+00 0. -1.
         21    1    1    2  503  504  0.50181059958E+01 -0.32237911809E+02 -0.51923630359E+02  0.61323141922E+02  0.00000000000E+00 0. -1.
         21    1    1    2  504  501  0.67474170692E+02 -0.22476722802E+02 -0.69539130469E+02  0.99466866066E+02  0.00000000000E+00 0. -1.
         21    1    1    2  505  502 -0.67892115680E+02  0.11736581252E+03 -0.32636996586E+02  0.13946055667E+03  0.00000000000E+00 0. -1.
         21    1    1    2  506  505 -0.46001610080E+01 -0.62651177911E+02  0.22546231091E+03  0.23405039033E+03  0.00000000000E+00 0. -1.
<scales pt_clust_3="32.62613" pt_clust_4="90.62922" pt_clust_5="14000.00000" pt_clust_6="63.60067"></scales>
<clustering>
<clus scale="   32.626">  2  3  1 -1</clus>
<clus scale="   63.601">  1  6  2 -1</clus>
<clus scale="   90.629">  2  4  1 -1</clus>
<clus scale="   63.601">  1  3  2 -1</clus>
</clustering>
</event>
<event>
 6    0  0.5563122E+002  0.1084900E+03  0.7546771E-02  0.1263392E+00
         21   -1    0    0  504  501  0.00000000000E+00  0.00000000000E+00  0.30653195862E+03  0.30653195862E+03  0.00000000000E+00 0.  1.
         21   -1    0    0  505  502 -0.00000000000E+00 -0.00000000000E+00 -0.42617676640E+03  0.42617676640E+03  0.00000000000E+00 0. -1.
         21    1    1    2  503  501  0.11671475143E+03 -0.27352338848E+02  0.22664253855E+03  0.25639290926E+03  0.00000000000E+00 0.  1.
         21    1    1    2  504  506 -0.65334937977E+02  0.61970170028E+02  0.18920793126E+02  0.92016044831E+02  0.00000000000E+00 0. -1.
         21    1    1    2  505  503 -0.10259147833E+02 -0.34583734373E+02 -0.30976750476E+02  0.47548331911E+02  0.00000000000E+00 0. -1.
         21    1    1    2  506  502 -0.41120665619E+02 -0.34096806611E-01 -0.33423138897E+03  0.33675143901E+03  0.00000000000E+00 0. -1.
<scales pt_clust_3="108.48996" pt_clust_4="14000.00000" pt_clust_5="36.07333" pt_clust_6="58.33457"></scales>
<clustering>
<clus scale="   36.073">  2  5  1 -1</clus>
<clus scale="   58.335">  2  6  1 -1</clus>
<clus scale="  108.490">  1  3  2 -1</clus>
<clus scale="  108.490">  1  3  2 -1</clus>
</clustering>
</event>
<event>
 6    0  0.5563122E+002  0.1312542E+03  0.7546771E-02  0.1225607E+00
         21   -1    0    0  504  501  0.00000000000E+00  0.00000000000E+00  0.94929389721E+03  0.94929389721E+03  0.00000000000E+00 0.  1.
         21   -1    0    0  506  502 -0.00000000000E+00 -0.00000000000E+00 -0.13384845480E+03  0.13384845480E+03  0.00000000000E+00 0.  1.
         21    1    1    2  503  505 -0.16560718570E+03  0.29897772448E+01  0.39533025632E+01  0.16568134272E+03  0.00000000000E+00 0.  1.
         21    1    1    2  504  503  0.33827558490E+02  0.12425978655E+02  0.68520368857E+03  0.68615071485E+03  0.00000000000E+00 0.  1.
         21    1    1    2  505  502  0.96529776935E+02 -0.55966276635E+02  0.21618827195E+02  0.11365560103E+03  0.00000000000E+00 0.  1.
         21    1    1    2  506  501  0.35249850279E+02  0.40550520736E+02  0.10466962408E+03  0.11765469341E+03  0.00000000000E+00 0.  1.
<scales pt_clust_3="14000.00000" pt_clust_4="36.03760" pt_clust_5="131.25418" pt_clust_6="67.44196"></scales>
<clustering>
<clus scale="   36.038">  1  4  2 -1</clus>
<clus scale="   67.442">  1  6  2 -1</clus>
<clus scale="  131.254">  2  5  1 -1</clus>
<clus scale="   36.038">  1  3  2 -1</clus>
</clustering>
</event>
<event>
 6    0  0.5563122E+002  0.6887395E+02  0.7546771E-02  0.1363965E+00
         21   -1    0    0  504  501  0.00000000000E+00  0.00000000000E+00  0.34319127716E+03  0.34319127716E+03  0.00000000000E+00 0. -1.
         21   -1    0    0  503  502 -0.00000000000E+00 -0.00000000000E+00 -0.10327708924E+03  0.10327708924E+03  0.00000000000E+00 0.  1.
         21    1    1    2  503  506 -0.10242371912E+02  0.38769594198E+02  0.17207016306E+02  0.43635639411E+02  0.00000000000E+00 0.  1.
         21    1    1    2  504  502 -0.10016792551E+03  0.58242176419E+01 -0.34476163002E+02  0.10609496043E+03  0.00000000000E+00 0.  1.
         21    1    1    2  505  501  0.58954784314E+02 -0.32443431844E+02  0.22498827578E+03  0.23483604302E+03  0.00000000000E+00 0. -1.
         21    1    1    2  506  505  0.51455513110E+02 -0.12150379996E+02  0.32195058838E+02  0.61901723539E+02  0.00000000000E+00 0.  1.
<scales pt_clust_3="40.09972" pt_clust_4="68.87395" pt_clust_5="14000.00000" pt_clust_6="50.09813"></scales>
<clustering>
<clus scale="   40.100">  2  3  1 -1</clus>
<clus scale="   50.098">  2  6  1 -1</clus>
<clus scale="   68.874">  2  4  1 -1</clus>
<clus scale="   68.874">  1  3  2 -1</clus>
</clustering>
</event>
<event>
 6    0  0.5563122E+002  0.9308975E+02  0.7546771E-02  0.1295537E+00
         21   -1    0    0  503  501  0.00000000000E+00  0.00000000000E+00  0.15514471206E+04  0.15514471206E+04  0.00000000000E+00 0. -1.
         21   -1    0    0  506  502 -0.00000000000E+00 -0.00000000000E+00 -0.22073569177E+02  0.22073569177E+02  0.00000000000E+00 0. -1.
         21    1    1    2  503  504 -0.48210118215E+02 -0.84398058327E+02  0.78765085121E+03  0.79362529645E+03  0.00000000000E+00 0. -1.
         21    1    1    2  504  502  0.13140851189E+02  0.67804922040E+02  0.15281459899E+03  0.16769761801E+03  0.00000000000E+00 0. -1.
         21    1    1    2  505  501  0.96095891707E+02  0.33360662428E+02  0.40982811898E+03  0.42226347380E+03  0.00000000000E+00 0. -1.
         21    1    1    2  506  505 -0.61026624681E+02 -0.16767526142E+02  0.17907998229E+03  0.18993430156E+03  0.00000000000E+00 0. -1.
<scales pt_clust_3="14000.00000" pt_clust_4="61.94474" pt_clust_5="93.08975" pt_clust_6="63.28822"></scales>
<clustering>
<clus scale="   63.288">  2  6  1 -1</clus>
<clus scale="   61.945">  2  4  1 -1</clus>
<clus scale="   93.090">  2  5  1 -1</clus>
<clus scale="   93.090">  1  3  2 -1</clus>
</clustering>
</event>
<event>
 6    0  0.5563122E+002  0.1251058E+03  0.7546771E-02  0.1234904E+00
         21   -1    0    0  504  501  0.00000000000E+00  0.00000000000E+00  0.23655710231E+03  0.23655710231E+03  0.00000000000E+00 0. -1.
         21   -1    0    0  503  502 -0.00000000000E+00 -0.00000000000E+00 -0.23196149479E+03  0.23196149479E+03  0.00000000000E+00 0. -1.
         21    1    1    2  503  505 -0.47403331468E+02  0.47040737618E+02 -0.12365359616E+02  0.67917663007E+02  0.00000000000E+00 0. -1.
         21    1    1    2  504  502  0.84517506316E+02 -0.57709176531E+02 -0.12872513381E+03  0.16444974309E+03  0.00000000000E+00 0. -1.
         21    1    1    2  505  506 -0.96455802042E+02  0.29331457360E+02  0.30650766661E+02  0.10537326812E+03  0.00000000000E+00 0. -1.
         21    1    1    2  506  501  0.59341627194E+02 -0.18663018447E+02  0.11503533428E+03  0.13077792287E+03  0.00000000000E+00 0. -1.
<scales pt_clust_3="45.80410" pt_clust_4="111.73285" pt_clust_5="45.80410" pt_clust_6="62.20721"></scales>
<clustering>
<clus scale="   45.804">  3  5 -1 -1</clus>
<clus scale="   62.207">  1  6  2 -1</clus>
<clus scale="  111.733">  2  4  1 -1</clus>
<clus scale="   62.207">  1  3  2 -1</clus>
</clustering>
</event>
<event>
 6    0  0.5563122E+002  0.2244623E+03  0.7546771E-02  0.1130599E+00
         21   -1    0    0  506  501  0.00000000000E+00  0.00000000000E+00  0.22515932475E+03  0.22515932475E+03  0.00000000000E+00 0.  1.
         21   -1    0    0  503  502 -0.00000000000E+00 -0.00000000000E+00 -0.53540864353E+03  0.53540864353E+03  0.00000000000E+00 0.  1.
         21    1    1    2  503  504 -0.14880800497E+01 -0.46818222137E+02 -0.19329902370E+03  0.19889362199E+03  0.00000000000E+00 0.  1.
         21    1    1    2  504  505  0.48847940758E+02  0.98463672333E+02  0.65249201763E+02  0.12782282432E+03  0.00000000000E+00 0.  1.
         21    1    1    2  505  501  0.21597553108E+02  0.12141536321E+03  0.52646349925E+02  0.13408871274E+03  0.00000000000E+00 0.  1.
         21    1    1    2  506  502 -0.68957413817E+02 -0.17306081340E+03 -0.23484584676E+03  0.29976280923E+03  0.00000000000E+00 0.  1.
<scales pt_clust_3="46.84186" pt_clust_4="35.18434" pt_clust_5="35.18434" pt_clust_6="221.34679"></scales>
<clustering>
<clus scale="   35.184">  4  5 -1 -1</clus>
<clus scale="   46.842">  2  3  1 -1</clus>
<clus scale="  221.347">  2  6  1 -1</clus>
<clus scale="  224.462">  1  3  2 -1</clus>
</clustering>
</event>
<event>
 6    0  0.5563122E+002  0.1367108E+03  0.7546771E-02  0.1217825E+00
         21   -1    0    0  504  501  0.00000000000E+00  0.00000000000E+00  0.85759800467E+02  0.85759800467E+02  0.00000000000E+00 0. -1.
         21   -1    0    0  503  502 -0.00000000000E+00 -0.00000000000E+00 -0.33600403763E+03  0.33600403763E+03  0.00000000000E+00 0. -1.
         21    1    1    2  503  501 -0.24397335622E+02 -0.18913894644E+02 -0.11679459070E+03  0.12080538818E+03  0.00000000000E+00 0. -1.
         21    1    1    2  504  506  0.30869407623E+02 -0.72813377497E+02 -0.17403372446E+02  0.80978920973E+02  0.00000000000E+00 0. -1.
         21    1    1    2  505  502 -0.37705969167E+02  0.13042787244E+03 -0.72697865831E+02  0.15400697944E+03  0.00000000000E+00 0. -1.
         21    1    1    2  506  505  0.31233897166E+02 -0.38700600300E+02 -0.43348408185E+02  0.65972549503E+02  0.00000000000E+00 0. -1.
<scales pt_clust_3="30.87014" pt_clust_4="31.57026" pt_clust_5="130.68308" pt_clust_6="31.57026"></scales>
<clustering>
<clus scale="   30.870">  2  3  1 -1</clus>
<clus scale="   31.570">  4  6 -1 -1</clus>
<clus scale="  130.683">  2  5  1 -1</clus>
<clus scale="  136.711">  1  3  2 -1</clus>
</clustering>
</event>
<event>
 6    0  0.5563122E+002  0.8030749E+02  0.7546771E-02  0.1328181E+00
         21   -1    0    0  506  501  0.00000000000E+00  0.00000000000E+00  0.46293043364E+02  0.46293043364E+02  0.00000000000E+00 0.  1.
         21   -1    0    0  504  502 -0.00000000000E+00 -0.00000000000E+00 -0.11484145165E+04  0.11484145165E+04  0.00000000000E+00 0.  1.
         21    1    1    2  503  501  0.50967505745E+02 -0.85045135914E+01 -0.10883702825E+02  0.52805950237E+02  0.00000000000E+00 0.  1.
         21    1    1    2  504  505 -0.38319916786E+02 -0.69205734628E+02 -0.92320776943E+03  0.92659075933E+03  0.00000000000E+00 0.  1.
         21    1    1    2  505  503  0.23483015039E+02  0.89677449652E+02 -0.14054324315E+03  0.16836240722E+03  0.00000000000E+00 0.  1.
         21    1    1    2  506  502 -0.36130603997E+02 -0.11967201433E+02 -0.27486757690E+02  0.46948443038E+02  0.00000000000E+00 0.  1.
<scales pt_clust_3="33.93208" pt_clust_4="80.30749" pt_clust_5="14000.00000" pt_clust_6="38.06093"></scales>
<clustering>
<clus scale="   38.061">  1  6  2 -1</clus>
<clus scale="   33.932">  1  3  2 -1</clus>
<clus scale="   80.307">  2  4  1 -1</clus>
<clus scale="   38.061">  1  3  2 -1</clus>
</clustering>
</event>
<event>
 6    0  0.5563122E+002  0.1218801E+03  0.7546771E-02  0.1240027E+00
         21   -1    0    0  505  501  0.00000000000E+00  0.00000000000E+00  0.17033924397E+03  0.17033924397E+03  0.00000000000E+00 0. -1.
         21   -1    0    0  506  502 -0.00000000000E+00 -0.00000000000E+00 -0.37273808464E+03  0.37273808464E+03  0.00000000000E+00 0. -1.
         21    1    1    2  503  501  0.24945182357E+01 -0.12575980112E+03  0.99736091995E+02  0.16052737538E+03  0.00000000000E+00 0. -1.
         21    1    1    2  504  503 -0.33084663361E+02  0.88936734258E+02 -0.23899711864E+03  0.25714579593E+03  0.00000000000E+00 0. -1.
         21    1    1    2  505  502  0.48889490120E+02  0.60647670160E+02 -0.50347721014E+02  0.92753518269E+02  0.00000000000E+00 0. -1.
         21    1    1    2  506  504 -0.18299344995E+02 -0.23824603296E+02 -0.12790093024E+02  0.32650639029E+02  0.00000000000E+00 0. -1.
<scales pt_clust_3="121.88012" pt_clust_4="14000.00000" pt_clust_5="71.76024" pt_clust_6="30.04127"></scales>
<clustering>
<clus scale="   30.041">  2  6  1 -1</clus>
<clus scale="   71.760">  2  5  1 -1</clus>
<clus scale="  121.880">  1  3  2 -1</clus>
<clus scale="  121.880">  1  3  2 -1</clus>
</clustering>
</event>
<event>
 6    0  0.5563122E+002  0.6423598E+02  0.7546771E-02  0.1380869E+00
         21   -1    0    0  506  501  0.00000000000E+00  0.00000000000E+00  0.72373226819E+03  0.72373226819E+03  0.00000000000E+00 0.  1.
         21   -1    0    0  505  502 -0.00000000000E+00 -0.00000000000E+00 -0.97712253051E+02  0.97712253051E+02  0.00000000000E+00 0.  1.
         21    1    1    2  503  502  0.27020872564E+02 -0.85118147975E+02  0.34099333823E+03  0.35249352247E+03  0.00000000000E+00 0.  1.
         21    1    1    2  504  501 -0.61673725942E+02 -0.30977492257E+02  0.22091889584E+03  0.23144850839E+03  0.00000000000E+00 0.  1.
         21    1    1    2  505  504  0.29301340382E+00  0.63469901251E+02 -0.66888437007E+02  0.92209420489E+02  0.00000000000E+00 0.  1.
         21    1    1    2  506  503  0.34359839975E+02  0.52625738981E+02  0.13099621808E+03  0.14529306989E+03  0.00000000000E+00 0.  1.
<scales pt_clust_3="64.23598" pt_clust_4="49.56019" pt_clust_5="14000.00000" pt_clust_6="62.84956"></scales>
<clustering>
<clus scale="   62.850">  1  6  2 -1</clus>
<clus scale="   49.560">  1  4  2 -1</clus>
<clus scale="   64.236">  1  3  2 -1</clus>
<clus scale="   62.850">  1  3  2 -1</clus>
</clustering>
</event>
<event>
 6    0  0.5563122E+002  0.1659680E+03  0.7546771E-02  0.1182119E+00
         21   -1    0    0  504  501  0.00000000000E+00  0.00000000000E+00  0.91526918966E+02  0.91526918966E+02  0.00000000000E+00 0.  1.
         21   -1    0    0  503  502 -0.00000000000E+00 -0.00000000000E+00 -0.20801424883E+04  0.20801424883E+04  0.00000000000E+00 0. -1.
         21    1    1    2  503  505 -0.10144685960E+03  0.25035011368E+02 -0.14022801453E+04  0.14061677792E+04  0.00000000000E+00 0. -1.
         21    1    1    2  504  502  0.10222171070E+03  0.13738561817E+03 -0.57107672063E+03  0.59619854668E+03  0.00000000000E+00 0.  1.
         21    1    1    2  505  506 -0.18015373398E+02 -0.85084777554E+02  0.62678671726E+01  0.87196669712E+02  0.00000000000E+00 0.  1.
         21    1    1    2  506  501  0.17240522296E+02 -0.77335851982E+02 -0.21526570576E+02  0.82106411757E+02  0.00000000000E+00 0.  1.
<scales pt_clust_3="104.49027" pt_clust_4="159.67387" pt_clust_5="43.21239" pt_clust_6="43.21239"></scales>
<clustering>
<clus scale="   43.212">  5  6 -1 -1</clus>
<clus scale="  104.490">  2  3  1 -1</clus>
<clus scale="  159.674">  2  4  1 -1</clus>
<clus scale="  165.968">  1  3  2 -1</clus>
</clustering>
</event>
<event>
 6    0  0.5563122E+002  0.9494110E+02  0.7546771E-02  0.1291309E+00
         21   -1    0    0  505  501  0.00000000000E+00  0.00000000000E+00  0.14889733170E+03  0.14889733170E+03  0.00000000000E+00 0. -1.
         21   -1    0    0  503  502 -0.00000000000E+00 -0.00000000000E+00 -0.29608251061E+03  0.29608251061E+03  0.00000000000E+00 0. -1.
         21    1    1    2  503  504 -0.22284086704E+01 -0.48816707311E+02 -0.16734761699E+03  0.17433663307E+03  0.00000000000E+00 0. -1.
         21    1    1    2  504  506  0.88515877739E+02  0.40575034739E+02 -0.82181986698E+01  0.97718641238E+02  0.00000000000E+00 0. -1.
         21    1    1    2  505  502  0.10935450257E+02 -0.38125949122E+02 -0.30622674788E+02  0.50109083807E+02  0.00000000000E+00 0. -1.
         21    1    1    2  506  501 -0.97222919326E+02  0.46367621694E+02  0.59003311544E+02  0.12281548419E+03  0.00000000000E+00 0. -1.
<scales pt_clust_3="74.46165" pt_clust_4="94.94110" pt_clust_5="39.66323" pt_clust_6="14000.00000"></scales>
<clustering>
<clus scale="   39.663">  2  5  1 -1</clus>
<clus scale="   74.462">  2  3  1 -1</clus>
<clus scale="   94.941">  2  4  1 -1</clus>
<clus scale="   94.941">  1  3  2 -1</clus>
</clustering>
</event>
<event>
 6    0  0.5563122E+002  0.1162417E+03  0.7546771E-02  0.1249429E+00
         21   -1    0    0  503  501  0.00000000000E+00  0.00000000000E+00  0.50603626322E+03  0.50603626322E+03  0.00000000000E+00 0. -1.
         21   -1    0    0  506  502 -0.00000000000E+00 -0.00000000000E+00 -0.50837967548E+02  0.50837967548E+02  0.00000000000E+00 0. -1.
         21    1    1    2  503  505  0.91829695263E+01  0.10274990475E+03  0.32276181699E+03  0.33884666202E+03  0.00000000000E+00 0. -1.
         21    1    1    2  504  502  0.21134320758E+02 -0.40065785610E+02  0.25823803919E+02  0.52142070723E+02  0.00000000000E+00 0. -1.
         21    1    1    2  505  504 -0.59240417137E+01 -0.86997087189E+02  0.96347317820E+02  0.12994765523E+03  0.00000000000E+00 0. -1.
         21    1    1    2  506  501 -0.24393248571E+02  0.24312968048E+02  0.10265356940E+02  0.35937842788E+02  0.00000000000E+00 0. -1.
<scales pt_clust_3="107.97022" pt_clust_4="31.03889" pt_clust_5="31.03889" pt_clust_6="34.44054"></scales>
<clustering>
<clus scale="   31.039">  4  5 -1 -1</clus>
<clus scale="   34.441">  2  6  1 -1</clus>
<clus scale="  107.970">  1  3  2 -1</clus>
<clus scale="  107.970">  1  3  2 -1</clus>
</clustering>
</event>
<event>
 6    0  0.5563122E+002  0.1464462E+03  0.7546771E-02  0.1204909E+00
         21   -1    0    0  503  501  0.00000000000E+00  0.00000000000E+00  0.19734509316E+04  0.19734509316E+04  0.00000000000E+00 0. -1.
         21   -1    0    0  506  502 -0.00000000000E+00 -0.00000000000E+00 -0.24846099454E+02  0.24846099454E+02  0.00000000000E+00 0. -1.
         21    1    1    2  503  504 -0.81571519087E+02 -0.46123856674E+02  0.32768627248E+03  0.34082197120E+03  0.00000000000E+00 0. -1.
         21    1    1    2  504  502 -0.66651281587E+02 -0.28085544656E+02  0.15095597110E+03  0.16738845948E+03  0.00000000000E+00 0.  1.
         21    1    1    2  505  501  0.55434122990E+02 -0.50193249398E+01  0.10810939275E+04  0.10825258499E+04  0.00000000000E+00 0. -1.
         21    1    1    2  506  505  0.92788677684E+02  0.79228726269E+02  0.38886866107E+03  0.40756075048E+03  0.00000000000E+00 0. -1.
<scales pt_clust_3="36.24869" pt_clust_4="36.24869" pt_clust_5="55.66090" pt_clust_6="140.51362"></scales>
<clustering>
<clus scale="   36.249">  3  4 -1 -1</clus>
<clus scale="   55.661">  1  5  2 -1</clus>
<clus scale="  140.514">  2  6  1 -1</clus>
<clus scale="   55.661">  1  3  2 -1</clus>
</clustering>
</event>
<event>
 6    0  0.5563122E+002  0.1514278E+03  0.7546771E-02  0.1198729E+00
         21   -1    0    0  506  501  0.00000000000E+00  0.00000000000E+00  0.45629329656E+03  0.45629329656E+03  0.00000000000E+00 0.  1.
         21   -1    0    0  505  502 -0.00000000000E+00 -0.00000000000E+00 -0.51613868570E+03  0.51613868570E+03  0.00000000000E+00 0.  1.
         21    1    1    2  503  501 -0.85808327442E+02 -0.10956688622E+03  0.16148918905E+03  0.21318238622E+03  0.00000000000E+00 0.  1.
         21    1    1    2  504  503  0.23924674170E+03  0.16693838774E+02  0.11149023493E+03  0.26447638865E+03  0.00000000000E+00 0.  1.
         21    1    1    2  505  504 -0.93311433931E+02 -0.15160128621E+01 -0.36626771737E+03  0.37797005541E+03  0.00000000000E+00 0.  1.
         21    1    1    2  506  502 -0.60126980328E+02  0.94389060310E+02  0.33442904249E+02  0.11680315199E+03  0.00000000000E+00 0.  1.
<scales pt_clust_3="14000.00000" pt_clust_4="151.42784" pt_clust_5="93.32375" pt_clust_6="128.13515"></scales>
<clustering>
<clus scale="   93.324">  2  5  1 -1</clus>
<clus scale="  128.135">  2  6  1 -1</clus>
<clus scale="  151.428">  2  4  1 -1</clus>
<clus scale="  151.428">  1  3  2 -1</clus>
</clustering>
</event>
<event>
 6    0  0.5563122E+002  0.6409556E+02  0.7546771E-02  0.1381406E+00
         21   -1    0    0  505  501  0.00000000000E+00  0.00000000000E+00  0.21658636095E+03  0.21658636095E+03  0.00000000000E+00 0. -1.
         21   -1    0    0  503  502 -0.00000000000E+00 -0.00000000000E+00 -0.29993689547E+04  0.29993689547E+04  0.00000000000E+00 0. -1.
         21    1    1    2  503  501 -0.28042856078E+02  0.87318419637E+02 -0.64345477746E+02  0.11203235556E+03  0.00000000000E+00 0. -1.
         21    1    1    2  504  502  0.25620199049E+01 -0.56404822576E+02 -0.28207407528E+04  0.28213058080E+04  0.00000000000E+00 0. -1.
         21    1    1    2  505  506 -0.37921893231E+02 -0.49997047313E+02  0.17403234449E+03  0.18500008555E+03  0.00000000000E+00 0. -1.
         21    1    1    2  506  504  0.63402729403E+02  0.19083450251E+02 -0.71728707733E+02  0.97617066553E+02  0.00000000000E+00 0. -1.
<scales pt_clust_3="14000.00000" pt_clust_4="56.46298" pt_clust_5="64.09556" pt_clust_6="56.70030"></scales>
<clustering>
<clus scale="   56.463">  2  4  1 -1</clus>
<clus scale="   64.096">  1  5  2 -1</clus>
<clus scale="   56.700">  1  6  2 -1</clus>
<clus scale="   64.096">  1  3  2 -1</clus>
</clustering>
</event>
<event>
 6    0  0.5563122E+002  0.1412877E+03  0.7546771E-02  0.1211607E+00
         21   -1    0    0  506  501  0.00000000000E+00  0.00000000000E+00  0.11391472684E+04  0.11391472684E+04  0.00000000000E+00 0.  1.
         21   -1    0    0  504  502 -0.00000000000E+00 -0.00000000000E+00 -0.38579195233E+03  0.38579195233E+03  0.00000000000E+00 0.  1.
         21    1    1    2  503  501  0.59007022001E+02 -0.77862190887E+02  0.40940833399E+03  0.42090323514E+03  0.00000000000E+00 0.  1.
         21    1    1    2  504  503 -0.60133487264E+01  0.31157186000E+02 -0.22884810383E+03  0.23103762730E+03  0.00000000000E+00 0.  1.
         21    1    1    2  505  502 -0.12209926975E+02  0.11611146209E+03 -0.12472810567E+03  0.17084511784E+03  0.00000000000E+00 0. -1.
         21    1    1    2  506  505 -0.40783746300E+02 -0.69406457207E+02  0.69752319158E+03  0.70215324044E+03  0.00000000000E+00 0.  1.
<scales pt_clust_3="14000.00000" pt_clust_4="31.73217" pt_clust_5="141.28774" pt_clust_6="80.14882"></scales>
<clustering>
<clus scale="   31.732">  2  4  1 -1</clus>
<clus scale="   80.149">  1  6  2 -1</clus>
<clus scale="  141.288">  2  5  1 -1</clus>
<clus scale="   80.149">  1  3  2 -1</clus>
</clustering>
</event>
<event>
 6    0  0.5563122E+002  0.9784669E+02  0.7546771E-02  0.1284890E+00
         21   -1    0    0  503  501  0.00000000000E+00  0.00000000000E+00  0.82534399294E+03  0.82534399294E+03  0.00000000000E+00 0. -1.
         21   -1    0    0  506  502 -0.00000000000E+00 -0.00000000000E+00 -0.40056954697E+03  0.40056954697E+03  0.00000000000E+00 0. -1.
         21    1    1    2  503  505  0.18915618954E+02 -0.98667061968E+02  0.77328231582E+03  0.77978107807E+03  0.00000000000E+00 0. -1.
         21    1    1    2  504  502 -0.47619363961E+02  0.30977141756E+02 -0.26241681161E+03  0.26849538200E+03  0.00000000000E+00 0. -1.
         21    1    1    2  505  504  0.84072893182E+02  0.45253229051E+02 -0.56861547664E+02  0.11112759203E+03  0.00000000000E+00 0. -1.
         21    1    1    2  506  501 -0.55369148175E+02  0.22436691161E+02 -0.29229510575E+02  0.66509487807E+02  0.00000000000E+00 0.  1.
<scales pt_clust_3="97.84669" pt_clust_4="56.80834" pt_clust_5="14000.00000" pt_clust_6="79.59267"></scales>
<clustering>
<clus scale="   56.808">  2  4  1 -1</clus>
<clus scale="   79.593">  2  6  1 -1</clus>
<clus scale="   97.847">  1  3  2 -1</clus>
<clus scale="   97.847">  1  3  2 -1</clus>
</clustering>
</event>
<event>
 6    0  0.5563122E+002  0.1035518E+03  0.7546771E-02  0.1273000E+00
         21   -1    0    0  505  501  0.00000000000E+00  0.00000000000E+00  0.94885441077E+02  0.94885441077E+02  0.00000000000E+00 0. -1.
         21   -1    0    0  503  502 -0.00000000000E+00 -0.00000000000E+00 -0.26373698757E+03  0.26373698757E+03  0.00000000000E+00 0. -1.
         21    1    1    2  503  501 -0.47385053419E+02  0.74672313093E+01 -0.22110425221E+02  0.52820201954E+02  0.00000000000E+00 0. -1.
         21    1    1    2  504  502 -0.70613422949E+02  0.35466870299E+02 -0.14695687620E+03  0.16685466086E+03  0.00000000000E+00 0. -1.
         21    1    1    2  505  506  0.84592605624E+02 -0.57717313816E+02  0.87927639283E+00  0.10241079224E+03  0.00000000000E+00 0. -1.
         21    1    1    2  506  504  0.33405870744E+02  0.14783212208E+02 -0.66352146078E+00  0.36536773586E+02  0.00000000000E+00 0. -1.
<scales pt_clust_3="47.96981" pt_clust_4="84.75592" pt_clust_5="35.53279" pt_clust_6="35.53279"></scales>
<clustering>
<clus scale="   35.533">  5  6 -1 -1</clus>
<clus scale="   47.970">  1  3  2 -1</clus>
<clus scale="   84.756">  2  4  1 -1</clus>
<clus scale="   47.970">  1  3  2 -1</clus>
</clustering>
</event>
<event>
 6    0  0.5563122E+002  0.8553524E+02  0.7546771E-02  0.1314039E+00
         21   -1    0    0  506  501  0.00000000000E+00  0.00000000000E+00  0.21718369539E+03  0.21718369539E+03  0.00000000000E+00 0.  1.
         21   -1    0    0  505  502 -0.00000000000E+00 -0.00000000000E+00 -0.14744574681E+03  0.14744574681E+03  0.00000000000E+00 0.  1.
         21    1    1    2  503  502 -0.11188280213E+02  0.87872570635E+02 -0.78525811469E+02  0.11837681087E+03  0.00000000000E+00 0.  1.
         21    1    1    2  504  501  0.48935197131E+02 -0.30895454742E+02  0.10533336882E+03  0.12018444670E+03  0.00000000000E+00 0.  1.
         21    1    1    2  505  504 -0.24171486728E+01 -0.77524361992E+02  0.30578656943E+02  0.83372199026E+02  0.00000000000E+00 0.  1.
         21    1    1    2  506  503 -0.35329768245E+02  0.20547246099E+02  0.12351734288E+02  0.42695985601E+02  0.00000000000E+00 0. -1.
<scales pt_clust_3="14000.00000" pt_clust_4="33.60112" pt_clust_5="85.53524" pt_clust_6="40.87031"></scales>
<clustering>
<clus scale="   40.870">  1  6  2 -1</clus>
<clus scale="   33.601">  1  4  2 -1</clus>
<clus scale="   85.535">  1  5  2 -1</clus>
<clus scale="   40.870">  1  3  2 -1</clus>
</clustering>
</event>
<event>
 6    0  0.5563122E+002  0.7338969E+02  0.7546771E-02  0.1348931E+00
         21   -1    0    0  506  501  0.00000000000E+00  0.00000000000E+00  0.19209065646E+03  0.19209065646E+03  0.00000000000E+00 0.  1.
         21   -1    0    0  504  502 -0.00000000000E+00 -0.00000000000E+00 -0.27090500823E+03  0.27090500823E+03  0.00000000000E+00 0. -1.
         21    1    1    2  503  505 -0.49397721414E+02 -0.58757764785E+02 -0.18182995801E+02  0.78887458698E+02  0.00000000000E+00 0. -1.
         21    1    1    2  504  501 -0.37352592289E+02  0.47602230538E+02  0.64228797612E+01  0.60847694183E+02  0.00000000000E+00 0.  1.
         21    1    1    2  505  502  0.71580833527E+02 -0.30784062172E+02 -0.18307278038E+03  0.19896511536E+03  0.00000000000E+00 0. -1.
         21    1    1    2  506  503  0.15169480176E+02  0.41939596419E+02  0.11601854465E+03  0.12429539645E+03  0.00000000000E+00 0.  1.
<scales pt_clust_3="59.45406" pt_clust_4="14000.00000" pt_clust_5="73.38969" pt_clust_6="44.59869"></scales>
<clustering>
<clus scale="   44.599">  1  6  2 -1</clus>
<clus scale="   59.454">  1  3  2 -1</clus>
<clus scale="   73.390">  2  5  1 -1</clus>
<clus scale="   44.599">  1  3  2 -1</clus>
</clustering>
</event>
<event>
 6    0  0.5563122E+002  0.1216642E+03  0.7546771E-02  0.1240377E+00
         21   -1    0    0  503  501  0.00000000000E+00  0.00000000000E+00  0.11693836331E+04  0.11693836331E+04  0.00000000000E+00 0. -1.
         21   -1    0    0  505  502 -0.00000000000E+00 -0.00000000000E+00 -0.31808126538E+02  0.31808126538E+02  0.00000000000E+00 0. -1.
         21    1    1    2  503  504  0.45240603593E+02 -0.69401144914E+02  0.20184535218E+03  0.21818519044E+03  0.00000000000E+00 0. -1.
         21    1    1    2  504  506  0.14527048463E+02 -0.61404922406E+02  0.25724040348E+03  0.26486642825E+03  0.00000000000E+00 0. -1.
         21    1    1    2  505  501 -0.27965350407E+02  0.31151043865E+02  0.55381111259E+03  0.55539103052E+03  0.00000000000E+00 0. -1.
         21    1    1    2  506  502 -0.31802301649E+02  0.99655023455E+02  0.12467863827E+03  0.16274911038E+03  0.00000000000E+00 0. -1.
<scales pt_clust_3="38.00893" pt_clust_4="38.00893" pt_clust_5="41.86225" pt_clust_6="113.60215"></scales>
<clustering>
<clus scale="   38.009">  3  4 -1 -1</clus>
<clus scale="   41.862">  1  5  2 -1</clus>
<clus scale="  113.602">  2  6  1 -1</clus>
<clus scale="   41.862">  1  3  2 -1</clus>
</clustering>
</event>
<event>
 6    0  0.5563122E+002  0.1726842E+03  0.7546771E-02  0.1175077E+00
         21   -1    0    0  505  501  0.00000000000E+00  0.00000000000E+00  0.19413004751E+03  0.19413004751E+03  0.00000000000E+00 0.  1.
         21   -1    0    0  503  502 -0.00000000000E+00 -0.00000000000E+00 -0.33500450603E+03  0.33500450603E+03  0.00000000000E+00 0.  1.
         21    1    1    2  503  501 -0.87283236546E+02  0.18306046019E+03 -0.83500405385E+02  0.21932125562E+03  0.00000000000E+00 0.  1.
         21    1    1    2  504  502 -0.63449562577E+01 -0.42019988457E+02 -0.78093913318E+02  0.88907801666E+02  0.00000000000E+00 0. -1.
         21    1    1    2  505  506  0.48470229905E+02  0.16462669740E+01  0.48611063300E+02  0.68666650255E+02  0.00000000000E+00 0.  1.
         21    1    1    2  506  504  0.45157962899E+02 -0.14268673871E+03 -0.27891203122E+02  0.15223884599E+03  0.00000000000E+00 0.  1.
<scales pt_clust_3="172.68417" pt_clust_4="42.49633" pt_clust_5="48.21726" pt_clust_6="14000.00000"></scales>
<clustering>
<clus scale="   42.496">  2  4  1 -1</clus>
<clus scale="   48.217">  1  5  2 -1</clus>
<clus scale="  172.684">  2  3  1 -1</clus>
<clus scale="   48.217">  1  3  2 -1</clus>
</clustering>
</event>
<event>
 6    0  0.5563122E+002  0.1447867E+03  0.7546771E-02  0.1207029E+00
         21   -1    0    0  506  501  0.00000000000E+00  0.00000000000E+00  0.98613489526E+02  0.98613489526E+02  0.00000000000E+00 0.  1.
         21   -1    0    0  505  502 -0.00000000000E+00 -0.00000000000E+00 -0.65829552077E+03  0.65829552077E+03  0.00000000000E+00 0.  1.
         21    1    1    2  503  501  0.11444558613E+03 -0.84437641613E+02 -0.20537944070E+02  0.14369869398E+03  0.00000000000E+00 0.  1.
         21    1    1    2  504  503 -0.12375083027E+03  0.87417722774E+02 -0.18802168327E+03  0.24147107411E+03  0.00000000000E+00 0.  1.
         21    1    1    2  505  504  0.16096391289E+02  0.56862918194E+02 -0.21322873374E+03  0.22126675794E+03  0.00000000000E+00 0.  1.
         21    1    1    2  506  502 -0.67911471452E+01 -0.59842999355E+02 -0.13789367016E+03  0.15047248427E+03  0.00000000000E+00 0.  1.
<scales pt_clust_3="144.78671" pt_clust_4="14000.00000" pt_clust_5="59.09725" pt_clust_6="41.28225"></scales>
<clustering>
<clus scale="   59.097">  2  5  1 -1</clus>
<clus scale="   41.282">  2  6  1 -1</clus>
<clus scale="  144.787">  1  3  2 -1</clus>
<clus scale="  144.787">  1  3  2 -1</clus>
</clustering>
</event>
<event>
 6    0  0.5563122E+002  0.1251751E+03  0.7546771E-02  0.1234796E+00
         21   -1    0    0  506  501  0.00000000000E+00  0.00000000000E+00  0.42752781988E+03  0.42752781988E+03  0.00000000000E+00 0.  1.
         21   -1    0    0  503  502 -0.00000000000E+00 -0.00000000000E+00 -0.92413703325E+02  0.92413703325E+02  0.00000000000E+00 0.  1.
         21    1    1    2  503  501  0.77155145126E+02 -0.52759187109E+02  0.99794080342E+02  0.13673078189E+03  0.00000000000E+00 0.  1.
         21    1    1    2  504  505 -0.15254567586E+02  0.45668036491E+02 -0.50695220074E+00  0.48151099569E+02  0.00000000000E+00 0.  1.
         21    1    1    2  505  502 -0.78530917246E+02  0.39334373914E+02 -0.83270283478E+01  0.88224924686E+02  0.00000000000E+00 0.  1.
         21    1    1    2  506  504  0.16630339706E+02 -0.32243223295E+02  0.24415401676E+03  0.24683471706E+03  0.00000000000E+00 0. -1.
<scales pt_clust_3="114.75867" pt_clust_4="36.50015" pt_clust_5="36.50015" pt_clust_6="36.27938"></scales>
<clustering>
<clus scale="   36.279">  1  6  2 -1</clus>
<clus scale="   36.500">  4  5 -1 -1</clus>
<clus scale="  114.759">  1  3  2 -1</clus>
<clus scale="   36.279">  1  3  2 -1</clus>
</clustering>
</event>
<event>
 6    0  0.5563122E+002  0.2552591E+03  0.7546771E-02  0.1110026E+00
         21   -1    0    0  504  501  0.00000000000E+00  0.00000000000E+00  0.24642273465E+04  0.24642273465E+04  0.00000000000E+00 0.  1.
         21   -1    0    0  506  502 -0.00000000000E+00 -0.00000000000E+00 -0.19354319573E+03  0.19354319573E+03  0.00000000000E+00 0.  1.
         21    1    1    2  503  505  0.38706923408E+01 -0.28006098480E+03  0.10345693289E+03  0.29858411617E+03  0.00000000000E+00 0.  1.
         21    1    1    2  504  503  0.55624235293E+02  0.24760812384E+03  0.19747468857E+04  0.19909869666E+04  0.00000000000E+00 0.  1.
         21    1    1    2  505  502  0.62169270018E+02  0.63716634739E+02 -0.44845456441E+02  0.99679198635E+02  0.00000000000E+00 0. -1.
         21    1    1    2  506  501 -0.12166419765E+03 -0.31263773784E+02  0.23732578860E+03  0.26852026083E+03  0.00000000000E+00 0.  1.
<scales pt_clust_3="14000.00000" pt_clust_4="255.25912" pt_clust_5="89.02150" pt_clust_6="115.98637"></scales>
<clustering>
<clus scale="   89.022">  2  5  1 -1</clus>
<clus scale="  115.986">  2  6  1 -1</clus>
<clus scale="  255.259">  1  4  2 -1</clus>
<clus scale="  255.259">  1  3  2 -1</clus>
</clustering>
</event>
<event>
 6    0  0.5563122E+002  0.8784264E+02  0.7546771E-02  0.1308162E+00
         21   -1    0    0  503  501  0.00000000000E+00  0.00000000000E+00  0.23608832843E+03  0.23608832843E+03  0.00000000000E+00 0. -1.
         21   -1    0    0  505  502 -0.00000000000E+00 -0.00000000000E+00 -0.28059159387E+03  0.28059159387E+03  0.00000000000E+00 0. -1.
         21    1    1    2  503  502  0.83975988967E+02 -0.61590450670E+02 -0.50106235318E+02  0.11556809748E+03  0.00000000000E+00 0. -1.
         21    1    1    2  504  506 -0.22418100674E+02 -0.40489392106E+02 -0.41163937047E+02  0.61938936253E+02  0.00000000000E+00 0. -1.
         21    1    1    2  505  504 -0.17886213513E+01  0.40132891215E+02 -0.13349717748E+03  0.13941070446E+03  0.00000000000E+00 0. -1.
         21    1    1    2  506  501 -0.59769266942E+02  0.61946951562E+02  0.18026408440E+03  0.19976218411E+03  0.00000000000E+00 0. -1.
<scales pt_clust_3="14000.00000" pt_clust_4="34.85308" pt_clust_5="40.17273" pt_clust_6="87.84264"></scales>
<clustering>
<clus scale="   40.173">  2  5  1 -1</clus>
<clus scale="   34.853">  2  4  1 -1</clus>
<clus scale="   87.843">  1  6  2 -1</clus>
<clus scale="   87.843">  1  3  2 -1</clus>
</clustering>
</event>
<event>
 6    0  0.5563122E+002  0.1403560E+03  0.7546771E-02  0.1212851E+00
         21   -1    0    0  504  501  0.00000000000E+00  0.00000000000E+00  0.27884896270E+03  0.27884896270E+03  0.00000000000E+00 0.  1.
         21   -1    0    0  506  502 -0.00000000000E+00 -0.00000000000E+00 -0.19329333555E+03  0.19329333555E+03  0.00000000000E+00 0.  1.
         21    1    1    2  503  505 -0.22107969785E+02 -0.51506744954E+02 -0.66021212235E+02  0.86605470778E+02  0.00000000000E+00 0. -1.
         21    1    1    2  504  502  0.13848650887E+03  0.47575398611E+02  0.17406084026E+03  0.22746232173E+03  0.00000000000E+00 0.  1.
         21    1    1    2  505  501 -0.12205440044E+03 -0.26849861886E+02 -0.14808946827E+02  0.12584711621E+03  0.00000000000E+00 0.  1.
         21    1    1    2  506  503  0.56758613571E+01  0.30781208229E+02 -0.76750540535E+01  0.32227389545E+02  0.00000000000E+00 0.  1.
<scales pt_clust_3="42.72158" pt_clust_4="140.35598" pt_clust_5="14000.00000" pt_clust_6="31.30013"></scales>
<clustering>
<clus scale="   31.300">  2  6  1 -1</clus>
<clus scale="   42.722">  2  3  1 -1</clus>
<clus scale="  140.356">  1  4  2 -1</clus>
<clus scale="  140.356">  1  3  2 -1</clus>
</clustering>
</event>
<event>
 6    0  0.5563122E+002  0.1875069E+03  0.7546771E-02  0.1160729E+00
         21   -1    0    0  506  501  0.00000000000E+00  0.00000000000E+00  0.30448846223E+03  0.30448846223E+03  0.00000000000E+00 0. -1.
         21   -1    0    0  503  502 -0.00000000000E+00 -0.00000000000E+00 -0.29756766325E+03  0.29756766325E+03  0.00000000000E+00 0. -1.
         21    1    1    2  503  505 -0.14147584042E+03 -0.81491573345E+01 -0.95322430241E+02  0.17078696641E+03  0.00000000000E+00 0. -1.
         21    1    1    2  504  502  0.12672651313E+03  0.50189606964E+01 -0.25987533613E+02  0.12946100185E+03  0.00000000000E+00 0.  1.
         21    1    1    2  505  501 -0.90779547009E+02 -0.55110419547E+02 -0.22757540602E+02  0.10860934652E+03  0.00000000000E+00 0. -1.
         21    1    1    2  506  504  0.10552887430E+03  0.58240616185E+02  0.15098830343E+03  0.19319881071E+03  0.00000000000E+00 0. -1.
<scales pt_clust_3="68.02670" pt_clust_4="170.24612" pt_clust_5="68.02670" pt_clust_6="120.53345"></scales>
<clustering>
<clus scale="   68.027">  3  5 -1 -1</clus>
<clus scale="  120.533">  1  6  2 -1</clus>
<clus scale="  170.246">  2  4  1 -1</clus>
<clus scale="  120.533">  1  3  2 -1</clus>
</clustering>
</event>
<event>
 6    0  0.5563122E+002  0.9212791E+02  0.7546771E-02  0.1297779E+00
         21   -1    0    0  506  501  0.00000000000E+00  0.00000000000E+00  0.19803351026E+03  0.19803351026E+03  0.00000000000E+00 0.  1.
         21   -1    0    0  504  502 -0.00000000000E+00 -0.00000000000E+00 -0.17015873176E+03  0.17015873176E+03  0.00000000000E+00 0.  1.
         21    1    1    2  503  502  0.37477732285E+02  0.12037208114E+02 -0.87311835238E+01  0.40320073935E+02  0.00000000000E+00 0.  1.
         21    1    1    2  504  505 -0.61632873701E+00  0.96967380539E+02 -0.34630625754E+02  0.10296763079E+03  0.00000000000E+00 0.  1.
         21    1    1    2  505  501 -0.92097474070E+02 -0.49414066523E+02  0.93950880087E+02  0.14053633897E+03  0.00000000000E+00 0.  1.
         21    1    1    2  506  503  0.55236070522E+02 -0.59590522130E+02 -0.22714292311E+02  0.84368198331E+02  0.00000000000E+00 0.  1.
<scales pt_clust_3="39.36337" pt_clust_4="14000.00000" pt_clust_5="92.12791" pt_clust_6="88.35269"></scales>
<clustering>
<clus scale="   39.363">  2  3  1 -1</clus>
<clus scale="   88.353">  2  6  1 -1</clus>
<clus scale="   92.128">  1  5  2 -1</clus>
<clus scale="   92.128">  1  3  2 -1</clus>
</clustering>
</event>
<event>
 6    0  0.5563122E+002  0.1552825E+03  0.7546771E-02  0.1194128E+00
         21   -1    0    0  504  501  0.00000000000E+00  0.00000000000E+00  0.66011328287E+03  0.66011328287E+03  0.00000000000E+00 0. -1.
         21   -1    0    0  506  502 -0.00000000000E+00 -0.00000000000E+00 -0.40006275830E+03  0.40006275830E+03  0.00000000000E+00 0.  1.
         21    1    1    2  503  501 -0.29620550619E+02 -0.64305903631E+02  0.11931445652E+03  0.13873920065E+03  0.00000000000E+00 0. -1.
         21    1    1    2  504  502 -0.31721192862E+02 -0.92168012723E+02  0.49253340951E+03  0.50208598480E+03  0.00000000000E+00 0. -1.
         21    1    1    2  505  503  0.72748936027E+02  0.98940096506E+02 -0.93153896458E+02  0.15414019208E+03  0.00000000000E+00 0. -1.
         21    1    1    2  506  505 -0.11407192546E+02  0.57533819847E+02 -0.25864344500E+03  0.26521066364E+03  0.00000000000E+00 0.  1.
<scales pt_clust_3="67.50469" pt_clust_4="155.28254" pt_clust_5="14000.00000" pt_clust_6="58.65377"></scales>
<clustering>
<clus scale="   58.654">  2  6  1 -1</clus>
<clus scale="   67.505">  1  3  2 -1</clus>
<clus scale="  155.283">  1  4  2 -1</clus>
<clus scale="   67.505">  1  3  2 -1</clus>
</clustering>
</event>
<event>
 6    0  0.5563122E+002  0.1011888E+03  0.7546771E-02  0.1277816E+00
         21   -1    0    0  504  501  0.00000000000E+00  0.00000000000E+00  0.12637555253E+03  0.12637555253E+03  0.00000000000E+00 0.  1.
         21   -1    0    0  506  502 -0.00000000000E+00 -0.00000000000E+00 -0.64061707270E+03  0.64061707270E+03  0.00000000000E+00 0.  1.
         21    1    1    2  503  502  0.22946778874E+02  0.35612517675E+02 -0.53894829881E+02  0.68552598519E+02  0.00000000000E+00 0.  1.
         21    1    1    2  504  503 -0.50743456786E+02 -0.12345026328E+03 -0.26931614493E+02  0.13616232140E+03  0.00000000000E+00 0.  1.
         21    1    1    2  505  501 -0.13432802220E+02  0.43443981118E+02  0.54293172002E+02  0.70820676337E+02  0.00000000000E+00 0.  1.
         21    1    1    2  506  505  0.41229480132E+02  0.44393764484E+02 -0.48770824780E+03  0.49145702897E+03  0.00000000000E+00 0.  1.
<scales pt_clust_3="42.36515" pt_clust_4="14000.00000" pt_clust_5="45.86421" pt_clust_6="101.18879"></scales>
<clustering>
<clus scale="   42.365">  2  3  1 -1</clus>
<clus scale="   45.864">  1  5  2 -1</clus>
<clus scale="  101.189">  2  6  1 -1</clus>
<clus scale="   45.864">  1  3  2 -1</clus>
</clustering>
</event>
<event>
 6    0  0.5563122E+002  0.1346040E+03  0.7546771E-02  0.1220780E+00
         21   -1    0    0  504  501  0.00000000000E+00  0.00000000000E+00  0.17377750928E+03  0.17377750928E+03  0.00000000000E+00 0.  1.
         21   -1    0    0  506  502 -0.00000000000E+00 -0.00000000000E+00 -0.40355997088E+03  0.40355997088E+03  0.00000000000E+00 0.  1.
         21    1    1    2  503  501  0.83340656580E+02 -0.91323328186E+02  0.12049604276E+03  0.17264099059E+03  0.00000000000E+00 0.  1.
         21    1    1    2  504  502 -0.21339737332E+02 -0.41812080098E+02 -0.96548345772E+02  0.10735556577E+03  0.00000000000E+00 0. -1.
         21    1    1    2  505  503 -0.11453502362E+01  0.58908725406E+02 -0.10224459599E+03  0.11800638612E+03  0.00000000000E+00 0.  1.
         21    1    1    2  506  505 -0.60855569012E+02  0.74226682878E+02 -0.15148556260E+03  0.17933453768E+03  0.00000000000E+00 0.  1.
<scales pt_clust_3="125.11902" pt_clust_4="46.94288" pt_clust_5="38.88706" pt_clust_6="38.88706"></scales>
<clustering>
<clus scale="   38.887">  5  6 -1 -1</clus>
<clus scale="   46.943">  2  4  1 -1</clus>
<clus scale="  125.119">  1  3  2 -1</clus>
<clus scale="  125.119">  1  3  2 -1</clus>
</clustering>
</event>
<event>
 6    0  0.5563122E+002  0.1205787E+03  0.7546771E-02  0.1242145E+00
         21   -1    0    0  506  501  0.00000000000E+00  0.00000000000E+00  0.14201825555E+04  0.14201825555E+04  0.00000000000E+00 0.  1.
         21   -1    0    0  504  502 -0.00000000000E+00 -0.00000000000E+00 -0.14562932004E+03  0.14562932004E+03  0.00000000000E+00 0.  1.
         21    1    1    2  503  501 -0.77174476680E+02  0.26947329219E+02  0.61303332305E+03  0.61845930632E+03  0.00000000000E+00 0.  1.
         21    1    1    2  504  503 -0.34238418735E+02  0.21277875969E+02 -0.10450833201E+03  0.11201343126E+03  0.00000000000E+00 0.  1.
         21    1    1    2  505  502 -0.78330321031E+02  0.27707707508E+02  0.66066727588E+02  0.10615163090E+03  0.00000000000E+00 0.  1.
         21    1    1    2  506  505  0.18974321645E+03 -0.75932912696E+02  0.69996151687E+03  0.72918750710E+03  0.00000000000E+00 0.  1.
<scales pt_clust_3="84.60232" pt_clust_4="40.31150" pt_clust_5="14000.00000" pt_clust_6="120.57871"></scales>
<clustering>
<clus scale="   40.312">  2  4  1 -1</clus>
<clus scale="   84.602">  1  3  2 -1</clus>
<clus scale="  120.579">  1  6  2 -1</clus>
<clus scale="   84.602">  1  3  2 -1</clus>
</clustering>
</event>
<event>
 6    0  0.5563122E+002  0.7395220E+02  0.7546771E-02  0.1347147E+00
         21   -1    0    0  504  501  0.00000000000E+00  0.00000000000E+00  0.51013471640E+02  0.51013471640E+02  0.00000000000E+00 0. -1.
         21   -1    0    0  506  502 -0.00000000000E+00 -0.00000000000E+00 -0.60588721884E+03  0.60588721884E+03  0.00000000000E+00 0.  1.
         21    1    1    2  503  505 -0.39332115175E+02  0.18043737156E+02 -0.64642985232E+02  0.77790148955E+02  0.00000000000E+00 0. -1.
         21    1    1    2  504  502  0.10335929534E+03 -0.76012904788E+02 -0.17755235996E+03  0.21905694728E+03  0.00000000000E+00 0.  1.
         21    1    1    2  505  501 -0.38980816435E+02  0.23293680395E+02 -0.96669348957E+00  0.45420635096E+02  0.00000000000E+00 0. -1.
         21    1    1    2  506  503 -0.25046363727E+02  0.34675487238E+02 -0.31171170853E+03  0.31463295915E+03  0.00000000000E+00 0.  1.
<scales pt_clust_3="73.95220" pt_clust_4="14000.00000" pt_clust_5="48.54184" pt_clust_6="42.77511"></scales>
<clustering>
<clus scale="   42.775">  2  6  1 -1</clus>
<clus scale="   48.542">  1  5  2 -1</clus>
<clus scale="   73.952">  2  3  1 -1</clus>
<clus scale="   48.542">  1  3  2 -1</clus>
</clustering>
</event>
<event>
 6    0  0.5563122E+002  0.1189896E+03  0.7546771E-02  0.1244773E+00
         21   -1    0    0  505  501  0.00000000000E+00  0.00000000000E+00  0.60828673719E+02  0.60828673719E+02  0.00000000000E+00 0. -1.
         21   -1    0    0  504  502 -0.00000000000E+00 -0.00000000000E+00 -0.52710926209E+03  0.52710926209E+03  0.00000000000E+00 0.  1.
         21    1    1    2  503  501 -0.46006834386E+02  0.29028023916E+02  0.73660681838E+01  0.54895481993E+02  0.00000000000E+00 0. -1.
         21    1    1    2  504  503 -0.60133148560E+02  0.67562426585E+02 -0.20638871964E+03  0.22533748165E+03  0.00000000000E+00 0.  1.
         21    1    1    2  505  506  0.77900880045E+02 -0.37069517298E+02 -0.14118355791E+03  0.16545541166E+03  0.00000000000E+00 0. -1.
         21    1    1    2  506  502  0.28239102901E+02 -0.59520933204E+02 -0.12607437901E+03  0.14224956051E+03  0.00000000000E+00 0. -1.
<scales pt_clust_3="54.39903" pt_clust_4="107.23059" pt_clust_5="45.07091" pt_clust_6="45.07091"></scales>
<clustering>
<clus scale="   45.071">  5  6 -1 -1</clus>
<clus scale="   54.399">  1  3  2 -1</clus>
<clus scale="  107.231">  2  4  1 -1</clus>
<clus scale="   54.399">  1  3  2 -1</clus>
</clustering>
</event>
<event>
 6    0  0.5563122E+002  0.1654443E+03  0.7546771E-02  0.1182684E+00
         21   -1    0    0  505  501  0.00000000000E+00  0.00000000000E+00  0.46981793086E+03  0.46981793086E+03  0.00000000000E+00 0. -1.
         21   -1    0    0  506  502 -0.00000000000E+00 -0.00000000000E+00 -0.72501216508E+03  0.72501216508E+03  0.00000000000E+00 0. -1.
         21    1    1    2  503  504  0.15225562344E+02  0.33644235211E+02  0.88807364406E+02  0.96179521128E+02  0.00000000000E+00 0. -1.
         21    1    1    2  504  501  0.50394374596E+02  0.27583396709E+02  0.25014091227E+03  0.25665329290E+03  0.00000000000E+00 0. -1.
         21    1    1    2  505  502 -0.16931763664E+03 -0.29446189972E+02 -0.68143564277E+03  0.70277313226E+03  0.00000000000E+00 0. -1.
         21    1    1    2  506  503  0.10369769970E+03 -0.31781441948E+02  0.87293131870E+02  0.13922414966E+03  0.00000000000E+00 0. -1.
<scales pt_clust_3="31.56774" pt_clust_4="98.00541" pt_clust_5="14000.00000" pt_clust_6="165.44431"></scales>
<clustering>
<clus scale="   31.568">  3  4 -1 -1</clus>
<clus scale="   98.005">  1  3  2 -1</clus>
<clus scale="  165.444">  1  6  2 -1</clus>
<clus scale="   98.005">  1  3  2 -1</clus>
</clustering>
</event>
<event>
 6    0  0.5563122E+002  0.1175765E+03  0.7546771E-02  0.1247149E+00
         21   -1    0    0  504  501  0.00000000000E+00  0.00000000000E+00  0.82030335491E+02  0.82030335491E+02  0.00000000000E+00 0. -1.
         21   -1    0    0  503  502 -0.00000000000E+00 -0.00000000000E+00 -0.26318183745E+04  0.26318183745E+04  0.00000000000E+00 0.  1.
         21    1    1    2  503  506 -0.92834065306E+02  0.76117072962E+02 -0.25199510838E+04  0.25228090370E+04  0.00000000000E+00 0.  1.
         21    1    1    2  504  502  0.31253928897E+02 -0.29122347058E+02 -0.55996470511E+02  0.70430986642E+02  0.00000000000E+00 0.  1.
         21    1    1    2  505  501 -0.85292054653E+01 -0.35415414238E+02  0.33088835284E+02  0.49212497721E+02  0.00000000000E+00 0. -1.
         21    1    1    2  506  505  0.70109341874E+02 -0.11579311666E+02 -0.69293200060E+01  0.71396188640E+02  0.00000000000E+00 0. -1.
<scales pt_clust_3="117.57650" pt_clust_4="46.22049" pt_clust_5="36.42800" pt_clust_6="14000.00000"></scales>
<clustering>
<clus scale="   36.428">  1  5  2 -1</clus>
<clus scale="   46.220">  1  4  2 -1</clus>
<clus scale="  117.576">  2  3  1 -1</clus>
<clus scale="   36.428">  1  3  2 -1</clus>
</clustering>
</event>
<event>
 6    0  0.5563122E+002  0.2528656E+03  0.7546771E-02  0.1111507E+00
         21   -1    0    0  503  501  0.00000000000E+00  0.00000000000E+00  0.31274616138E+03  0.31274616138E+03  0.00000000000E+00 0. -1.
         21   -1    0    0  506  502 -0.00000000000E+00 -0.00000000000E+00 -0.97034200920E+03  0.97034200920E+03  0.00000000000E+00 0.  1.
         21    1    1    2  503  502 -0.12984171699E+03 -0.14683464335E+03  0.20924776283E+03  0.28671224286E+03  0.00000000000E+00 0. -1.
         21    1    1    2  504  505 -0.16731929744E+02 -0.53453848122E+02 -0.17942422789E+02  0.58814980129E+02  0.00000000000E+00 0.  1.
         21    1    1    2  505  501  0.24819762986E+02 -0.26678937199E+02  0.12464717690E+02  0.38511758099E+02  0.00000000000E+00 0. -1.
         21    1    1    2  506  504  0.12175388375E+03  0.22696742867E+03 -0.86136590555E+03  0.89904918950E+03  0.00000000000E+00 0.  1.
<scales pt_clust_3="252.86560" pt_clust_4="57.33947" pt_clust_5="36.43880" pt_clust_6="14000.00000"></scales>
<clustering>
<clus scale="   36.439">  1  5  2 -1</clus>
<clus scale="   57.339">  1  4  2 -1</clus>
<clus scale="  252.866">  1  3  2 -1</clus>
<clus scale="   36.439">  1  3  2 -1</clus>
</clustering>
</event>
<event>
 6    0  0.5563122E+002  0.7082989E+02  0.7546771E-02  0.1357293E+00
         21   -1    0    0  505  501  0.00000000000E+00  0.00000000000E+00  0.18744629641E+02  0.18744629641E+02  0.00000000000E+00 0. -1.
         21   -1    0    0  504  502 -0.00000000000E+00 -0.00000000000E+00 -0.19175928049E+04  0.19175928049E+04  0.00000000000E+00 0. -1.
         21    1    1    2  503  502  0.59890035271E+02 -0.39298051989E+02 -0.12988123647E+04  0.13007861899E+04  0.00000000000E+00 0. -1.
         21    1    1    2  504  506 -0.63207641957E+02 -0.53004983999E+01 -0.89576693954E+02  0.10976012657E+03  0.00000000000E+00 0. -1.
         21    1    1    2  505  503 -0.24876079101E+02  0.77945175776E+02 -0.30853522174E+03  0.31919939347E+03  0.00000000000E+00 0. -1.
         21    1    1    2  506  501  0.28193685787E+02 -0.33346625387E+02 -0.20192389484E+03  0.20659172454E+03  0.00000000000E+00 0.  1.
<scales pt_clust_3="70.82989" pt_clust_4="52.63131" pt_clust_5="14000.00000" pt_clust_6="43.66785"></scales>
<clustering>
<clus scale="   43.668">  1  6  2 -1</clus>
<clus scale="   52.631">  1  4  2 -1</clus>
<clus scale="   70.830">  2  3  1 -1</clus>
<clus scale="   43.668">  1  3  2 -1</clus>
</clustering>
</event>
<event>
 6    0  0.5563122E+002  0.1085363E+03  0.7546771E-02  0.1263305E+00
         21   -1    0    0  506  501  0.00000000000E+00  0.00000000000E+00  0.25234064470E+03  0.25234064470E+03  0.00000000000E+00 0. -1.
         21   -1    0    0  501  502 -0.00000000000E+00 -0.00000000000E+00 -0.13571947993E+03  0.13571947993E+03  0.00000000000E+00 0.  1.
         21    1    1    2  503  504 -0.15822709050E+02 -0.66552276709E+02  0.15048212396E+02  0.70042932214E+02  0.00000000000E+00 0. -1.
         21    1    1    2  504  502 -0.94855338315E+01  0.70070332927E+02 -0.35254872295E+02  0.79010967145E+02  0.00000000000E+00 0.  1.
         21    1    1    2  505  503  0.31647212865E+02 -0.88836916640E+02  0.23822225587E+02  0.97267889214E+02  0.00000000000E+00 0. -1.
         21    1    1    2  506  505 -0.63389699834E+01  0.85318860422E+02  0.11300559908E+03  0.14173833606E+03  0.00000000000E+00 0.  1.
<scales pt_clust_3="38.89710" pt_clust_4="70.70945" pt_clust_5="38.89710" pt_clust_6="98.45991"></scales>
<clustering>
<clus scale="   38.897">  3  5 -1 -1</clus>
<clus scale="   70.709">  2  4  1 -1</clus>
<clus scale="   98.460">  1  6  2 -1</clus>
<clus scale="   98.460">  1  3  2 -1</clus>
</clustering>
</event>
<event>
 6    0  0.5563122E+002  0.8549910E+02  0.7546771E-02  0.1314132E+00
         21   -1    0    0  506  501  0.00000000000E+00  0.00000000000E+00  0.15167183099E+03  0.15167183099E+03  0.00000000000E+00 0.  1.
         21   -1    0    0  503  502 -0.00000000000E+00 -0.00000000000E+00 -0.29978647493E+04  0.29978647493E+04  0.00000000000E+00 0.  1.
         21    1    1    2  503  504  0.23590518143E+02 -0.46501562862E+02 -0.49911141441E+02  0.72180537092E+02  0.00000000000E+00 0. -1.
         21    1    1    2  504  501 -0.45137253221E+01  0.44433926700E+02  0.11724526619E+03  0.12546393905E+03  0.00000000000E+00 0.  1.
         21    1    1    2  505  502 -0.85840830167E+02 -0.70939773700E+01 -0.28708149580E+04  0.28721068044E+04  0.00000000000E+00 0.  1.
         21    1    1    2  506  505  0.66764037346E+02  0.91616135320E+01 -0.42712085015E+02  0.79785299721E+02  0.00000000000E+00 0.  1.
<scales pt_clust_3="37.30965" pt_clust_4="44.66260" pt_clust_5="85.49910" pt_clust_6="14000.00000"></scales>
<clustering>
<clus scale="   44.663">  1  4  2 -1</clus>
<clus scale="   37.310">  1  3  2 -1</clus>
<clus scale="   85.499">  2  5  1 -1</clus>
<clus scale="   44.663">  1  3  2 -1</clus>
</clustering>
</event>
<event>
 6    0  0.5563122E+002  0.6079760E+02  0.7546771E-02  0.1394515E+00
         21   -1    0    0  505  501  0.00000000000E+00  0.00000000000E+00  0.11823247114E+03  0.11823247114E+03  0.00000000000E+00 0.  1.
         21   -1    0    0  504  502 -0.00000000000E+00 -0.00000000000E+00 -0.59957024791E+03  0.59957024791E+03  0.00000000000E+00 0.  1.
         21    1    1    2  503  502 -0.57354549548E+02  0.11483336022E+02 -0.46285074413E+03  0.46653212398E+03  0.00000000000E+00 0.  1.
         21    1    1    2  504  506  0.98783739545E+02 -0.66987204258E+02 -0.49275243678E+02  0.12912614906E+03  0.00000000000E+00 0.  1.
         21    1    1    2  505  503  0.52161098704E+01  0.52077714382E+02 -0.17240820728E+02  0.55104827709E+02  0.00000000000E+00 0.  1.
         21    1    1    2  506  501 -0.46645299867E+02  0.34261538539E+01  0.48029031762E+02  0.67039618300E+02  0.00000000000E+00 0.  1.
<scales pt_clust_3="60.79760" pt_clust_4="14000.00000" pt_clust_5="53.95956" pt_clust_6="46.77096"></scales>
<clustering>
<clus scale="   46.771">  1  6  2 -1</clus>
<clus scale="   53.960">  1  5  2 -1</clus>
<clus scale="   60.798">  2  3  1 -1</clus>
<clus scale="   46.771">  1  3  2 -1</clus>
</clustering>
</event>
<event>
 6    0  0.5563122E+002  0.1535087E+03  0.7546771E-02  0.1196227E+00
         21   -1    0    0  505  501  0.00000000000E+00  0.00000000000E+00  0.99818844249E+03  0.99818844249E+03  0.00000000000E+00 0.  1.
         21   -1    0    0  504  502 -0.00000000000E+00 -0.00000000000E+00 -0.21816791631E+03  0.21816791631E+03  0.00000000000E+00 0.  1.
         21    1    1    2  503  501 -0.63252843671E+01 -0.60858862959E+02  0.41630992076E+03  0.42078231967E+03  0.00000000000E+00 0.  1.
         21    1    1    2  504  503 -0.66712415645E+02 -0.12809875458E+03  0.42730683741E+03  0.45105539640E+03  0.00000000000E+00 0.  1.
         21    1    1    2  505  506  0.26826687397E+01  0.51822914069E+02  0.10436646199E+03  0.11655543541E+03  0.00000000000E+00 0.  1.
         21    1    1    2  506  502  0.70355031272E+02  0.13713470347E+03 -0.16796269398E+03  0.22796320732E+03  0.00000000000E+00 0.  1.
<scales pt_clust_3="36.77521" pt_clust_4="153.50865" pt_clust_5="51.89230" pt_clust_6="14000.00000"></scales>
<clustering>
<clus scale="   51.892">  1  5  2 -1</clus>
<clus scale="   36.775">  1  3  2 -1</clus>
<clus scale="  153.509">  1  4  2 -1</clus>
<clus scale="   51.892">  1  3  2 -1</clus>
</clustering>
</event>
<event>
 6    0  0.5563122E+002  0.9607828E+02  0.7546771E-02  0.1288766E+00
         21   -1    0    0  506  501  0.00000000000E+00  0.00000000000E+00  0.47567433983E+02  0.47567433983E+02  0.00000000000E+00 0.  1.
         21   -1    0    0  503  502 -0.00000000000E+00 -0.00000000000E+00 -0.78113857842E+03  0.78113857842E+03  0.00000000000E+00 0.  1.
         21    1    1    2  503  501 -0.11146758050E+03  0.61823353284E+02 -0.14641168095E+03  0.19412245834E+03  0.00000000000E+00 0.  1.
         21    1    1    2  504  505  0.42803326376E+02 -0.50560624692E+02 -0.16032293617E+03  0.17347030114E+03  0.00000000000E+00 0.  1.
         21    1    1    2  505  502 -0.15470110908E+02 -0.29329856803E+02 -0.32961436100E+03  0.33127811851E+03  0.00000000000E+00 0.  1.
         21    1    1    2  506  504  0.84134365032E+02  0.18067128211E+02 -0.97222166326E+02  0.12983513441E+03  0.00000000000E+00 0.  1.
<scales pt_clust_3="14000.00000" pt_clust_4="71.74373" pt_clust_5="33.15969" pt_clust_6="96.07828"></scales>
<clustering>
<clus scale="   33.160">  2  5  1 -1</clus>
<clus scale="   71.744">  2  4  1 -1</clus>
<clus scale="   96.078">  1  6  2 -1</clus>
<clus scale="   96.078">  1  3  2 -1</clus>
</clustering>
</event>
<event>
 6    0  0.5563122E+002  0.1266221E+03  0.7546771E-02  0.1232556E+00
         21   -1    0    0  503  501  0.00000000000E+00  0.00000000000E+00  0.93507769333E+03  0.93507769333E+03  0.00000000000E+00 0.  1.
         21   -1    0    0  504  502 -0.00000000000E+00 -0.00000000000E+00 -0.10745126890E+03  0.10745126890E+03  0.00000000000E+00 0.  1.
         21    1    1    2  503  506 -0.39743576602E+02  0.34454043765E+02  0.42183224888E+03  0.42509890520E+03  0.00000000000E+00 0.  1.
         21    1    1    2  504  505 -0.13981177988E+02 -0.40511930437E+02 -0.66203125773E+02  0.78864083763E+02  0.00000000000E+00 0.  1.
         21    1    1    2  505  501  0.12643988323E+03 -0.68732186966E+02  0.19332009128E+03  0.24100584078E+03  0.00000000000E+00 0. -1.
         21    1    1    2  506  502 -0.72715128640E+02  0.74790073638E+02  0.27867721004E+03  0.29756013249E+03  0.00000000000E+00 0.  1.
<scales pt_clust_3="51.88501" pt_clust_4="42.85662" pt_clust_5="126.62209" pt_clust_6="14000.00000"></scales>
<clustering>
<clus scale="   42.857">  2  4  1 -1</clus>
<clus scale="   51.885">  1  3  2 -1</clus>
<clus scale="  126.622">  2  5  1 -1</clus>
<clus scale="   51.885">  1  3  2 -1</clus>
</clustering>
</event>
<event>
 6    0  0.5563122E+002  0.8096712E+02  0.7546771E-02  0.1326329E+00
         21   -1    0    0  504  501  0.00000000000E+00  0.00000000000E+00  0.83096198406E+03  0.83096198406E+03  0.00000000000E+00 0.  1.
         21   -1    0    0  505  502 -0.00000000000E+00 -0.00000000000E+00 -0.15544679704E+03  0.15544679704E+03  0.00000000000E+00 0.  1.
         21    1    1    2  503  502  0.37273210801E+02 -0.99719742340E+01 -0.81863983264E+02  0.90501073305E+02  0.00000000000E+00 0.  1.
         21    1    1    2  504  503 -0.51452069264E+02 -0.72305622483E+02 -0.43584155079E+01  0.88850516374E+02  0.00000000000E+00 0.  1.
         21    1    1    2  505  506  0.61924994766E+02  0.13824983357E+02  0.29313909176E+02  0.69893779499E+02  0.00000000000E+00 0.  1.
         21    1    1    2  506  501 -0.47746136302E+02  0.68452613360E+02  0.73242367662E+03  0.73716341192E+03  0.00000000000E+00 0.  1.
<scales pt_clust_3="38.58410" pt_clust_4="80.96712" pt_clust_5="73.65519" pt_clust_6="14000.00000"></scales>
<clustering>
<clus scale="   38.584">  2  3  1 -1</clus>
<clus scale="   73.655">  2  5  1 -1</clus>
<clus scale="   80.967">  2  4  1 -1</clus>
<clus scale="   80.967">  1  3  2 -1</clus>
</clustering>
</event>
<event>
 6    0  0.5563122E+002  0.1167993E+03  0.7546771E-02  0.1248473E+00
         21   -1    0    0  506  501  0.00000000000E+00  0.00000000000E+00  0.62311235845E+02  0.62311235845E+02  0.00000000000E+00 0. -1.
         21   -1    0    0  504  502 -0.00000000000E+00 -0.00000000000E+00 -0.46322276988E+03  0.46322276988E+03  0.00000000000E+00 0. -1.
         21    1    1    2  503  501  0.10258643807E+03  0.26166421094E+02 -0.27786079356E+02  0.10945649855E+03  0.00000000000E+00 0. -1.
         21    1    1    2  504  503  0.10010150296E+02 -0.45484045082E+02 -0.18400059522E+03  0.18980310985E+03  0.00000000000E+00 0. -1.
         21    1    1    2  505  502 -0.35970670642E+02 -0.64957260041E+01 -0.97216600001E+02  0.10386120988E+03  0.00000000000E+00 0. -1.
         21    1    1    2  506  505 -0.76625917720E+02  0.25813349992E+02 -0.91908259448E+02  0.12241318744E+03  0.00000000000E+00 0. -1.
<scales pt_clust_3="106.11948" pt_clust_4="46.57254" pt_clust_5="32.80608" pt_clust_6="32.80608"></scales>
<clustering>
<clus scale="   32.806">  5  6 -1 -1</clus>
<clus scale="   46.573">  2  4  1 -1</clus>
<clus scale="  106.119">  1  3  2 -1</clus>
<clus scale="  106.119">  1  3  2 -1</clus>
</clustering>
</event>
<event>
 6    0  0.5563122E+002  0.9259876E+02  0.7546771E-02  0.1296678E+00
         21   -1    0    0  503  501  0.00000000000E+00  0.00000000000E+00  0.23638125758E+04  0.23638125758E+04  0.00000000000E+00 0.  1.
         21   -1    0    0  504  502 -0.00000000000E+00 -0.00000000000E+00 -0.39770668957E+02  0.39770668957E+02  0.00000000000E+00 0.  1.
         21    1    1    2  503  505  0.93986834208E+02  0.49483451191E+02  0.71473510046E+03  0.72258452846E+03  0.00000000000E+00 0.  1.
         21    1    1    2  504  506 -0.67184530313E+02  0.10899844881E+02  0.16196067081E+03  0.17568103660E+03  0.00000000000E+00 0.  1.
         21    1    1    2  505  502  0.28535854943E+02  0.10816385729E+02 -0.19165515239E+02  0.36036178931E+02  0.00000000000E+00 0.  1.
         21    1    1    2  506  501 -0.55338158838E+02 -0.71199681801E+02  0.14665116508E+04  0.14692815008E+04  0.00000000000E+00 0.  1.
<scales pt_clust_3="92.59876" pt_clust_4="53.85149" pt_clust_5="30.51703" pt_clust_6="14000.00000"></scales>
<clustering>
<clus scale="   30.517">  2  5  1 -1</clus>
<clus scale="   53.851">  2  4  1 -1</clus>
<clus scale="   92.599">  2  3  1 -1</clus>
<clus scale="   92.599">  1  3  2 -1</clus>
</clustering>
</event>
<event>
 6    0  0.5563122E+002  0.9125675E+02  0.7546771E-02  0.1299837E+00
         21   -1    0    0  504  501  0.00000000000E+00  0.00000000000E+00  0.33176388843E+03  0.33176388843E+03  0.00000000000E+00 0. -1.
         21   -1    0    0  505  502 -0.00000000000E+00 -0.00000000000E+00 -0.11754888845E+03  0.11754888845E+03  0.00000000000E+00 0. -1.
         21    1    1    2  503  502  0.33631809318E+02 -0.10242708755E+02 -0.20095588338E+01  0.35214343772E+02  0.00000000000E+00 0. -1.
         21    1    1    2  504  506 -0.20415944832E+02 -0.46474511847E+02  0.21357952506E+03  0.21952882403E+03  0.00000000000E+00 0. -1.
         21    1    1    2  505  501  0.33509857930E+01  0.11901842435E+03 -0.29307011334E+02  0.12261939225E+03  0.00000000000E+00 0. -1.
         21    1    1    2  506  503 -0.16566850279E+02 -0.62301203751E+02  0.31952045096E+02  0.71950216837E+02  0.00000000000E+00 0. -1.
<scales pt_clust_3="35.15696" pt_clust_4="50.64726" pt_clust_5="91.25675" pt_clust_6="14000.00000"></scales>
<clustering>
<clus scale="   35.157">  2  3  1 -1</clus>
<clus scale="   50.647">  1  4  2 -1</clus>
<clus scale="   91.257">  2  5  1 -1</clus>
<clus scale="   50.647">  1  3  2 -1</clus>
</clustering>
</event>
<event>
 6    0  0.5563122E+002  0.7729606E+02  0.7546771E-02  0.1336905E+00
         21   -1    0    0  504  501  0.00000000000E+00  0.00000000000E+00  0.16569075426E+03  0.16569075426E+03  0.00000000000E+00 0.  1.
         21   -1    0    0  503  502 -0.00000000000E+00 -0.00000000000E+00 -0.62678200161E+03  0.62678200161E+03  0.00000000000E+00 0.  1.
         21    1    1    2  503  506 -0.36809082676E+02  0.10096497995E+02 -0.51925106091E+03  0.52065200671E+03  0.00000000000E+00 0.  1.
         21    1    1    2  504  505 -0.43724018289E+02 -0.16784997195E+02  0.32063750134E+02  0.56759228138E+02  0.00000000000E+00 0.  1.
         21    1    1    2  505  502 -0.32313755171E+02  0.40990658379E+02 -0.51941859338E+02  0.73636740823E+02  0.00000000000E+00 0.  1.
         21    1    1    2  506  501  0.11284685614E+03 -0.34302159179E+02  0.78037922768E+02  0.14142478020E+03  0.00000000000E+00 0.  1.
<scales pt_clust_3="38.16868" pt_clust_4="50.45651" pt_clust_5="77.29606" pt_clust_6="14000.00000"></scales>
<clustering>
<clus scale="   38.169">  2  3  1 -1</clus>
<clus scale="   50.457">  1  4  2 -1</clus>
<clus scale="   77.296">  2  5  1 -1</clus>
<clus scale="   50.457">  1  3  2 -1</clus>
</clustering>
</event>
<event>
 6    0  0.5563122E+002  0.1202374E+03  0.7546771E-02  0.1242706E+00
         21   -1    0    0  503  501  0.00000000000E+00  0.00000000000E+00  0.38489456643E+03  0.38489456643E+03  0.00000000000E+00 0.  1.
         21   -1    0    0  506  502 -0.00000000000E+00 -0.00000000000E+00 -0.17948053876E+03  0.17948053876E+03  0.00000000000E+00 0.  1.
         21    1    1    2  503  502  0.11208816311E+03 -0.11068760049E+02  0.34060592204E+03  0.35874596567E+03  0.00000000000E+00 0.  1.
         21    1    1    2  504  505 -0.65323551231E+02  0.70008474073E+01 -0.42709603527E+02  0.78359992619E+02  0.00000000000E+00 0.  1.
         21    1    1    2  505  501 -0.34522525604E+02 -0.31143315970E+02 -0.32794383687E+02  0.56896243330E+02  0.00000000000E+00 0.  1.
         21    1    1    2  506  504 -0.12242086270E+02  0.35211228612E+02 -0.59687907153E+02  0.70372903570E+02  0.00000000000E+00 0.  1.
<scales pt_clust_3="111.42594" pt_clust_4="33.92264" pt_clust_5="33.92264" pt_clust_6="37.27867"></scales>
<clustering>
<clus scale="   37.279">  2  6  1 -1</clus>
<clus scale="   33.923">  4  5 -1 -1</clus>
<clus scale="  111.426">  1  3  2 -1</clus>
<clus scale="  111.426">  1  3  2 -1</clus>
</clustering>
</event>
<event>
 6    0  0.5563122E+002  0.2013449E+03  0.7546771E-02  0.1148609E+00
         21   -1    0    0  503  501  0.00000000000E+00  0.00000000000E+00  0.94209617960E+03  0.94209617960E+03  0.00000000000E+00 0. -1.
         21   -1    0    0  504  502 -0.00000000000E+00 -0.00000000000E+00 -0.71752179047E+03  0.71752179047E+03  0.00000000000E+00 0. -1.
         21    1    1    2  503  506 -0.12727778068E+03  0.16002725666E+03 -0.43407470692E+03  0.47982205818E+03  0.00000000000E+00 0. -1.
         21    1    1    2  504  505  0.74910103702E+02 -0.17293843765E+03 -0.17257915548E+03  0.25554410923E+03  0.00000000000E+00 0. -1.
         21    1    1    2  505  501  0.39391126368E+02 -0.18784640447E+02  0.87081371241E+03  0.87190655765E+03  0.00000000000E+00 0. -1.
         21    1    1    2  506  502  0.12976550605E+02  0.31695821438E+02 -0.39585460881E+02  0.52345245012E+02  0.00000000000E+00 0. -1.
<scales pt_clust_3="14000.00000" pt_clust_4="201.34492" pt_clust_5="43.63929" pt_clust_6="34.24932"></scales>
<clustering>
<clus scale="   34.249">  2  6  1 -1</clus>
<clus scale="   43.639">  1  5  2 -1</clus>
<clus scale="  201.345">  1  4  2 -1</clus>
<clus scale="   43.639">  1  3  2 -1</clus>
</clustering>
</event>
<event>
 6    0  0.5563122E+002  0.1860076E+03  0.7546771E-02  0.1162112E+00
         21   -1    0    0  505  501  0.00000000000E+00  0.00000000000E+00  0.41857010859E+03  0.41857010859E+03  0.00000000000E+00 0. -1.
         21   -1    0    0  504  502 -0.00000000000E+00 -0.00000000000E+00 -0.35245651574E+03  0.35245651574E+03  0.00000000000E+00 0.  1.
         21    1    1    2  503  502 -0.10729949892E+03  0.50839685516E+01  0.98759399789E+02  0.14591932104E+03  0.00000000000E+00 0. -1.
         21    1    1    2  504  506  0.15672163890E+03  0.38322465706E+02 -0.24011359122E+03  0.28928328705E+03  0.00000000000E+00 0.  1.
         21    1    1    2  505  503 -0.14080910989E+03 -0.50986305567E+02  0.58258895699E+02  0.16068885372E+03  0.00000000000E+00 0.  1.
         21    1    1    2  506  501  0.91386969912E+02  0.75798713090E+01  0.14920888859E+03  0.17513516252E+03  0.00000000000E+00 0. -1.
<scales pt_clust_3="63.88007" pt_clust_4="170.02913" pt_clust_5="63.88007" pt_clust_6="91.70078"></scales>
<clustering>
<clus scale="   63.880">  3  5 -1 -1</clus>
<clus scale="   91.701">  1  6  2 -1</clus>
<clus scale="  170.029">  2  4  1 -1</clus>
<clus scale="   91.701">  1  3  2 -1</clus>
</clustering>
</event>
<event>
 6    0  0.5563122E+002  0.9314337E+02  0.7546771E-02  0.1295413E+00
         21   -1    0    0  505  501  0.00000000000E+00  0.00000000000E+00  0.48626458198E+03  0.48626458198E+03  0.00000000000E+00 0.  1.
         21   -1    0    0  506  502 -0.00000000000E+00 -0.00000000000E+00 -0.16492966463E+03  0.16492966463E+03  0.00000000000E+00 0. -1.
         21    1    1    2  503  501 -0.39475021878E+02 -0.12190935911E+03  0.89846289671E+02  0.15650087846E+03  0.00000000000E+00 0. -1.
         21    1    1    2  504  502 -0.26724315714E+01 -0.38233897115E+02 -0.10141741647E+03  0.10841801116E+03  0.00000000000E+00 0. -1.
         21    1    1    2  505  504  0.52104058182E+02  0.69034529953E+02  0.24281682656E+03  0.25776076207E+03  0.00000000000E+00 0.  1.
         21    1    1    2  506  503 -0.99566047322E+01  0.91108726270E+02  0.90089217602E+02  0.12851459492E+03  0.00000000000E+00 0. -1.
<scales pt_clust_3="93.14337" pt_clust_4="38.32718" pt_clust_5="14000.00000" pt_clust_6="79.60591"></scales>
<clustering>
<clus scale="   38.327">  2  4  1 -1</clus>
<clus scale="   79.606">  2  6  1 -1</clus>
<clus scale="   93.143">  2  3  1 -1</clus>
<clus scale="   93.143">  1  3  2 -1</clus>
</clustering>
</event>
<event>
 6    0  0.5563122E+002  0.1676936E+03  0.7546771E-02  0.1180275E+00
         21   -1    0    0  506  501  0.00000000000E+00  0.00000000000E+00  0.17742777503E+02  0.17742777503E+02  0.00000000000E+00 0.  1.
         21   -1    0    0  504  502 -0.00000000000E+00 -0.00000000000E+00 -0.16079092608E+04  0.16079092608E+04  0.00000000000E+00 0.  1.
         21    1    1    2  503  502  0.39829833511E+02  0.36570471192E+02 -0.36592864143E+03  0.36990212979E+03  0.00000000000E+00 0.  1.
         21    1    1    2  504  505 -0.18778237109E+02 -0.67639620342E+02 -0.44584509590E+03  0.45133755657E+03  0.00000000000E+00 0.  1.
         21    1    1    2  505  501 -0.14147991909E+02 -0.80733867949E+02 -0.21722933918E+03  0.23217818354E+03  0.00000000000E+00 0.  1.
         21    1    1    2  506  503 -0.69036044934E+01  0.11180301710E+03 -0.56116340678E+03  0.57223416841E+03  0.00000000000E+00 0.  1.
<scales pt_clust_3="49.23787" pt_clust_4="61.57666" pt_clust_5="165.90980" pt_clust_6="49.23787"></scales>
<clustering>
<clus scale="   49.238">  3  6 -1 -1</clus>
<clus scale="   61.577">  4  5 -1 -1</clus>
<clus scale="  165.910">  1  4  2 -1</clus>
<clus scale="  165.910">  1  3  2 -1</clus>
</clustering>
</event>
<event>
 6    0  0.5563122E+002  0.1340672E+03  0.7546771E-02  0.1221543E+00
         21   -1    0    0  505  501  0.00000000000E+00  0.00000000000E+00  0.33693724453E+02  0.33693724453E+02  0.00000000000E+00 0.  1.
         21   -1    0    0  506  502 -0.00000000000E+00 -0.00000000000E+00 -0.13313118349E+04  0.13313118349E+04  0.00000000000E+00 0.  1.
         21    1    1    2  503  504 -0.71814655511E+02 -0.84696237061E+02 -0.36685760629E+03  0.38329531775E+03  0.00000000000E+00 0.  1.
         21    1    1    2  504  501  0.61479263854E+02  0.13798423422E+03 -0.22141032250E+03  0.26803335555E+03  0.00000000000E+00 0.  1.
         21    1    1    2  505  502 -0.17771783319E+02 -0.35565244858E+02 -0.51269198832E+03  0.51423126880E+03  0.00000000000E+00 0.  1.
         21    1    1    2  506  503  0.28107174975E+02 -0.17722752300E+02 -0.19665819337E+03  0.19944561729E+03  0.00000000000E+00 0.  1.
<scales pt_clust_3="134.06719" pt_clust_4="14000.00000" pt_clust_5="43.88515" pt_clust_6="33.22814"></scales>
<clustering>
<clus scale="   33.228">  2  6  1 -1</clus>
<clus scale="   43.885">  2  5  1 -1</clus>
<clus scale="  134.067">  2  3  1 -1</clus>
<clus scale="  134.067">  1  3  2 -1</clus>
</clustering>
</event>
<event>
 6    0  0.5563122E+002  0.2027416E+03  0.7546771E-02  0.1147446E+00
         21   -1    0    0  503  501  0.00000000000E+00  0.00000000000E+00  0.81995960514E+03  0.81995960514E+03  0.00000000000E+00 0.  1.
         21   -1    0    0  504  502 -0.00000000000E+00 -0.00000000000E+00 -0.57040283821E+03  0.57040283821E+03  0.00000000000E+00 0. -1.
         21    1    1    2  503  506 -0.10429520840E+03  0.11068710028E+03 -0.19538898285E+03  0.24760044281E+03  0.00000000000E+00 0. -1.
         21    1    1    2  504  505 -0.16351065754E+02 -0.55527880432E+02 -0.32911148065E+02  0.66587134820E+02  0.00000000000E+00 0. -1.
         21    1    1    2  505  501  0.19507885010E+03 -0.69003967218E+02  0.75812724663E+03  0.78585891058E+03  0.00000000000E+00 0.  1.
         21    1    1    2  506  502 -0.74432575946E+02  0.13844747370E+02 -0.28027034880E+03  0.29031595514E+03  0.00000000000E+00 0. -1.
<scales pt_clust_3="202.74157" pt_clust_4="57.88526" pt_clust_5="14000.00000" pt_clust_6="85.02478"></scales>
<clustering>
<clus scale="   57.885">  2  4  1 -1</clus>
<clus scale="   85.025">  2  6  1 -1</clus>
<clus scale="  202.742">  2  3  1 -1</clus>
<clus scale="  202.742">  1  3  2 -1</clus>
</clustering>
</event>
<event>
 6    0  0.5563122E+002  0.1673208E+03  0.7546771E-02  0.1180671E+00
         21   -1    0    0  505  501  0.00000000000E+00  0.00000000000E+00  0.81213527201E+03  0.81213527201E+03  0.00000000000E+00 0.  1.
         21   -1    0    0  506  502 -0.00000000000E+00 -0.00000000000E+00 -0.28380820214E+03  0.28380820214E+03  0.00000000000E+00 0.  1.
         21    1    1    2  503  502 -0.41791421268E+02 -0.34084864350E+02  0.12003078354E+03  0.13158909479E+03  0.00000000000E+00 0.  1.
         21    1    1    2  504  501 -0.10453973064E+03  0.72222833785E+02  0.14405224958E+03  0.19208264786E+03  0.00000000000E+00 0.  1.
         21    1    1    2  505  503 -0.32535710628E+02 -0.41103245426E+02  0.48517347193E+03  0.48799728188E+03  0.00000000000E+00 0.  1.
         21    1    1    2  506  504  0.17886686253E+03  0.29652759910E+01 -0.22092943519E+03  0.28427444962E+03  0.00000000000E+00 0.  1.
<scales pt_clust_3="73.84095" pt_clust_4="167.32083" pt_clust_5="52.42184" pt_clust_6="14000.00000"></scales>
<clustering>
<clus scale="   52.422">  1  5  2 -1</clus>
<clus scale="   73.841">  1  3  2 -1</clus>
<clus scale="  167.321">  1  4  2 -1</clus>
<clus scale="   52.422">  1  3  2 -1</clus>
</clustering>
</event>
<event>
 6    0  0.5563122E+002  0.1559409E+03  0.7546771E-02  0.1193357E+00
         21   -1    0    0  505  501  0.00000000000E+00  0.00000000000E+00  0.33776736582E+03  0.33776736582E+03  0.00000000000E+00 0. -1.
         21   -1    0    0  503  502 -0.00000000000E+00 -0.00000000000E+00 -0.40387088431E+03  0.40387088431E+03  0.00000000000E+00 0. -1.
         21    1    1    2  503  506  0.22266731254E+02 -0.21657133199E+02 -0.12510613132E+03  0.12890454931E+03  0.00000000000E+00 0. -1.
         21    1    1    2  504  502  0.14663443844E+03  0.40628341126E+02  0.23799466249E+03  0.28247792836E+03  0.00000000000E+00 0. -1.
         21    1    1    2  505  504 -0.11412630275E+02  0.36456697442E+02  0.39714983317E+02  0.55105524388E+02  0.00000000000E+00 0. -1.
         21    1    1    2  506  501 -0.15748853942E+03 -0.55427905368E+02 -0.21870703298E+03  0.27515024808E+03  0.00000000000E+00 0. -1.
<scales pt_clust_3="31.06185" pt_clust_4="155.94086" pt_clust_5="37.44420" pt_clust_6="14000.00000"></scales>
<clustering>
<clus scale="   31.062">  2  3  1 -1</clus>
<clus scale="   37.444">  1  5  2 -1</clus>
<clus scale="  155.941">  1  4  2 -1</clus>
<clus scale="   37.444">  1  3  2 -1</clus>
</clustering>
</event>
<event>
 6    0  0.5563122E+002  0.1858988E+03  0.7546771E-02  0.1162213E+00
         21   -1    0    0  506  501  0.00000000000E+00  0.00000000000E+00  0.30071052428E+03  0.30071052428E+03  0.00000000000E+00 0. -1.
         21   -1    0    0  503  502 -0.00000000000E+00 -0.00000000000E+00 -0.52551325056E+03  0.52551325056E+03  0.00000000000E+00 0. -1.
         21    1    1    2  503  504 -0.57498163025E+02 -0.74356675071E+02 -0.12606314159E+03  0.15724779664E+03  0.00000000000E+00 0. -1.
         21    1    1    2  504  505 -0.30060901924E+02 -0.10161582029E+03 -0.16975384731E+03  0.20011447082E+03  0.00000000000E+00 0. -1.
         21    1    1    2  505  501  0.48651681932E+02  0.17386140220E+03  0.23724372000E+03  0.29812640944E+03  0.00000000000E+00 0. -1.
         21    1    1    2  506  502  0.38907383017E+02  0.21110931569E+01 -0.16622945737E+03  0.17073509793E+03  0.00000000000E+00 0. -1.
<scales pt_clust_3="37.28400" pt_clust_4="37.28400" pt_clust_5="181.63477" pt_clust_6="38.96461"></scales>
<clustering>
<clus scale="   37.284">  3  4 -1 -1</clus>
<clus scale="   38.965">  2  6  1 -1</clus>
<clus scale="  181.635">  1  5  2 -1</clus>
<clus scale="  181.635">  1  3  2 -1</clus>
</clustering>
</event>
<event>
 6    0  0.5563122E+002  0.1311678E+03  0.7546771E-02  0.1225733E+00
         21   -1    0    0  504  501  0.00000000000E+00  0.00000000000E+00  0.71687787275E+03  0.71687787275E+03  0.00000000000E+00 0. -1.
         21   -1    0    0  506  502 -0.00000000000E+00 -0.00000000000E+00 -0.10652188695E+03  0.10652188695E+03  0.00000000000E+00 0.  1.
         21    1    1    2  503  505  0.56789618542E+02  0.64177144748E+02  0.42955901082E+02  0.95859147294E+02  0.00000000000E+00 0.  1.
         21    1    1    2  504  503 -0.84082040626E+02 -0.10517584656E+03  0.56420357908E+03  0.58004950384E+03  0.00000000000E+00 0. -1.
         21    1    1    2  505  502  0.58233655630E+02  0.49045128729E+02 -0.45901420411E+02  0.88901764301E+02  0.00000000000E+00 0.  1.
         21    1    1    2  506  501 -0.30941233546E+02 -0.80464269215E+01  0.49097926046E+02  0.58589344266E+02  0.00000000000E+00 0.  1.
<scales pt_clust_3="131.16782" pt_clust_4="14000.00000" pt_clust_5="75.20112" pt_clust_6="31.97038"></scales>
<clustering>
<clus scale="   31.970">  1  6  2 -1</clus>
<clus scale="   75.201">  2  5  1 -1</clus>
<clus scale="  131.168">  2  3  1 -1</clus>
<clus scale="   31.970">  1  3  2 -1</clus>
</clustering>
</event>
<event>
 6    0  0.5563122E+002  0.1202888E+03  0.7546771E-02  0.1242621E+00
         21   -1    0    0  503  501  0.00000000000E+00  0.00000000000E+00  0.56284308361E+03  0.56284308361E+03  0.00000000000E+00 0.  1.
         21   -1    0    0  505  502 -0.00000000000E+00 -0.00000000000E+00 -0.10047409969E+03  0.10047409969E+03  0.00000000000E+00 0. -1.
         21    1    1    2  503  506 -0.36266019202E+02  0.14862766313E+02  0.10070031402E+02  0.40466424399E+02  0.00000000000E+00 0. -1.
         21    1    1    2  504  501  0.98914945811E+02  0.59002491959E+02  0.48981093526E+03  0.50317016293E+03  0.00000000000E+00 0.  1.
         21    1    1    2  505  504 -0.51017321561E+01 -0.50507649261E+02 -0.23853763487E+02  0.56089681202E+02  0.00000000000E+00 0. -1.
         21    1    1    2  506  502 -0.57547194453E+02 -0.23357609011E+02 -0.13658219250E+02  0.63590914769E+02  0.00000000000E+00 0. -1.
<scales pt_clust_3="35.00731" pt_clust_4="111.92600" pt_clust_5="50.76466" pt_clust_6="35.00731"></scales>
<clustering>
<clus scale="   35.007">  3  6 -1 -1</clus>
<clus scale="   50.765">  2  5  1 -1</clus>
<clus scale="  111.926">  1  4  2 -1</clus>
<clus scale="  111.926">  1  3  2 -1</clus>
</clustering>
</event>
<event>
 6    0  0.5563122E+002  0.6957232E+02  0.7546771E-02  0.1361553E+00
         21   -1    0    0  506  501  0.00000000000E+00  0.00000000000E+00  0.22418504177E+02  0.22418504177E+02  0.00000000000E+00 0. -1.
         21   -1    0    0  505  502 -0.00000000000E+00 -0.00000000000E+00 -0.13628254555E+04  0.13628254555E+04  0.00000000000E+00 0. -1.
         21    1    1    2  503  502  0.39910911270E+02  0.85595966595E+01 -0.41471223127E+03  0.41671618915E+03  0.00000000000E+00 0.  1.
         21    1    1    2  504  501 -0.22000279782E+02  0.56300510448E+02 -0.86531214959E+02  0.10555288224E+03  0.00000000000E+00 0. -1.
         21    1    1    2  505  504 -0.81143930875E+02 -0.63024156341E+02 -0.72681168883E+03  0.73403788241E+03  0.00000000000E+00 0. -1.
         21    1    1    2  506  503  0.63233299387E+02 -0.18359507668E+01 -0.11235181630E+03  0.12893700590E+03  0.00000000000E+00 0. -1.
<scales pt_clust_3="40.81847" pt_clust_4="59.92121" pt_clust_5="69.57232" pt_clust_6="14000.00000"></scales>
<clustering>
<clus scale="   40.818">  2  3  1 -1</clus>
<clus scale="   59.921">  1  4  2 -1</clus>
<clus scale="   69.572">  2  5  1 -1</clus>
<clus scale="   59.921">  1  3  2 -1</clus>
</clustering>
</event>
<event>
 6    0  0.5563122E+002  0.1059438E+03  0.7546771E-02  0.1268271E+00
         21   -1    0    0  502  501  0.00000000000E+00  0.00000000000E+00  0.35370180954E+03  0.35370180954E+03  0.00000000000E+00 0.  1.
         21   -1    0    0  505  502 -0.00000000000E+00 -0.00000000000E+00 -0.27389037502E+03  0.27389037502E+03  0.00000000000E+00 0. -1.
         21    1    1    2  503  504  0.89366511608E+02 -0.18329851649E+02 -0.14033959646E+02  0.92300102285E+02  0.00000000000E+00 0. -1.
         21    1    1    2  504  506 -0.95211306549E+02 -0.75496358404E+01  0.14194316509E+03  0.17108492632E+03  0.00000000000E+00 0.  1.
         21    1    1    2  505  503  0.31447986708E+02 -0.43374552123E+01 -0.20241465964E+03  0.20488895486E+03  0.00000000000E+00 0. -1.
         21    1    1    2  506  501 -0.25603191767E+02  0.30216942702E+02  0.15431688872E+03  0.15931820109E+03  0.00000000000E+00 0.  1.
<scales pt_clust_3="105.94377" pt_clust_4="14000.00000" pt_clust_5="31.74570" pt_clust_6="38.77113"></scales>
<clustering>
<clus scale="   31.746">  2  5  1 -1</clus>
<clus scale="   38.771">  1  6  2 -1</clus>
<clus scale="  105.944">  2  3  1 -1</clus>
<clus scale="   38.771">  1  3  2 -1</clus>
</clustering>
</event>
<event>
 6    0  0.5563122E+002  0.8400875E+02  0.7546771E-02  0.1318045E+00
         21   -1    0    0  503  501  0.00000000000E+00  0.00000000000E+00  0.24002347989E+03  0.24002347989E+03  0.00000000000E+00 0.  1.
         21   -1    0    0  506  502 -0.00000000000E+00 -0.00000000000E+00 -0.67783034019E+03  0.67783034019E+03  0.00000000000E+00 0.  1.
         21    1    1    2  503  505  0.47765007290E+02 -0.45298665004E+02 -0.68153694307E+02  0.94754372038E+02  0.00000000000E+00 0.  1.
         21    1    1    2  504  501 -0.38317679592E+01 -0.50321883318E+02  0.21385504831E+03  0.21972927905E+03  0.00000000000E+00 0.  1.
         21    1    1    2  505  502 -0.71625531965E+02  0.62753264480E+02 -0.25755301701E+03  0.27459378290E+03  0.00000000000E+00 0.  1.
         21    1    1    2  506  504  0.27692292634E+02  0.32867283842E+02 -0.32595519728E+03  0.32877638609E+03  0.00000000000E+00 0.  1.
<scales pt_clust_3="84.00875" pt_clust_4="50.17572" pt_clust_5="14000.00000" pt_clust_6="42.97815"></scales>
<clustering>
<clus scale="   42.978">  2  6  1 -1</clus>
<clus scale="   50.176">  1  4  2 -1</clus>
<clus scale="   84.009">  1  3  2 -1</clus>
<clus scale="   50.176">  1  3  2 -1</clus>
</clustering>
</event>
<event>
 6    0  0.5563122E+002  0.9588766E+02  0.7546771E-02  0.1289189E+00
         21   -1    0    0  503  501  0.00000000000E+00  0.00000000000E+00  0.14763655164E+03  0.14763655164E+03  0.00000000000E+00 0.  1.
         21   -1    0    0  504  502 -0.00000000000E+00 -0.00000000000E+00 -0.33390548876E+03  0.33390548876E+03  0.00000000000E+00 0. -1.
         21    1    1    2  503  506 -0.86448392225E+02 -0.33639135627E+02  0.51914191464E+02  0.10630145455E+03  0.00000000000E+00 0.  1.
         21    1    1    2  504  501  0.89520158512E+02  0.50442947024E+02 -0.50500136180E+01  0.10287785147E+03  0.00000000000E+00 0.  1.
         21    1    1    2  505  502 -0.36598900142E+02  0.10781941427E+02 -0.22497308781E+03  0.22818549470E+03  0.00000000000E+00 0. -1.
         21    1    1    2  506  505  0.33527133854E+02 -0.27585752825E+02 -0.81600271541E+01  0.44177239689E+02  0.00000000000E+00 0.  1.
<scales pt_clust_3="95.88766" pt_clust_4="14000.00000" pt_clust_5="38.15403" pt_clust_6="35.04534"></scales>
<clustering>
<clus scale="   38.154">  2  5  1 -1</clus>
<clus scale="   35.045">  2  6  1 -1</clus>
<clus scale="   95.888">  1  3  2 -1</clus>
<clus scale="   95.888">  1  3  2 -1</clus>
</clustering>
</event>
<event>
 6    0  0.5563122E+002  0.8831125E+02  0.7546771E-02  0.1306994E+00
         21   -1    0    0  506  501  0.00000000000E+00  0.00000000000E+00  0.25877331664E+03  0.25877331664E+03  0.00000000000E+00 0.  1.
         21   -1    0    0  505  502 -0.00000000000E+00 -0.00000000000E+00 -0.15181695735E+03  0.15181695735E+03  0.00000000000E+00 0.  1.
         21    1    1    2  503  501  0.97622175180E+02  0.25566657053E+02 -0.33557244011E+02  0.10634769234E+03  0.00000000000E+00 0.  1.
         21    1    1    2  504  502 -0.36969080860E+02 -0.13508936306E+02  0.35098683302E+01  0.39516116654E+02  0.00000000000E+00 0.  1.
         21    1    1    2  505  503  0.99029213862E+01  0.39499169560E+02 -0.46299269817E+02  0.61659343441E+02  0.00000000000E+00 0.  1.
         21    1    1    2  506  504 -0.70556015706E+02 -0.51556890307E+02  0.18330300479E+03  0.20306712155E+03  0.00000000000E+00 0.  1.
<scales pt_clust_3="88.31125" pt_clust_4="39.35993" pt_clust_5="34.41640" pt_clust_6="14000.00000"></scales>
<clustering>
<clus scale="   39.360">  2  4  1 -1</clus>
<clus scale="   34.416">  2  5  1 -1</clus>
<clus scale="   88.311">  2  3  1 -1</clus>
<clus scale="   88.311">  1  3  2 -1</clus>
</clustering>
</event>
<event>
 6    0  0.5563122E+002  0.2098801E+03  0.7546771E-02  0.1141661E+00
         21   -1    0    0  504  501  0.00000000000E+00  0.00000000000E+00  0.26587068114E+03  0.26587068114E+03  0.00000000000E+00 0.  1.
         21   -1    0    0  505  502 -0.00000000000E+00 -0.00000000000E+00 -0.27675832421E+03  0.27675832421E+03  0.00000000000E+00 0.  1.
         21    1    1    2  503  502  0.27006681701E+02 -0.43625270762E+02 -0.40105976294E+00  0.51309706241E+02  0.00000000000E+00 0. -1.
         21    1    1    2  504  506 -0.67792538910E+02  0.42520724526E+02  0.36632499103E+02  0.88010114967E+02  0.00000000000E+00 0. -1.
         21    1    1    2  505  501  0.16697273998E+02  0.16126950849E+03  0.94928667573E+02  0.18787789986E+03  0.00000000000E+00 0.  1.
         21    1    1    2  506  503  0.24088583211E+02 -0.16016496226E+03 -0.14204774998E+03  0.21543128429E+03  0.00000000000E+00 0.  1.
<scales pt_clust_3="46.13153" pt_clust_4="80.02400" pt_clust_5="193.21425" pt_clust_6="46.13153"></scales>
<clustering>
<clus scale="   46.132">  3  6 -1 -1</clus>
<clus scale="   80.024">  1  4  2 -1</clus>
<clus scale="  193.214">  1  5  2 -1</clus>
<clus scale="   80.024">  1  3  2 -1</clus>
</clustering>
</event>
<event>
 6    0  0.5563122E+002  0.1628162E+03  0.7546771E-02  0.1185554E+00
         21   -1    0    0  503  501  0.00000000000E+00  0.00000000000E+00  0.23510043298E+03  0.23510043298E+03  0.00000000000E+00 0.  1.
         21   -1    0    0  505  502 -0.00000000000E+00 -0.00000000000E+00 -0.78282444908E+03  0.78282444908E+03  0.00000000000E+00 0.  1.
         21    1    1    2  503  506 -0.54426716331E+02 -0.15276121659E+02  0.70249770345E+01  0.56964705265E+02  0.00000000000E+00 0.  1.
         21    1    1    2  504  501  0.70413857661E+02 -0.15918338703E+03  0.13830864067E+03  0.22232125886E+03  0.00000000000E+00 0.  1.
         21    1    1    2  505  504  0.67479773910E+02  0.69730524924E+02 -0.45746406445E+03  0.46764220966E+03  0.00000000000E+00 0.  1.
         21    1    1    2  506  502 -0.83466915240E+02  0.10472898376E+03 -0.23559356935E+03  0.27099670828E+03  0.00000000000E+00 0.  1.
<scales pt_clust_3="56.52988" pt_clust_4="14000.00000" pt_clust_5="95.81463" pt_clust_6="162.81618"></scales>
<clustering>
<clus scale="   56.530">  1  3  2 -1</clus>
<clus scale="   95.815">  2  5  1 -1</clus>
<clus scale="  162.816">  2  6  1 -1</clus>
<clus scale="   56.530">  1  3  2 -1</clus>
</clustering>
</event>
<event>
 6    0  0.5563122E+002  0.8016247E+02  0.7546771E-02  0.1328591E+00
         21   -1    0    0  505  501  0.00000000000E+00  0.00000000000E+00  0.15501286735E+04  0.15501286735E+04  0.00000000000E+00 0. -1.
         21   -1    0    0  506  502 -0.00000000000E+00 -0.00000000000E+00 -0.20473920306E+04  0.20473920306E+04  0.00000000000E+00 0.  1.
         21    1    1    2  503  502 -0.91270073741E+01 -0.76853404482E+02 -0.15990042054E+04  0.16008760717E+04  0.00000000000E+00 0.  1.
         21    1    1    2  504  503 -0.11888026193E+02 -0.70043730494E+02 -0.19679828644E+03  0.20922957462E+03  0.00000000000E+00 0.  1.
         21    1    1    2  505  504  0.25103425863E+02 -0.33153625931E+02  0.15094787983E+04  0.15100515181E+04  0.00000000000E+00 0. -1.
         21    1    1    2  506  501 -0.40883922956E+01  0.18005076091E+03 -0.21093966357E+03  0.27736353964E+03  0.00000000000E+00 0. -1.
<scales pt_clust_3="80.16247" pt_clust_4="75.57610" pt_clust_5="41.58539" pt_clust_6="14000.00000"></scales>
<clustering>
<clus scale="   41.585">  1  5  2 -1</clus>
<clus scale="   75.576">  1  4  2 -1</clus>
<clus scale="   80.162">  2  3  1 -1</clus>
<clus scale="   41.585">  1  3  2 -1</clus>
</clustering>
</event>
<event>
 6    0  0.5563122E+002  0.1684142E+03  0.7546771E-02  0.1179512E+00
         21   -1    0    0  502  501  0.00000000000E+00  0.00000000000E+00  0.75570815286E+03  0.75570815286E+03  0.00000000000E+00 0. -1.
         21   -1    0    0  505  502 -0.00000000000E+00 -0.00000000000E+00 -0.40441704507E+03  0.40441704507E+03  0.00000000000E+00 0.  1.
         21    1    1    2  503  504  0.82059132343E+02  0.96641542358E+02 -0.43547140077E+02  0.13405089451E+03  0.00000000000E+00 0.  1.
         21    1    1    2  504  501  0.23705767359E+02  0.38691890677E+02  0.68282818174E+03  0.68433423967E+03  0.00000000000E+00 0. -1.
         21    1    1    2  505  506 -0.77756201988E+02 -0.63679676768E+02 -0.20657119967E+03  0.22972328727E+03  0.00000000000E+00 0.  1.
         21    1    1    2  506  503 -0.28008697714E+02 -0.71653756267E+02 -0.81418734202E+02  0.11201677648E+03  0.00000000000E+00 0.  1.
<scales pt_clust_3="154.97293" pt_clust_4="45.37649" pt_clust_5="55.96278" pt_clust_6="55.96278"></scales>
<clustering>
<clus scale="   45.376">  1  4  2 -1</clus>
<clus scale="   55.963">  5  6 -1 -1</clus>
<clus scale="  154.973">  1  3  2 -1</clus>
<clus scale="   45.376">  1  3  2 -1</clus>
</clustering>
</event>
<event>
 6    0  0.5563122E+002  0.7287537E+02  0.7546771E-02  0.1350579E+00
         21   -1    0    0  503  501  0.00000000000E+00  0.00000000000E+00  0.54892587737E+03  0.54892587737E+03  0.00000000000E+00 0. -1.
         21   -1    0    0  504  502 -0.00000000000E+00 -0.00000000000E+00 -0.47568453053E+03  0.47568453053E+03  0.00000000000E+00 0. -1.
         21    1    1    2  503  506  0.35290290453E+02  0.63386093768E+02  0.52136084849E+03  0.52638420932E+03  0.00000000000E+00 0. -1.
         21    1    1    2  504  501 -0.34286658179E+02 -0.11368683252E+02 -0.48459939015E+02  0.60441604688E+02  0.00000000000E+00 0.  1.
         21    1    1    2  505  502  0.15443595197E+02  0.61776394023E+02 -0.14625493344E+03  0.15951593352E+03  0.00000000000E+00 0. -1.
         21    1    1    2  506  505 -0.16447227471E+02 -0.11379380454E+03 -0.25340462920E+03  0.27826866037E+03  0.00000000000E+00 0. -1.
<scales pt_clust_3="14000.00000" pt_clust_4="36.12232" pt_clust_5="57.72814" pt_clust_6="72.87537"></scales>
<clustering>
<clus scale="   36.122">  2  4  1 -1</clus>
<clus scale="   57.728">  2  5  1 -1</clus>
<clus scale="   72.875">  2  6  1 -1</clus>
<clus scale="   72.875">  1  3  2 -1</clus>
</clustering>
</event>
<event>
 6    0  0.5563122E+002  0.6612334E+02  0.7546771E-02  0.1373795E+00
         21   -1    0    0  504  501  0.00000000000E+00  0.00000000000E+00  0.32331896120E+03  0.32331896120E+03  0.00000000000E+00 0.  1.
         21   -1    0    0  505  502 -0.00000000000E+00 -0.00000000000E+00 -0.19465914283E+03  0.19465914283E+03  0.00000000000E+00 0.  1.
         21    1    1    2  503  501  0.39326425261E+02 -0.39637864886E+02  0.34225869204E+02  0.65491512269E+02  0.00000000000E+00 0.  1.
         21    1    1    2  504  506 -0.43677974536E+02 -0.24171920311E+02  0.76957676515E+02  0.91730753652E+02  0.00000000000E+00 0.  1.
         21    1    1    2  505  503 -0.45156184309E+02 -0.45854449990E+02 -0.14496390297E+03  0.15860720264E+03  0.00000000000E+00 0.  1.
         21    1    1    2  506  502  0.49507733584E+02  0.10966423519E+03  0.16244017563E+03  0.20214863547E+03  0.00000000000E+00 0.  1.
<scales pt_clust_3="53.93751" pt_clust_4="49.92041" pt_clust_5="66.12334" pt_clust_6="14000.00000"></scales>
<clustering>
<clus scale="   49.920">  1  4  2 -1</clus>
<clus scale="   53.938">  1  3  2 -1</clus>
<clus scale="   66.123">  2  5  1 -1</clus>
<clus scale="   49.920">  1  3  2 -1</clus>
</clustering>
</event>
<event>
 6    0  0.5563122E+002  0.1827005E+03  0.7546771E-02  0.1165215E+00
         21   -1    0    0  503  501  0.00000000000E+00  0.00000000000E+00  0.22377243288E+03  0.22377243288E+03  0.00000000000E+00 0. -1.
         21   -1    0    0  505  502 -0.00000000000E+00 -0.00000000000E+00 -0.55375168498E+03  0.55375168498E+03  0.00000000000E+00 0. -1.
         21    1    1    2  503  504 -0.77428516527E+02  0.10435143949E+03 -0.27004810912E+03  0.29968379892E+03  0.00000000000E+00 0. -1.
         21    1    1    2  504  502  0.17759968422E+02  0.65052722884E+02 -0.15840912318E+03  0.17216481504E+03  0.00000000000E+00 0. -1.
         21    1    1    2  505  506  0.22831418493E+02 -0.12906859952E+03 -0.55467494866E+02  0.14232575325E+03  0.00000000000E+00 0. -1.
         21    1    1    2  506  501  0.36837129612E+02 -0.40335562856E+02  0.15394547505E+03  0.16334975065E+03  0.00000000000E+00 0. -1.
<scales pt_clust_3="61.12393" pt_clust_4="61.12393" pt_clust_5="163.00942" pt_clust_6="54.62538"></scales>
<clustering>
<clus scale="   54.625">  1  6  2 -1</clus>
<clus scale="   61.124">  3  4 -1 -1</clus>
<clus scale="  163.009">  1  5  2 -1</clus>
<clus scale="   54.625">  1  3  2 -1</clus>
</clustering>
</event>
<event>
 6    0  0.5563122E+002  0.1638703E+03  0.7546771E-02  0.1184395E+00
         21   -1    0    0  502  501  0.00000000000E+00  0.00000000000E+00  0.80948353096E+03  0.80948353096E+03  0.00000000000E+00 0.  1.
         21   -1    0    0  505  502 -0.00000000000E+00 -0.00000000000E+00 -0.22119122988E+03  0.22119122988E+03  0.00000000000E+00 0.  1.
         21    1    1    2  503  506 -0.71234148936E+02  0.72068729098E+02  0.15469462079E+02  0.10250614589E+03  0.00000000000E+00 0.  1.
         21    1    1    2  504  501 -0.52360280971E+02  0.48576493431E+02  0.48219890228E+03  0.48745979946E+03  0.00000000000E+00 0.  1.
         21    1    1    2  505  503 -0.99268289999E+02  0.12465672815E+02 -0.81666950539E+02  0.12914750175E+03  0.00000000000E+00 0.  1.
         21    1    1    2  506  504  0.22286271991E+03 -0.13311089534E+03  0.17229088726E+03  0.31156131373E+03  0.00000000000E+00 0.  1.
<scales pt_clust_3="163.87032" pt_clust_4="71.42321" pt_clust_5="104.33402" pt_clust_6="14000.00000"></scales>
<clustering>
<clus scale="   71.423">  1  4  2 -1</clus>
<clus scale="  104.334">  2  5  1 -1</clus>
<clus scale="  163.870">  2  3  1 -1</clus>
<clus scale="   71.423">  1  3  2 -1</clus>
</clustering>
</event>
<event>
 6    0  0.5563122E+002  0.1795879E+03  0.7546771E-02  0.1168202E+00
         21   -1    0    0  503  501  0.00000000000E+00  0.00000000000E+00  0.89720294491E+03  0.89720294491E+03  0.00000000000E+00 0.  1.
         21   -1    0    0  505  502 -0.00000000000E+00 -0.00000000000E+00 -0.16772283353E+03  0.16772283353E+03  0.00000000000E+00 0. -1.
         21    1    1    2  503  504  0.15575286084E+03  0.16236225488E+02  0.23475783585E+03  0.28219463171E+03  0.00000000000E+00 0.  1.
         21    1    1    2  504  506  0.30142246748E+02  0.22690834307E+02  0.12616919981E+03  0.13168939206E+03  0.00000000000E+00 0.  1.
         21    1    1    2  505  501 -0.14697708642E+03 -0.47688493888E+02  0.49494461747E+03  0.51850422443E+03  0.00000000000E+00 0.  1.
         21    1    1    2  506  502 -0.38918021167E+02  0.87614340934E+01 -0.12639154175E+03  0.13253753025E+03  0.00000000000E+00 0. -1.
<scales pt_clust_3="34.56647" pt_clust_4="34.56647" pt_clust_5="165.20431" pt_clust_6="39.89204"></scales>
<clustering>
<clus scale="   34.566">  3  4 -1 -1</clus>
<clus scale="   39.892">  2  6  1 -1</clus>
<clus scale="  165.204">  1  5  2 -1</clus>
<clus scale="  165.204">  1  3  2 -1</clus>
</clustering>
</event>
<event>
 6    0  0.5563122E+002  0.8295334E+02  0.7546771E-02  0.1320873E+00
         21   -1    0    0  506  501  0.00000000000E+00  0.00000000000E+00  0.16515727003E+04  0.16515727003E+04  0.00000000000E+00 0.  1.
         21   -1    0    0  505  502 -0.00000000000E+00 -0.00000000000E+00 -0.15542324607E+02  0.15542324607E+02  0.00000000000E+00 0.  1.
         21    1    1    2  503  502 -0.81912725284E+02 -0.34073868452E+02  0.42405266318E+03  0.43323363700E+03  0.00000000000E+00 0.  1.
         21    1    1    2  504  501  0.40566117490E+02  0.12475134006E+02  0.37893749593E+03  0.38130678551E+03  0.00000000000E+00 0.  1.
         21    1    1    2  505  504  0.83440559981E+02 -0.14359733426E+02  0.20086603393E+03  0.21798094545E+03  0.00000000000E+00 0.  1.
         21    1    1    2  506  503 -0.42093952187E+02  0.35958467871E+02  0.63217418268E+03  0.63459365697E+03  0.00000000000E+00 0.  1.
<scales pt_clust_3="82.95334" pt_clust_4="42.44100" pt_clust_5="14000.00000" pt_clust_6="47.51364"></scales>
<clustering>
<clus scale="   42.441">  1  4  2 -1</clus>
<clus scale="   47.514">  1  6  2 -1</clus>
<clus scale="   82.953">  1  3  2 -1</clus>
<clus scale="   42.441">  1  3  2 -1</clus>
</clustering>
</event>
<event>
 6    0  0.5563122E+002  0.1145652E+03  0.7546771E-02  0.1252342E+00
         21   -1    0    0  506  501  0.00000000000E+00  0.00000000000E+00  0.20243322310E+03  0.20243322310E+03  0.00000000000E+00 0.  1.
         21   -1    0    0  505  502 -0.00000000000E+00 -0.00000000000E+00 -0.54468818489E+03  0.54468818489E+03  0.00000000000E+00 0. -1.
         21    1    1    2  503  504 -0.27638364041E+02  0.86346453956E+02 -0.61398711265E+01  0.90869617007E+02  0.00000000000E+00 0.  1.
         21    1    1    2  504  502  0.75404789522E+02  0.86529781173E+02 -0.42120347546E+03  0.43656116760E+03  0.00000000000E+00 0. -1.
         21    1    1    2  505  501 -0.48625941578E+02 -0.10475784306E+03  0.96642803779E+02  0.15059388898E+03  0.00000000000E+00 0.  1.
         21    1    1    2  506  503  0.85951609680E+00 -0.68118392074E+02 -0.11554418981E+02  0.69096734399E+02  0.00000000000E+00 0. -1.
<scales pt_clust_3="74.92971" pt_clust_4="14000.00000" pt_clust_5="114.56516" pt_clust_6="68.12381"></scales>
<clustering>
<clus scale="   68.124">  1  6  2 -1</clus>
<clus scale="   74.930">  1  3  2 -1</clus>
<clus scale="  114.565">  1  5  2 -1</clus>
<clus scale="   68.124">  1  3  2 -1</clus>
</clustering>
</event>
<event>
 6    0  0.5563122E+002  0.1103235E+03  0.7546771E-02  0.1259972E+00
         21   -1    0    0  505  501  0.00000000000E+00  0.00000000000E+00  0.81943736832E+03  0.81943736832E+03  0.00000000000E+00 0.  1.
         21   -1    0    0  504  502 -0.00000000000E+00 -0.00000000000E+00 -0.31548340381E+03  0.31548340381E+03  0.00000000000E+00 0. -1.
         21    1    1    2  503  501 -0.61819658286E+02 -0.32072006137E+02 -0.63833623301E+02  0.94472298543E+02  0.00000000000E+00 0. -1.
         21    1    1    2  504  503  0.11020639595E+02  0.34480175769E+02 -0.26445216921E+02  0.44829527280E+02  0.00000000000E+00 0.  1.
         21    1    1    2  505  506  0.98830730097E+02  0.53502345823E+02  0.78401328397E+03  0.79202704730E+03  0.00000000000E+00 0.  1.
         21    1    1    2  506  502 -0.48031711406E+02 -0.55910515455E+02 -0.18978047924E+03  0.20359189900E+03  0.00000000000E+00 0. -1.
<scales pt_clust_3="110.32353" pt_clust_4="36.19858" pt_clust_5="14000.00000" pt_clust_6="51.24809"></scales>
<clustering>
<clus scale="   36.199">  2  4  1 -1</clus>
<clus scale="   51.248">  2  6  1 -1</clus>
<clus scale="  110.324">  2  3  1 -1</clus>
<clus scale="  110.324">  1  3  2 -1</clus>
</clustering>
</event>
<event>
 6    0  0.5563122E+002  0.2154819E+03  0.7546771E-02  0.1137297E+00
         21   -1    0    0  504  501  0.00000000000E+00  0.00000000000E+00  0.21757056587E+03  0.21757056587E+03  0.00000000000E+00 0. -1.
         21   -1    0    0  506  502 -0.00000000000E+00 -0.00000000000E+00 -0.29426209909E+03  0.29426209909E+03  0.00000000000E+00 0. -1.
         21    1    1    2  503  501  0.62241885170E+01 -0.62426921656E+02 -0.32421146210E+02  0.70618636292E+02  0.00000000000E+00 0.  1.
         21    1    1    2  504  505 -0.83500183852E+02  0.17780226168E+03  0.53222254341E+02  0.20351543754E+03  0.00000000000E+00 0. -1.
         21    1    1    2  505  502 -0.37421275963E+02  0.17046753677E+02 -0.24847783517E+02  0.48045354107E+02  0.00000000000E+00 0.  1.
         21    1    1    2  506  503  0.11469727130E+03 -0.13242209370E+03 -0.72644857834E+02  0.18965323702E+03  0.00000000000E+00 0. -1.
<scales pt_clust_3="38.38509" pt_clust_4="205.71340" pt_clust_5="41.12109" pt_clust_6="38.38509"></scales>
<clustering>
<clus scale="   38.385">  3  6 -1 -1</clus>
<clus scale="   41.121">  2  5  1 -1</clus>
<clus scale="  205.713">  1  4  2 -1</clus>
<clus scale="  205.713">  1  3  2 -1</clus>
</clustering>
</event>
<event>
 6    0  0.5563122E+002  0.7159097E+02  0.7546771E-02  0.1354765E+00
         21   -1    0    0  504  501  0.00000000000E+00  0.00000000000E+00  0.87491760828E+03  0.87491760828E+03  0.00000000000E+00 0. -1.
         21   -1    0    0  506  502 -0.00000000000E+00 -0.00000000000E+00 -0.28961718584E+02  0.28961718584E+02  0.00000000000E+00 0. -1.
         21    1    1    2  503  505  0.59512977929E+02 -0.38632046378E+02  0.27507285388E+03  0.28407623007E+03  0.00000000000E+00 0. -1.
         21    1    1    2  504  502  0.52230993628E+02  0.46905262379E+02  0.27654362722E+03  0.28531484029E+03  0.00000000000E+00 0. -1.
         21    1    1    2  505  501 -0.74899178366E+02 -0.20306000688E+02  0.28394533819E+03  0.29435892319E+03  0.00000000000E+00 0. -1.
         21    1    1    2  506  503 -0.36844793191E+02  0.12032784688E+02  0.10394070412E+02  0.40129333316E+02  0.00000000000E+00 0. -1.
<scales pt_clust_3="59.07460" pt_clust_4="14000.00000" pt_clust_5="71.59097" pt_clust_6="38.75986"></scales>
<clustering>
<clus scale="   38.760">  2  6  1 -1</clus>
<clus scale="   59.075">  2  3  1 -1</clus>
<clus scale="   71.591">  2  5  1 -1</clus>
<clus scale="   71.591">  1  3  2 -1</clus>
</clustering>
</event>
<event>
 6    0  0.5563122E+002  0.9505515E+02  0.7546771E-02  0.1291052E+00
         21   -1    0    0  503  501  0.00000000000E+00  0.00000000000E+00  0.63622920956E+02  0.63622920956E+02  0.00000000000E+00 0.  1.
         21   -1    0    0  504  502 -0.00000000000E+00 -0.00000000000E+00 -0.41531637293E+03  0.41531637293E+03  0.00000000000E+00 0.  1.
         21    1    1    2  503  506 -0.59457129139E+02  0.98650513721E+02 -0.10744526461E+03  0.15751685291E+03  0.00000000000E+00 0.  1.
         21    1    1    2  504  505 -0.14520235083E+01 -0.42707703328E+02 -0.49337747370E+02  0.65270740852E+02  0.00000000000E+00 0.  1.
         21    1    1    2  505  501  0.89334294616E+02 -0.27580105684E+02 -0.50498400409E+02  0.10626084353E+03  0.00000000000E+00 0.  1.
         21    1    1    2  506  502 -0.28425141968E+02 -0.28362704709E+02 -0.14441203958E+03  0.14989085660E+03  0.00000000000E+00 0.  1.
<scales pt_clust_3="95.05515" pt_clust_4="49.34586" pt_clust_5="14000.00000" pt_clust_6="40.15510"></scales>
<clustering>
<clus scale="   40.155">  2  6  1 -1</clus>
<clus scale="   49.346">  2  4  1 -1</clus>
<clus scale="   95.055">  2  3  1 -1</clus>
<clus scale="   95.055">  1  3  2 -1</clus>
</clustering>
</event>
<event>
 6    0  0.5563122E+002  0.1860867E+03  0.7546771E-02  0.1162039E+00
         21   -1    0    0  503  501  0.00000000000E+00  0.00000000000E+00  0.24134083339E+03  0.24134083339E+03  0.00000000000E+00 0. -1.
         21   -1    0    0  504  502 -0.00000000000E+00 -0.00000000000E+00 -0.94009554287E+03  0.94009554287E+03  0.00000000000E+00 0. -1.
         21    1    1    2  503  506 -0.12165612163E+02  0.36631544270E+02 -0.11255685457E+01  0.38615269770E+02  0.00000000000E+00 0.  1.
         21    1    1    2  504  505 -0.23033729057E+02 -0.18659880355E+03 -0.81662580881E+03  0.83799008214E+03  0.00000000000E+00 0. -1.
         21    1    1    2  505  501  0.10513769971E+03  0.13920569590E+03  0.14759483292E+03  0.22850907285E+03  0.00000000000E+00 0. -1.
         21    1    1    2  506  502 -0.69938358494E+02  0.10761563390E+02 -0.28598165043E+02  0.76321951490E+02  0.00000000000E+00 0.  1.
<scales pt_clust_3="38.59886" pt_clust_4="14000.00000" pt_clust_5="186.08665" pt_clust_6="72.74092"></scales>
<clustering>
<clus scale="   38.599">  1  3  2 -1</clus>
<clus scale="   72.741">  1  6  2 -1</clus>
<clus scale="  186.087">  1  5  2 -1</clus>
<clus scale="   38.599">  1  3  2 -1</clus>
</clustering>
</event>
<event>
 6    0  0.5563122E+002  0.1316316E+03  0.7546771E-02  0.1225055E+00
         21   -1    0    0  506  501  0.00000000000E+00  0.00000000000E+00  0.66785050767E+02  0.66785050767E+02  0.00000000000E+00 0. -1.
         21   -1    0    0  503  502 -0.00000000000E+00 -0.00000000000E+00 -0.12572816016E+04  0.12572816016E+04  0.00000000000E+00 0.  1.
         21    1    1    2  503  505 -0.59082966003E+02  0.29807157067E+02 -0.41916807183E+03  0.42435967755E+03  0.00000000000E+00 0.  1.
         21    1    1    2  504  502  0.40698731299E+02 -0.76593616038E+01 -0.18159174465E+03  0.18625416579E+03  0.00000000000E+00 0.  1.
         21    1    1    2  505  501 -0.40196285514E+02  0.82840504279E+02 -0.58597817365E+03  0.59316836607E+03  0.00000000000E+00 0. -1.
         21    1    1    2  506  504  0.58580520217E+02 -0.10498829974E+03 -0.37585606733E+01  0.12028444293E+03  0.00000000000E+00 0. -1.
<scales pt_clust_3="39.65295" pt_clust_4="41.41319" pt_clust_5="39.65295" pt_clust_6="121.77193"></scales>
<clustering>
<clus scale="   41.413">  2  4  1 -1</clus>
<clus scale="   39.653">  3  5 -1 -1</clus>
<clus scale="  121.772">  1  6  2 -1</clus>
<clus scale="  121.772">  1  3  2 -1</clus>
</clustering>
</event>
<event>
 6    0  0.5563122E+002  0.9772512E+02  0.7546771E-02  0.1285154E+00
         21   -1    0    0  506  501  0.00000000000E+00  0.00000000000E+00  0.10621130924E+03  0.10621130924E+03  0.00000000000E+00 0. -1.
         21   -1    0    0  503  502 -0.00000000000E+00 -0.00000000000E+00 -0.35176493053E+03  0.35176493053E+03  0.00000000000E+00 0.  1.
         21    1    1    2  503  505 -0.26259828515E+02  0.48315964708E+02 -0.10796032587E+03  0.12115875124E+03  0.00000000000E+00 0.  1.
         21    1    1    2  504  502 -0.33810538763E+01 -0.74264558286E+02 -0.13888234926E+03  0.15752765814E+03  0.00000000000E+00 0.  1.
         21    1    1    2  505  501 -0.10963402502E+02  0.68212648274E+02 -0.62144781517E+02  0.92925429506E+02  0.00000000000E+00 0.  1.
         21    1    1    2  506  504  0.40604284893E+02 -0.42264054697E+02  0.63433835368E+02  0.86364400887E+02  0.00000000000E+00 0. -1.
<scales pt_clust_3="39.21260" pt_clust_4="87.28342" pt_clust_5="39.21260" pt_clust_6="58.60852"></scales>
<clustering>
<clus scale="   39.213">  3  5 -1 -1</clus>
<clus scale="   58.609">  1  6  2 -1</clus>
<clus scale="   87.283">  2  4  1 -1</clus>
<clus scale="   58.609">  1  3  2 -1</clus>
</clustering>
</event>
<event>
 6    0  0.5563122E+002  0.1149574E+03  0.7546771E-02  0.1251656E+00
         21   -1    0    0  502  501  0.00000000000E+00  0.00000000000E+00  0.12152784036E+03  0.12152784036E+03  0.00000000000E+00 0. -1.
         21   -1    0    0  505  502 -0.00000000000E+00 -0.00000000000E+00 -0.16159986936E+04  0.16159986936E+04  0.00000000000E+00 0.  1.
         21    1    1    2  503  504 -0.39028647181E+02 -0.70505717722E+02 -0.13816507308E+03  0.15994961379E+03  0.00000000000E+00 0. -1.
         21    1    1    2  504  506 -0.18531611133E+02 -0.50677236786E+02 -0.36423004665E+02  0.65101752728E+02  0.00000000000E+00 0. -1.
         21    1    1    2  505  503  0.61509883869E+02  0.18376663393E+02 -0.13877439291E+04  0.13892279800E+04  0.00000000000E+00 0.  1.
         21    1    1    2  506  501 -0.39496255555E+01  0.10280629112E+03  0.67861153642E+02  0.12324718743E+03  0.00000000000E+00 0. -1.
<scales pt_clust_3="38.10594" pt_clust_4="38.10594" pt_clust_5="64.19632" pt_clust_6="105.10266"></scales>
<clustering>
<clus scale="   38.106">  3  4 -1 -1</clus>
<clus scale="   64.196">  2  5  1 -1</clus>
<clus scale="  105.103">  1  6  2 -1</clus>
<clus scale="  105.103">  1  3  2 -1</clus>
</clustering>
</event>
<event>
 6    0  0.5563122E+002  0.9632398E+02  0.7546771E-02  0.1288222E+00
         21   -1    0    0  503  501  0.00000000000E+00  0.00000000000E+00  0.22187596307E+03  0.22187596307E+03  0.00000000000E+00 0. -1.
         21   -1    0    0  504  502 -0.00000000000E+00 -0.00000000000E+00 -0.49234507795E+03  0.49234507795E+03  0.00000000000E+00 0. -1.
         21    1    1    2  503  506 -0.12253185331E+02  0.95482022284E+02  0.18721133540E+03  0.21051138029E+03  0.00000000000E+00 0. -1.
         21    1    1    2  504  501 -0.14958938815E+02  0.34719711087E+02 -0.39350179017E+02  0.54567983077E+02  0.00000000000E+00 0. -1.
         21    1    1    2  505  502  0.97848350270E+01 -0.34483200209E+02 -0.26592091600E+03  0.26832586096E+03  0.00000000000E+00 0. -1.
         21    1    1    2  506  505  0.17427289118E+02 -0.95718533162E+02 -0.15240935526E+03  0.18081581669E+03  0.00000000000E+00 0. -1.
<scales pt_clust_3="14000.00000" pt_clust_4="30.41037" pt_clust_5="35.84458" pt_clust_6="96.32398"></scales>
<clustering>
<clus scale="   35.845">  2  5  1 -1</clus>
<clus scale="   30.410">  2  4  1 -1</clus>
<clus scale="   96.324">  2  6  1 -1</clus>
<clus scale="   96.324">  1  3  2 -1</clus>
</clustering>
</event>
<event>
 6    0  0.5563122E+002  0.1568980E+03  0.7546771E-02  0.1192244E+00
         21   -1    0    0  504  501  0.00000000000E+00  0.00000000000E+00  0.20606853698E+03  0.20606853698E+03  0.00000000000E+00 0. -1.
         21   -1    0    0  505  502 -0.00000000000E+00 -0.00000000000E+00 -0.30098753209E+03  0.30098753209E+03  0.00000000000E+00 0. -1.
         21    1    1    2  503  502  0.50781862202E+02  0.37972594016E+02  0.15985532126E+01  0.63429258213E+02  0.00000000000E+00 0.  1.
         21    1    1    2  504  503  0.10475950732E+03  0.37744317609E+02  0.90579336701E+02  0.14354025262E+03  0.00000000000E+00 0. -1.
         21    1    1    2  505  506 -0.13579654973E+03 -0.26824207350E+02 -0.20237798424E+03  0.24518786578E+03  0.00000000000E+00 0. -1.
         21    1    1    2  506  501 -0.19744819786E+02 -0.48892704275E+02  0.15281099222E+02  0.54898692454E+02  0.00000000000E+00 0.  1.
<scales pt_clust_3="50.13217" pt_clust_4="50.13217" pt_clust_5="142.13914" pt_clust_6="52.72907"></scales>
<clustering>
<clus scale="   50.132">  3  4 -1 -1</clus>
<clus scale="   52.729">  1  6  2 -1</clus>
<clus scale="  142.139">  2  5  1 -1</clus>
<clus scale="   52.729">  1  3  2 -1</clus>
</clustering>
</event>
<event>
 6    0  0.5563122E+002  0.1132539E+03  0.7546771E-02  0.1254660E+00
         21   -1    0    0  503  501  0.00000000000E+00  0.00000000000E+00  0.46083739678E+03  0.46083739678E+03  0.00000000000E+00 0.  1.
         21   -1    0    0  504  502 -0.00000000000E+00 -0.00000000000E+00 -0.18545938747E+03  0.18545938747E+03  0.00000000000E+00 0.  1.
         21    1    1    2  503  505 -0.74622489253E+02 -0.17599515388E+02  0.22712601221E+03  0.23971750930E+03  0.00000000000E+00 0.  1.
         21    1    1    2  504  506 -0.44792317814E+02 -0.10257295101E+03 -0.11167892358E+02  0.11248237121E+03  0.00000000000E+00 0.  1.
         21    1    1    2  505  502 -0.32000385733E+02  0.12531534471E+03 -0.50789779187E+01  0.12943630219E+03  0.00000000000E+00 0.  1.
         21    1    1    2  506  501  0.15141519280E+03 -0.51428783213E+01  0.64498867384E+02  0.16466060155E+03  0.00000000000E+00 0.  1.
<scales pt_clust_3="76.66980" pt_clust_4="113.25392" pt_clust_5="14000.00000" pt_clust_6="114.67687"></scales>
<clustering>
<clus scale="   76.670">  1  3  2 -1</clus>
<clus scale="  114.677">  1  6  2 -1</clus>
<clus scale="  113.254">  2  4  1 -1</clus>
<clus scale="   76.670">  1  3  2 -1</clus>
</clustering>
</event>
<event>
 6    0  0.5563122E+002  0.2112489E+03  0.7546771E-02  0.1140581E+00
         21   -1    0    0  506  501  0.00000000000E+00  0.00000000000E+00  0.10814914264E+04  0.10814914264E+04  0.00000000000E+00 0. -1.
         21   -1    0    0  505  502 -0.00000000000E+00 -0.00000000000E+00 -0.56984838498E+02  0.56984838498E+02  0.00000000000E+00 0.  1.
         21    1    1    2  503  501  0.13517920352E+03  0.13323992633E+03  0.36847230678E+03  0.41448538683E+03  0.00000000000E+00 0. -1.
         21    1    1    2  504  503 -0.35144702874E+02 -0.60540309908E+02  0.11255230013E+03  0.13254546212E+03  0.00000000000E+00 0.  1.
         21    1    1    2  505  504 -0.13881943181E+03 -0.66316005876E+02  0.23767060373E+03  0.28311828475E+03  0.00000000000E+00 0.  1.
         21    1    1    2  506  502  0.38784931155E+02 -0.63836105485E+01  0.30581137727E+03  0.30832713120E+03  0.00000000000E+00 0. -1.
<scales pt_clust_3="202.14324" pt_clust_4="42.29150" pt_clust_5="42.29150" pt_clust_6="39.30676"></scales>
<clustering>
<clus scale="   39.307">  1  6  2 -1</clus>
<clus scale="   42.291">  4  5 -1 -1</clus>
<clus scale="  202.143">  1  3  2 -1</clus>
<clus scale="   39.307">  1  3  2 -1</clus>
</clustering>
</event>
<event>
 6    0  0.5563122E+002  0.2047057E+03  0.7546771E-02  0.1145828E+00
         21   -1    0    0  506  501  0.00000000000E+00  0.00000000000E+00  0.11467047096E+03  0.11467047096E+03  0.00000000000E+00 0. -1.
         21   -1    0    0  503  502 -0.00000000000E+00 -0.00000000000E+00 -0.81411319275E+03  0.81411319275E+03  0.00000000000E+00 0.  1.
         21    1    1    2  503  501 -0.18628085543E+03 -0.45887004046E+02 -0.61101099674E+01  0.19194662717E+03  0.00000000000E+00 0. -1.
         21    1    1    2  504  502  0.11844690139E+02 -0.36242521473E+02 -0.17481933997E+03  0.17892908839E+03  0.00000000000E+00 0. -1.
         21    1    1    2  505  504  0.97275705683E+02  0.52160506092E+02 -0.38768906452E+03  0.40309563637E+03  0.00000000000E+00 0.  1.
         21    1    1    2  506  505  0.77160459608E+02  0.29969019427E+02 -0.13082420734E+03  0.15481231178E+03  0.00000000000E+00 0.  1.
<scales pt_clust_3="191.50039" pt_clust_4="38.12895" pt_clust_5="63.09631" pt_clust_6="63.09631"></scales>
<clustering>
<clus scale="   38.129">  2  4  1 -1</clus>
<clus scale="   63.096">  5  6 -1 -1</clus>
<clus scale="  191.500">  1  3  2 -1</clus>
<clus scale="  191.500">  1  3  2 -1</clus>
</clustering>
</event>
<event>
 6    0  0.5563122E+002  0.1631833E+03  0.7546771E-02  0.1185149E+00
         21   -1    0    0  505  501  0.00000000000E+00  0.00000000000E+00  0.97802035252E+03  0.97802035252E+03  0.00000000000E+00 0.  1.
         21   -1    0    0  503  502 -0.00000000000E+00 -0.00000000000E+00 -0.14515960665E+03  0.14515960665E+03  0.00000000000E+00 0.  1.
         21    1    1    2  503  506  0.34458398366E+02 -0.22558936722E+01 -0.18819291642E+02  0.39327293476E+02  0.00000000000E+00 0.  1.
         21    1    1    2  504  502 -0.58819073097E+02 -0.10882455562E+02  0.53101287757E+02  0.79986611132E+02  0.00000000000E+00 0.  1.
         21    1    1    2  505  504 -0.13982202692E+03  0.29286806082E+02 -0.40688602049E+02  0.14853780178E+03  0.00000000000E+00 0.  1.
         21    1    1    2  506  501  0.16418270165E+03 -0.16148456847E+02  0.83926735181E+03  0.85532825278E+03  0.00000000000E+00 0.  1.
<scales pt_clust_3="34.53216" pt_clust_4="55.94982" pt_clust_5="163.18331" pt_clust_6="14000.00000"></scales>
<clustering>
<clus scale="   34.532">  2  3  1 -1</clus>
<clus scale="   55.950">  2  4  1 -1</clus>
<clus scale="  163.183">  2  5  1 -1</clus>
<clus scale="  163.183">  1  3  2 -1</clus>
</clustering>
</event>
<event>
 6    0  0.5563122E+002  0.6653587E+02  0.7546771E-02  0.1372286E+00
         21   -1    0    0  506  501  0.00000000000E+00  0.00000000000E+00  0.14021340562E+03  0.14021340562E+03  0.00000000000E+00 0.  1.
         21   -1    0    0  505  502 -0.00000000000E+00 -0.00000000000E+00 -0.36802460723E+03  0.36802460723E+03  0.00000000000E+00 0.  1.
         21    1    1    2  503  504  0.57086920247E+02  0.35779462746E+02 -0.42389747487E+02  0.79598851183E+02  0.00000000000E+00 0.  1.
         21    1    1    2  504  501 -0.58578911745E+02  0.26015626630E+02  0.94754515044E+02  0.11439720211E+03  0.00000000000E+00 0.  1.
         21    1    1    2  505  503  0.43787218979E+01  0.35444625213E+02 -0.13381904941E+03  0.13850282541E+03  0.00000000000E+00 0. -1.
         21    1    1    2  506  502 -0.28867303999E+01 -0.97239714590E+02 -0.14635691976E+03  0.17573913414E+03  0.00000000000E+00 0.  1.
<scales pt_clust_3="14000.00000" pt_clust_4="64.55214" pt_clust_5="35.71407" pt_clust_6="66.53587"></scales>
<clustering>
<clus scale="   35.714">  2  5  1 -1</clus>
<clus scale="   64.552">  1  4  2 -1</clus>
<clus scale="   66.536">  2  6  1 -1</clus>
<clus scale="   64.552">  1  3  2 -1</clus>
</clustering>
</event>
<event>
 6    0  0.5563122E+002  0.7175990E+02  0.7546771E-02  0.1354209E+00
         21   -1    0    0  506  501  0.00000000000E+00  0.00000000000E+00  0.32075674948E+03  0.32075674948E+03  0.00000000000E+00 0.  1.
         21   -1    0    0  504  502 -0.00000000000E+00 -0.00000000000E+00 -0.87538829595E+03  0.87538829595E+03  0.00000000000E+00 0.  1.
         21    1    1    2  503  505  0.67344654180E+02 -0.80835239791E+02  0.15144085552E+02  0.10629666865E+03  0.00000000000E+00 0.  1.
         21    1    1    2  504  501  0.36650414105E+02 -0.56951242268E+01 -0.26397741820E+02  0.45525026823E+02  0.00000000000E+00 0.  1.
         21    1    1    2  505  502 -0.77888968105E+02  0.22973483287E+02 -0.78700964821E+03  0.79118813102E+03  0.00000000000E+00 0.  1.
         21    1    1    2  506  503 -0.26106100181E+02  0.63556880731E+02  0.24363175801E+03  0.25313521894E+03  0.00000000000E+00 0.  1.
<scales pt_clust_3="71.75990" pt_clust_4="37.09026" pt_clust_5="46.87364" pt_clust_6="14000.00000"></scales>
<clustering>
<clus scale="   37.090">  2  4  1 -1</clus>
<clus scale="   46.874">  2  5  1 -1</clus>
<clus scale="   71.760">  2  3  1 -1</clus>
<clus scale="   71.760">  1  3  2 -1</clus>
</clustering>
</event>
<event>
 6    0  0.5563122E+002  0.9765243E+02  0.7546771E-02  0.1285311E+00
         21   -1    0    0  506  501  0.00000000000E+00  0.00000000000E+00  0.43963001517E+02  0.43963001517E+02  0.00000000000E+00 0. -1.
         21   -1    0    0  505  502 -0.00000000000E+00 -0.00000000000E+00 -0.94620205633E+03  0.94620205633E+03  0.00000000000E+00 0.  1.
         21    1    1    2  503  504 -0.81408583394E+02 -0.49681620188E+02 -0.42565545733E+03  0.43620888252E+03  0.00000000000E+00 0.  1.
         21    1    1    2  504  502 -0.86126616142E+01  0.30922610077E+02 -0.32545785754E+03  0.32703700522E+03  0.00000000000E+00 0.  1.
         21    1    1    2  505  501 -0.38635293781E+02  0.19425469829E+01 -0.44616608853E+02  0.59051682448E+02  0.00000000000E+00 0. -1.
         21    1    1    2  506  503  0.12865653879E+03  0.16816463128E+02 -0.10650913109E+03  0.16786748766E+03  0.00000000000E+00 0. -1.
<scales pt_clust_3="97.65243" pt_clust_4="32.09962" pt_clust_5="39.61502" pt_clust_6="14000.00000"></scales>
<clustering>
<clus scale="   32.100">  2  4  1 -1</clus>
<clus scale="   39.615">  1  5  2 -1</clus>
<clus scale="   97.652">  2  3  1 -1</clus>
<clus scale="   39.615">  1  3  2 -1</clus>
</clustering>
</event>
<event>
 6    0  0.5563122E+002  0.1242366E+03  0.7546771E-02  0.1236267E+00
         21   -1    0    0  502  501  0.00000000000E+00  0.00000000000E+00  0.32228864601E+03  0.32228864601E+03  0.00000000000E+00 0. -1.
         21   -1    0    0  506  502 -0.00000000000E+00 -0.00000000000E+00 -0.25988434516E+03  0.25988434516E+03  0.00000000000E+00 0. -1.
         21    1    1    2  503  501  0.15362313265E+02  0.35328825957E+02  0.22870657220E+03  0.23192848634E+03  0.00000000000E+00 0. -1.
         21    1    1    2  504  505 -0.93291216721E+02 -0.84885039311E+02 -0.10045217155E+03  0.16124316973E+03  0.00000000000E+00 0. -1.
         21    1    1    2  505  503  0.71691938170E+02  0.81949069945E+02  0.69212963416E+01  0.10910219249E+03  0.00000000000E+00 0. -1.
         21    1    1    2  506  504  0.62369652861E+01 -0.32392856591E+02 -0.72771396130E+02  0.79899142604E+02  0.00000000000E+00 0. -1.
<scales pt_clust_3="38.28582" pt_clust_4="14000.00000" pt_clust_5="124.23660" pt_clust_6="32.98783"></scales>
<clustering>
<clus scale="   32.988">  2  6  1 -1</clus>
<clus scale="   38.286">  1  3  2 -1</clus>
<clus scale="  124.237">  1  5  2 -1</clus>
<clus scale="   38.286">  1  3  2 -1</clus>
</clustering>
</event>
<event>
 6    0  0.5563122E+002  0.1778140E+03  0.7546771E-02  0.1169936E+00
         21   -1    0    0  504  501  0.00000000000E+00  0.00000000000E+00  0.11369399486E+04  0.11369399486E+04  0.00000000000E+00 0. -1.
         21   -1    0    0  506  502 -0.00000000000E+00 -0.00000000000E+00 -0.20624494835E+03  0.20624494835E+03  0.00000000000E+00 0. -1.
         21    1    1    2  503  502  0.11354902916E+03  0.17808874309E+03 -0.72721572217E+02  0.22337728063E+03  0.00000000000E+00 0. -1.
         21    1    1    2  504  503 -0.11105831078E+03 -0.48881149990E+02  0.88715197373E+03  0.89541160352E+03  0.00000000000E+00 0. -1.
         21    1    1    2  505  501 -0.31673257155E+02 -0.64556266391E+02  0.13328953561E+03  0.15144902460E+03  0.00000000000E+00 0.  1.
         21    1    1    2  506  505  0.29182538782E+02 -0.64651326710E+02 -0.17024936855E+02  0.72946988218E+02  0.00000000000E+00 0.  1.
<scales pt_clust_3="177.81400" pt_clust_4="14000.00000" pt_clust_5="74.51556" pt_clust_6="70.93247"></scales>
<clustering>
<clus scale="   70.932">  2  6  1 -1</clus>
<clus scale="   74.516">  1  5  2 -1</clus>
<clus scale="  177.814">  2  3  1 -1</clus>
<clus scale="   74.516">  1  3  2 -1</clus>
</clustering>
</event>
<event>
 6    0  0.5563122E+002  0.8923135E+02  0.7546771E-02  0.1304724E+00
         21   -1    0    0  503  501  0.00000000000E+00  0.00000000000E+00  0.51417356571E+02  0.51417356571E+02  0.00000000000E+00 0. -1.
         21   -1    0    0  504  502 -0.00000000000E+00 -0.00000000000E+00 -0.97594379531E+03  0.97594379531E+03  0.00000000000E+00 0. -1.
         21    1    1    2  503  506 -0.30854075853E+01  0.58823999959E+02 -0.15631286855E+02  0.60943579152E+02  0.00000000000E+00 0. -1.
         21    1    1    2  504  505  0.71400734734E+02  0.24070911458E+02 -0.51014598072E+03  0.51568051674E+03  0.00000000000E+00 0. -1.
         21    1    1    2  505  501 -0.10753617257E+03  0.94068211100E+01 -0.17624541315E+03  0.20667598397E+03  0.00000000000E+00 0. -1.
         21    1    1    2  506  502  0.39220845425E+02 -0.92301732527E+02 -0.22250375801E+03  0.24406107201E+03  0.00000000000E+00 0. -1.
<scales pt_clust_3="58.90486" pt_clust_4="77.06928" pt_clust_5="14000.00000" pt_clust_6="89.23135"></scales>
<clustering>
<clus scale="   58.905">  1  3  2 -1</clus>
<clus scale="   77.069">  2  4  1 -1</clus>
<clus scale="   89.231">  1  6  2 -1</clus>
<clus scale="   58.905">  1  3  2 -1</clus>
</clustering>
</event>
<event>
 6    0  0.5563122E+002  0.9350116E+02  0.7546771E-02  0.1294588E+00
         21   -1    0    0  505  501  0.00000000000E+00  0.00000000000E+00  0.15462405886E+02  0.15462405886E+02  0.00000000000E+00 0. -1.
         21   -1    0    0  506  502 -0.00000000000E+00 -0.00000000000E+00 -0.29439621922E+04  0.29439621922E+04  0.00000000000E+00 0. -1.
         21    1    1    2  503  501  0.10365533553E+02 -0.49506650368E+02 -0.70861004780E+02  0.87061097598E+02  0.00000000000E+00 0. -1.
         21    1    1    2  504  502 -0.33718500625E+02 -0.19856591330E+02 -0.29556734061E+03  0.29814639749E+03  0.00000000000E+00 0. -1.
         21    1    1    2  505  504 -0.29990110840E+02  0.12945538273E+03 -0.85585333590E+03  0.86610798139E+03  0.00000000000E+00 0. -1.
         21    1    1    2  506  503  0.53343077912E+02 -0.60092141034E+02 -0.17062181050E+04  0.17081091216E+04  0.00000000000E+00 0. -1.
<scales pt_clust_3="50.96577" pt_clust_4="39.13083" pt_clust_5="93.50116" pt_clust_6="14000.00000"></scales>
<clustering>
<clus scale="   39.131">  2  4  1 -1</clus>
<clus scale="   50.966">  1  3  2 -1</clus>
<clus scale="   93.501">  1  5  2 -1</clus>
<clus scale="   50.966">  1  3  2 -1</clus>
</clustering>
</event>
<event>
 6    0  0.5563122E+002  0.1270365E+03  0.7546771E-02  0.1231921E+00
         21   -1    0    0  505  501  0.00000000000E+00  0.00000000000E+00  0.29433013374E+03  0.29433013374E+03  0.00000000000E+00 0. -1.
         21   -1    0    0  503  502 -0.00000000000E+00 -0.00000000000E+00 -0.92997763357E+02  0.92997763357E+02  0.00000000000E+00 0. -1.
         21    1    1    2  503  506  0.11836459236E+02  0.65462849075E+02 -0.18686275288E+02  0.69098938200E+02  0.00000000000E+00 0. -1.
         21    1    1    2  504  501 -0.14718365006E+01 -0.12312698027E+03  0.18086664342E+03  0.21880393570E+03  0.00000000000E+00 0. -1.
         21    1    1    2  505  502 -0.39720916057E+02  0.22897654630E+02  0.21136435211E+02  0.50485667802E+02  0.00000000000E+00 0. -1.
         21    1    1    2  506  504  0.29356293322E+02  0.34766476569E+02  0.18015567033E+02  0.48939355391E+02  0.00000000000E+00 0. -1.
<scales pt_clust_3="38.70202" pt_clust_4="118.10351" pt_clust_5="45.84816" pt_clust_6="38.70202"></scales>
<clustering>
<clus scale="   38.702">  3  6 -1 -1</clus>
<clus scale="   45.848">  2  5  1 -1</clus>
<clus scale="  118.104">  1  4  2 -1</clus>
<clus scale="  118.104">  1  3  2 -1</clus>
</clustering>
</event>
<event>
 6    0  0.5563122E+002  0.1205939E+03  0.7546771E-02  0.1242121E+00
         21   -1    0    0  503  501  0.00000000000E+00  0.00000000000E+00  0.16971829946E+03  0.16971829946E+03  0.00000000000E+00 0.  1.
         21   -1    0    0  504  502 -0.00000000000E+00 -0.00000000000E+00 -0.32341052199E+03  0.32341052199E+03  0.00000000000E+00 0.  1.
         21    1    1    2  503  506  0.47537750796E+02  0.69555768543E+02  0.53946833676E+02  0.10004050956E+03  0.00000000000E+00 0.  1.
         21    1    1    2  504  505  0.11536915949E+02 -0.27744674357E+02 -0.11870433192E+03  0.12244829848E+03  0.00000000000E+00 0.  1.
         21    1    1    2  505  501 -0.12067404255E+03  0.53229824741E+02 -0.93633571169E+01  0.13222447294E+03  0.00000000000E+00 0.  1.
         21    1    1    2  506  502  0.61599375805E+02 -0.95040918927E+02 -0.79571367178E+02  0.13841554047E+03  0.00000000000E+00 0.  1.
<scales pt_clust_3="82.43535" pt_clust_4="30.04775" pt_clust_5="14000.00000" pt_clust_6="120.59388"></scales>
<clustering>
<clus scale="   30.048">  2  4  1 -1</clus>
<clus scale="   82.435">  1  3  2 -1</clus>
<clus scale="  120.594">  2  6  1 -1</clus>
<clus scale="   82.435">  1  3  2 -1</clus>
</clustering>
</event>
<event>
 6    0  0.5563122E+002  0.9427169E+02  0.7546771E-02  0.1292825E+00
         21   -1    0    0  504  501  0.00000000000E+00  0.00000000000E+00  0.12508367032E+03  0.12508367032E+03  0.00000000000E+00 0. -1.
         21   -1    0    0  505  502 -0.00000000000E+00 -0.00000000000E+00 -0.42190878103E+03  0.42190878103E+03  0.00000000000E+00 0. -1.
         21    1    1    2  503  502  0.45650910297E+02  0.81611295050E+02 -0.28576552542E+03  0.30067647831E+03  0.00000000000E+00 0.  1.
         21    1    1    2  504  503  0.43107726093E+02  0.31887251450E+02 -0.14512834230E+01  0.53639342628E+02  0.00000000000E+00 0. -1.
         21    1    1    2  505  506 -0.32354602876E+02  0.68230064726E+01 -0.44354081458E+02  0.55323216525E+02  0.00000000000E+00 0.  1.
         21    1    1    2  506  501 -0.56404033514E+02 -0.12032155297E+03  0.34745779596E+02  0.13735341389E+03  0.00000000000E+00 0. -1.
<scales pt_clust_3="14000.00000" pt_clust_4="52.02661" pt_clust_5="33.06620" pt_clust_6="94.27169"></scales>
<clustering>
<clus scale="   33.066">  2  5  1 -1</clus>
<clus scale="   52.027">  1  4  2 -1</clus>
<clus scale="   94.272">  1  6  2 -1</clus>
<clus scale="   52.027">  1  3  2 -1</clus>
</clustering>
</event>
<event>
 6    0  0.5563122E+002  0.1006111E+03  0.7546771E-02  0.1279016E+00
         21   -1    0    0  505  501  0.00000000000E+00  0.00000000000E+00  0.20853546737E+03  0.20853546737E+03  0.00000000000E+00 0. -1.
         21   -1    0    0  506  502 -0.00000000000E+00 -0.00000000000E+00 -0.24996870994E+03  0.24996870994E+03  0.00000000000E+00 0.  1.
         21    1    1    2  503  502  0.49184325270E+02  0.35559477846E+01 -0.56297065331E+02  0.74840511635E+02  0.00000000000E+00 0.  1.
         21    1    1    2  504  503 -0.96898793491E+02  0.10288001600E+03  0.44934708280E+02  0.14829970290E+03  0.00000000000E+00 0. -1.
         21    1    1    2  505  504  0.58573226458E+01 -0.51298202039E+02  0.85946751253E+02  0.10026294336E+03  0.00000000000E+00 0. -1.
         21    1    1    2  506  501  0.41857145576E+02 -0.55137761743E+02 -0.11601763677E+03  0.13510101942E+03  0.00000000000E+00 0.  1.
<scales pt_clust_3="49.31270" pt_clust_4="14000.00000" pt_clust_5="51.74633" pt_clust_6="100.61111"></scales>
<clustering>
<clus scale="   49.313">  2  3  1 -1</clus>
<clus scale="   51.746">  1  5  2 -1</clus>
<clus scale="  100.611">  2  6  1 -1</clus>
<clus scale="   51.746">  1  3  2 -1</clus>
</clustering>
</event>
<event>
 6    0  0.5563122E+002  0.1067981E+03  0.7546771E-02  0.1266617E+00
         21   -1    0    0  503  501  0.00000000000E+00  0.00000000000E+00  0.32365124229E+04  0.32365124229E+04  0.00000000000E+00 0. -1.
         21   -1    0    0  506  502 -0.00000000000E+00 -0.00000000000E+00 -0.10227080836E+03  0.10227080836E+03  0.00000000000E+00 0.  1.
         21    1    1    2  503  504 -0.71174351479E+02  0.65248070552E+02  0.46905909225E+03  0.47889407079E+03  0.00000000000E+00 0.  1.
         21    1    1    2  504  505 -0.43054300128E+02 -0.10008927752E+03  0.25081580918E+03  0.27345951504E+03  0.00000000000E+00 0.  1.
         21    1    1    2  505  502 -0.71229889978E-01  0.40629859932E+02 -0.79847969080E+02  0.89590673387E+02  0.00000000000E+00 0.  1.
         21    1    1    2  506  501  0.11429988150E+03 -0.57886529587E+01  0.24942146822E+04  0.24968389720E+04  0.00000000000E+00 0. -1.
<scales pt_clust_3="106.79810" pt_clust_4="85.53327" pt_clust_5="40.62992" pt_clust_6="14000.00000"></scales>
<clustering>
<clus scale="   40.630">  2  5  1 -1</clus>
<clus scale="   85.533">  2  4  1 -1</clus>
<clus scale="  106.798">  2  3  1 -1</clus>
<clus scale="  106.798">  1  3  2 -1</clus>
</clustering>
</event>
<event>
 6    0  0.5563122E+002  0.1940978E+03  0.7546771E-02  0.1154816E+00
         21   -1    0    0  504  501  0.00000000000E+00  0.00000000000E+00  0.96005374021E+03  0.96005374021E+03  0.00000000000E+00 0.  1.
         21   -1    0    0  506  502 -0.00000000000E+00 -0.00000000000E+00 -0.17396559811E+03  0.17396559811E+03  0.00000000000E+00 0. -1.
         21    1    1    2  503  502 -0.15245357515E+02 -0.30740304074E+02 -0.49344632771E+02  0.60102246245E+02  0.00000000000E+00 0. -1.
         21    1    1    2  504  503 -0.18968967216E+02  0.18858445328E+03  0.87868894033E+03  0.89889830993E+03  0.00000000000E+00 0.  1.
         21    1    1    2  505  501  0.14700257130E+02 -0.41743989809E+02  0.10673648495E+02  0.45525652297E+02  0.00000000000E+00 0. -1.
         21    1    1    2  506  505  0.19514067601E+02 -0.11610015940E+03 -0.53929813946E+02  0.12949312985E+03  0.00000000000E+00 0. -1.
<scales pt_clust_3="34.31308" pt_clust_4="187.07986" pt_clust_5="31.71152" pt_clust_6="31.71152"></scales>
<clustering>
<clus scale="   31.712">  5  6 -1 -1</clus>
<clus scale="   34.313">  2  3  1 -1</clus>
<clus scale="  187.080">  1  4  2 -1</clus>
<clus scale="  187.080">  1  3  2 -1</clus>
</clustering>
</event>
<event>
 6    0  0.5563122E+002  0.1648663E+03  0.7546771E-02  0.1183310E+00
         21   -1    0    0  504  501  0.00000000000E+00  0.00000000000E+00  0.12278810292E+03  0.12278810292E+03  0.00000000000E+00 0. -1.
         21   -1    0    0  501  502 -0.00000000000E+00 -0.00000000000E+00 -0.52736178012E+03  0.52736178012E+03  0.00000000000E+00 0.  1.
         21    1    1    2  503  505 -0.34032867826E+02 -0.57576753578E+02  0.24299728519E+02  0.71160350274E+02  0.00000000000E+00 0.  1.
         21    1    1    2  504  503 -0.57646258809E+01 -0.10743016640E+03  0.54236119606E+00  0.10758608516E+03  0.00000000000E+00 0. -1.
         21    1    1    2  505  506  0.37150181394E+02  0.92035307175E+02 -0.34874643428E+03  0.36259441414E+03  0.00000000000E+00 0.  1.
         21    1    1    2  506  502  0.26473123126E+01  0.72971612802E+02 -0.80669332638E+02  0.10880903347E+03  0.00000000000E+00 0.  1.
<scales pt_clust_3="39.59658" pt_clust_4="39.59658" pt_clust_5="157.03136" pt_clust_6="73.01962"></scales>
<clustering>
<clus scale="   39.597">  3  4 -1 -1</clus>
<clus scale="   73.020">  2  6  1 -1</clus>
<clus scale="  157.031">  2  5  1 -1</clus>
<clus scale="  164.866">  1  3  2 -1</clus>
</clustering>
</event>
<event>
 6    0  0.5563122E+002  0.1754549E+03  0.7546771E-02  0.1172276E+00
         21   -1    0    0  505  501  0.00000000000E+00  0.00000000000E+00  0.19287297658E+03  0.19287297658E+03  0.00000000000E+00 0. -1.
         21   -1    0    0  506  502 -0.00000000000E+00 -0.00000000000E+00 -0.48705638617E+03  0.48705638617E+03  0.00000000000E+00 0. -1.
         21    1    1    2  503  502  0.78670274111E+02 -0.69498379893E+02 -0.16873298026E+03  0.19872054616E+03  0.00000000000E+00 0. -1.
         21    1    1    2  504  501 -0.13630248923E+03  0.95634098500E+02  0.11258714737E+03  0.20099779880E+03  0.00000000000E+00 0. -1.
         21    1    1    2  505  503  0.63931997687E+02 -0.57433893406E+02 -0.74964714451E+02  0.11404236429E+03  0.00000000000E+00 0. -1.
         21    1    1    2  506  504 -0.62997825632E+01  0.31298174799E+02 -0.16307286225E+03  0.16616865351E+03  0.00000000000E+00 0. -1.
<scales pt_clust_3="41.38332" pt_clust_4="169.70436" pt_clust_5="41.38332" pt_clust_6="31.92590"></scales>
<clustering>
<clus scale="   31.926">  2  6  1 -1</clus>
<clus scale="   41.383">  3  5 -1 -1</clus>
<clus scale="  169.704">  1  4  2 -1</clus>
<clus scale="  169.704">  1  3  2 -1</clus>
</clustering>
</event>
<event>
 6    0  0.5563122E+002  0.1159694E+03  0.7546771E-02  0.1249898E+00
         21   -1    0    0  506  501  0.00000000000E+00  0.00000000000E+00  0.61506649721E+03  0.61506649721E+03  0.00000000000E+00 0. -1.
         21   -1    0    0  504  502 -0.00000000000E+00 -0.00000000000E+00 -0.72414356157E+03  0.72414356157E+03  0.00000000000E+00 0. -1.
         21    1    1    2  503  502  0.37601937743E+02  0.33569437531E+02 -0.39542685544E+02  0.64065878892E+02  0.00000000000E+00 0.  1.
         21    1    1    2  504  505 -0.54930108296E+02  0.79688193201E+02 -0.64725152763E+03  0.65444790851E+03  0.00000000000E+00 0. -1.
         21    1    1    2  505  501 -0.13792016278E+02  0.36876248546E+02  0.30749837140E+03  0.31000858994E+03  0.00000000000E+00 0. -1.
         21    1    1    2  506  503  0.31120186832E+02 -0.15013387928E+03  0.27021877741E+03  0.31068768144E+03  0.00000000000E+00 0. -1.
<scales pt_clust_3="50.99886" pt_clust_4="14000.00000" pt_clust_5="39.37102" pt_clust_6="115.96943"></scales>
<clustering>
<clus scale="   39.371">  1  5  2 -1</clus>
<clus scale="   50.999">  2  3  1 -1</clus>
<clus scale="  115.969">  1  6  2 -1</clus>
<clus scale="   39.371">  1  3  2 -1</clus>
</clustering>
</event>
<event>
 6    0  0.5563122E+002  0.9319374E+02  0.7546771E-02  0.1295297E+00
         21   -1    0    0  504  501  0.00000000000E+00  0.00000000000E+00  0.44355411795E+03  0.44355411795E+03  0.00000000000E+00 0. -1.
         21   -1    0    0  503  502 -0.00000000000E+00 -0.00000000000E+00 -0.16852873120E+03  0.16852873120E+03  0.00000000000E+00 0. -1.
         21    1    1    2  503  506  0.12367861862E+02  0.27340313063E+02  0.14600020048E+02  0.33370905154E+02  0.00000000000E+00 0. -1.
         21    1    1    2  504  505 -0.75314400874E+02 -0.12144095344E+03  0.19588968409E+03  0.24247253965E+03  0.00000000000E+00 0. -1.
         21    1    1    2  505  502  0.11390299225E+02  0.36321171468E+02 -0.12543957955E+03  0.13108796486E+03  0.00000000000E+00 0. -1.
         21    1    1    2  506  501  0.51556239786E+02  0.57779468908E+02  0.18997526217E+03  0.20515143949E+03  0.00000000000E+00 0.  1.
<scales pt_clust_3="30.00761" pt_clust_4="93.19374" pt_clust_5="62.14224" pt_clust_6="14000.00000"></scales>
<clustering>
<clus scale="   30.008">  2  3  1 -1</clus>
<clus scale="   62.142">  2  5  1 -1</clus>
<clus scale="   93.194">  2  4  1 -1</clus>
<clus scale="   93.194">  1  3  2 -1</clus>
</clustering>
</event>
<event>
 6    0  0.5563122E+002  0.6911265E+02  0.7546771E-02  0.1363137E+00
         21   -1    0    0  504  501  0.00000000000E+00  0.00000000000E+00  0.35572468946E+02  0.35572468946E+02  0.00000000000E+00 0.  1.
         21   -1    0    0  506  502 -0.00000000000E+00 -0.00000000000E+00 -0.88740966118E+03  0.88740966118E+03  0.00000000000E+00 0.  1.
         21    1    1    2  503  502  0.13959580823E+02  0.51916869229E+02 -0.50385451527E+03  0.50671451900E+03  0.00000000000E+00 0.  1.
         21    1    1    2  504  503  0.29068890455E+02  0.83316070957E+01 -0.58493327014E+02  0.65847440149E+02  0.00000000000E+00 0.  1.
         21    1    1    2  505  501 -0.26133806576E+02  0.50562238431E+02 -0.23131620889E+02  0.61437673183E+02  0.00000000000E+00 0.  1.
         21    1    1    2  506  505 -0.16894664702E+02 -0.11081071476E+03 -0.26635772906E+03  0.28898249780E+03  0.00000000000E+00 0.  1.
<scales pt_clust_3="54.47239" pt_clust_4="30.23931" pt_clust_5="14000.00000" pt_clust_6="69.11265"></scales>
<clustering>
<clus scale="   30.239">  1  4  2 -1</clus>
<clus scale="   54.472">  2  3  1 -1</clus>
<clus scale="   69.113">  2  6  1 -1</clus>
<clus scale="   30.239">  1  3  2 -1</clus>
</clustering>
</event>
<event>
 6    0  0.5563122E+002  0.1073450E+03  0.7546771E-02  0.1265567E+00
         21   -1    0    0  504  501  0.00000000000E+00  0.00000000000E+00  0.58893493043E+03  0.58893493043E+03  0.00000000000E+00 0. -1.
         21   -1    0    0  505  502 -0.00000000000E+00 -0.00000000000E+00 -0.13941934005E+03  0.13941934005E+03  0.00000000000E+00 0. -1.
         21    1    1    2  503  501 -0.44141904295E+02 -0.10010331934E+03  0.52923648265E+03  0.54042616223E+03  0.00000000000E+00 0. -1.
         21    1    1    2  504  506  0.49490749356E+02  0.10765214364E+02 -0.68573470169E+01  0.51110148896E+02  0.00000000000E+00 0. -1.
         21    1    1    2  505  503  0.21036319623E+02  0.72011955847E+02 -0.73803227028E+02  0.10523860911E+03  0.00000000000E+00 0. -1.
         21    1    1    2  506  502 -0.26385164684E+02  0.17326149133E+02  0.93968177173E+00  0.31579350231E+02  0.00000000000E+00 0. -1.
<scales pt_clust_3="107.34504" pt_clust_4="45.79019" pt_clust_5="14000.00000" pt_clust_6="31.56537"></scales>
<clustering>
<clus scale="   31.565">  2  6  1 -1</clus>
<clus scale="   45.790">  2  4  1 -1</clus>
<clus scale="  107.345">  1  3  2 -1</clus>
<clus scale="  107.345">  1  3  2 -1</clus>
</clustering>
</event>
<event>
 6    0  0.5563122E+002  0.1181723E+03  0.7546771E-02  0.1246143E+00
         21   -1    0    0  502  501  0.00000000000E+00  0.00000000000E+00  0.25603841880E+03  0.25603841880E+03  0.00000000000E+00 0.  1.
         21   -1    0    0  505  502 -0.00000000000E+00 -0.00000000000E+00 -0.24532746662E+03  0.24532746662E+03  0.00000000000E+00 0.  1.
         21    1    1    2  503  504 -0.54047907137E+02 -0.31712523950E+02 -0.10648660318E+03  0.12355669589E+03  0.00000000000E+00 0.  1.
         21    1    1    2  504  506 -0.39547684871E+02 -0.80947495845E+01 -0.17040426863E+02  0.43816897393E+02  0.00000000000E+00 0.  1.
         21    1    1    2  505  503 -0.14885872597E+02  0.35905518775E+02 -0.82718058421E+02  0.91395145770E+02  0.00000000000E+00 0.  1.
         21    1    1    2  506  501  0.10848146460E+03  0.39017547602E+01  0.21695604065E+03  0.24259714637E+03  0.00000000000E+00 0.  1.
<scales pt_clust_3="39.63031" pt_clust_4="39.63031" pt_clust_5="38.86895" pt_clust_6="107.49160"></scales>
<clustering>
<clus scale="   38.869">  2  5  1 -1</clus>
<clus scale="   39.630">  3  4 -1 -1</clus>
<clus scale="  107.492">  1  6  2 -1</clus>
<clus scale="  107.492">  1  3  2 -1</clus>
</clustering>
</event>
<event>
 6    0  0.5563122E+002  0.8727748E+02  0.7546771E-02  0.1309582E+00
         21   -1    0    0  505  501  0.00000000000E+00  0.00000000000E+00  0.10071486171E+04  0.10071486171E+04  0.00000000000E+00 0. -1.
         21   -1    0    0  506  502 -0.00000000000E+00 -0.00000000000E+00 -0.42035478203E+02  0.42035478203E+02  0.00000000000E+00 0. -1.
         21    1    1    2  503  504  0.65493662166E+02 -0.88795429808E+02  0.47807828574E+03  0.49064538664E+03  0.00000000000E+00 0. -1.
         21    1    1    2  504  502  0.29715869554E+02  0.21450528853E+02  0.53240464028E+02  0.64635169230E+02  0.00000000000E+00 0. -1.
         21    1    1    2  505  503 -0.11646707773E+02  0.28356598120E+02  0.39108056681E+03  0.39228019602E+03  0.00000000000E+00 0. -1.
         21    1    1    2  506  501 -0.83562823947E+02  0.38988302835E+02  0.42713822291E+02  0.10162334337E+03  0.00000000000E+00 0. -1.
<scales pt_clust_3="87.27748" pt_clust_4="37.44312" pt_clust_5="30.65522" pt_clust_6="14000.00000"></scales>
<clustering>
<clus scale="   30.655">  1  5  2 -1</clus>
<clus scale="   37.443">  2  4  1 -1</clus>
<clus scale="   87.277">  1  3  2 -1</clus>
<clus scale="   30.655">  1  3  2 -1</clus>
</clustering>
</event>
<event>
 6    0  0.5563122E+002  0.1154870E+03  0.7546771E-02  0.1250733E+00
         21   -1    0    0  506  501  0.00000000000E+00  0.00000000000E+00  0.17233681398E+03  0.17233681398E+03  0.00000000000E+00 0.  1.
         21   -1    0    0  503  502 -0.00000000000E+00 -0.00000000000E+00 -0.88036697997E+03  0.88036697997E+03  0.00000000000E+00 0.  1.
         21    1    1    2  503  505 -0.50942041034E+02 -0.88529492544E+02 -0.73120842571E+03  0.73830774371E+03  0.00000000000E+00 0.  1.
         21    1    1    2  504  501  0.48026436093E+02  0.54884834591E+02 -0.23664473281E+02  0.76673925995E+02  0.00000000000E+00 0.  1.
         21    1    1    2  505  504  0.31362447278E+02  0.70992449328E+02 -0.74519956533E+02  0.10759532928E+03  0.00000000000E+00 0. -1.
         21    1    1    2  506  502 -0.28446842337E+02 -0.37347791375E+02  0.12136268953E+03  0.13012679497E+03  0.00000000000E+00 0.  1.
<scales pt_clust_3="105.68805" pt_clust_4="45.12850" pt_clust_5="45.12850" pt_clust_6="46.94763"></scales>
<clustering>
<clus scale="   45.129">  4  5 -1 -1</clus>
<clus scale="   46.948">  1  6  2 -1</clus>
<clus scale="  105.688">  2  3  1 -1</clus>
<clus scale="   46.948">  1  3  2 -1</clus>
</clustering>
</event>
<event>
 6    0  0.5563122E+002  0.1054023E+03  0.7546771E-02  0.1269329E+00
         21   -1    0    0  505  501  0.00000000000E+00  0.00000000000E+00  0.77394958701E+03  0.77394958701E+03  0.00000000000E+00 0. -1.
         21   -1    0    0  504  502 -0.00000000000E+00 -0.00000000000E+00 -0.25009216508E+03  0.25009216508E+03  0.00000000000E+00 0.  1.
         21    1    1    2  503  502 -0.44156289696E+02  0.49085207196E+02  0.46238520601E+02  0.80604815443E+02  0.00000000000E+00 0.  1.
         21    1    1    2  504  506  0.20146882122E+02 -0.11509424965E+03 -0.21226870279E+03  0.24230267301E+03  0.00000000000E+00 0.  1.
         21    1    1    2  505  503  0.61844219701E+02  0.40323445652E+02  0.51936899197E+03  0.52459016155E+03  0.00000000000E+00 0. -1.
         21    1    1    2  506  501 -0.37834812127E+02  0.25685596805E+02  0.17051861215E+03  0.17654410209E+03  0.00000000000E+00 0. -1.
<scales pt_clust_3="105.40235" pt_clust_4="14000.00000" pt_clust_5="69.01945" pt_clust_6="45.72989"></scales>
<clustering>
<clus scale="   45.730">  1  6  2 -1</clus>
<clus scale="   69.019">  1  5  2 -1</clus>
<clus scale="  105.402">  1  3  2 -1</clus>
<clus scale="   45.730">  1  3  2 -1</clus>
</clustering>
</event>
<event>
 6    0  0.5563122E+002  0.1278407E+03  0.7546771E-02  0.1230695E+00
         21   -1    0    0  503  501  0.00000000000E+00  0.00000000000E+00  0.32459834688E+03  0.32459834688E+03  0.00000000000E+00 0. -1.
         21   -1    0    0  505  502 -0.00000000000E+00 -0.00000000000E+00 -0.23857667999E+03  0.23857667999E+03  0.00000000000E+00 0. -1.
         21    1    1    2  503  502  0.13002038593E+03 -0.91328695238E+02 -0.15919982636E+03  0.22492402283E+03  0.00000000000E+00 0. -1.
         21    1    1    2  504  506 -0.99339491257E+02 -0.14110654764E+02  0.88805792686E+02  0.13399221588E+03  0.00000000000E+00 0. -1.
         21    1    1    2  505  504 -0.43540482845E+01  0.30669110622E+02  0.24355400816E+01  0.31072237420E+02  0.00000000000E+00 0.  1.
         21    1    1    2  506  501 -0.26326846387E+02  0.74770239379E+02  0.15398016048E+03  0.17318655075E+03  0.00000000000E+00 0. -1.
<scales pt_clust_3="127.84067" pt_clust_4="14000.00000" pt_clust_5="30.97664" pt_clust_6="80.57085"></scales>
<clustering>
<clus scale="   30.977">  2  5  1 -1</clus>
<clus scale="   80.571">  1  6  2 -1</clus>
<clus scale="  127.841">  2  3  1 -1</clus>
<clus scale="   80.571">  1  3  2 -1</clus>
</clustering>
</event>
<event>
 6    0  0.5563122E+002  0.1068527E+03  0.7546771E-02  0.1266512E+00
         21   -1    0    0  505  501  0.00000000000E+00  0.00000000000E+00  0.51110291220E+03  0.51110291220E+03  0.00000000000E+00 0.  1.
         21   -1    0    0  503  502 -0.00000000000E+00 -0.00000000000E+00 -0.10647630737E+03  0.10647630737E+03  0.00000000000E+00 0.  1.
         21    1    1    2  503  504 -0.82714675889E+01  0.54905806220E+02  0.11503865957E+02  0.56704529490E+02  0.00000000000E+00 0.  1.
         21    1    1    2  504  501  0.10479573237E+03 -0.68116990672E+01  0.37773178147E+03  0.39205846949E+03  0.00000000000E+00 0.  1.
         21    1    1    2  505  506 -0.11966220478E+03 -0.13420922684E+02  0.30943646792E+02  0.12432487159E+03  0.00000000000E+00 0.  1.
         21    1    1    2  506  502  0.23137940001E+02 -0.34673184469E+02 -0.15552689392E+02  0.44491349002E+02  0.00000000000E+00 0. -1.
<scales pt_clust_3="44.67916" pt_clust_4="106.85266" pt_clust_5="14000.00000" pt_clust_6="41.68446"></scales>
<clustering>
<clus scale="   41.684">  2  6  1 -1</clus>
<clus scale="   44.679">  2  3  1 -1</clus>
<clus scale="  106.853">  1  4  2 -1</clus>
<clus scale="  106.853">  1  3  2 -1</clus>
</clustering>
</event>
<event>
 6    0  0.5563122E+002  0.1695428E+03  0.7546771E-02  0.1178326E+00
         21   -1    0    0  505  501  0.00000000000E+00  0.00000000000E+00  0.27893925861E+03  0.27893925861E+03  0.00000000000E+00 0.  1.
         21   -1    0    0  504  502 -0.00000000000E+00 -0.00000000000E+00 -0.19144835992E+03  0.19144835992E+03  0.00000000000E+00 0.  1.
         21    1    1    2  503  502  0.38686927747E+01  0.49874776296E+02 -0.29830672419E+02  0.58243704478E+02  0.00000000000E+00 0.  1.
         21    1    1    2  504  506  0.22103508960E+02 -0.43093465698E+02 -0.65575701561E+01  0.48873444943E+02  0.00000000000E+00 0. -1.
         21    1    1    2  505  503  0.10652185299E+03  0.68833704772E+02 -0.46033918871E+02  0.13492259175E+03  0.00000000000E+00 0.  1.
         21    1    1    2  506  501 -0.13249405473E+03 -0.75615015370E+02  0.16991306014E+03  0.22834787736E+03  0.00000000000E+00 0.  1.
<scales pt_clust_3="45.63561" pt_clust_4="48.43152" pt_clust_5="45.63561" pt_clust_6="153.18206"></scales>
<clustering>
<clus scale="   45.636">  3  5 -1 -1</clus>
<clus scale="   48.432">  2  4  1 -1</clus>
<clus scale="  153.182">  1  6  2 -1</clus>
<clus scale="  153.182">  1  3  2 -1</clus>
</clustering>
</event>
<event>
 6    0  0.5563122E+002  0.9518681E+02  0.7546771E-02  0.1290756E+00
         21   -1    0    0  505  501  0.00000000000E+00  0.00000000000E+00  0.76704247178E+02  0.76704247178E+02  0.00000000000E+00 0. -1.
         21   -1    0    0  506  502 -0.00000000000E+00 -0.00000000000E+00 -0.43580895283E+03  0.43580895283E+03  0.00000000000E+00 0. -1.
         21    1    1    2  503  502  0.42055122000E+02  0.62235485685E+02 -0.38287706928E+02  0.84307991713E+02  0.00000000000E+00 0. -1.
         21    1    1    2  504  503  0.26238877269E+02 -0.64074791474E+02 -0.50627467543E+02  0.85774110620E+02  0.00000000000E+00 0. -1.
         21    1    1    2  505  504  0.56037846421E+02 -0.23417035167E+01 -0.14263920086E+02  0.57872128206E+02  0.00000000000E+00 0. -1.
         21    1    1    2  506  501 -0.12433184569E+03  0.41810093053E+01 -0.25592561110E+03  0.28455896947E+03  0.00000000000E+00 0. -1.
<scales pt_clust_3="95.18681" pt_clust_4="78.44584" pt_clust_5="56.08675" pt_clust_6="14000.00000"></scales>
<clustering>
<clus scale="   56.087">  1  5  2 -1</clus>
<clus scale="   78.446">  1  4  2 -1</clus>
<clus scale="   95.187">  1  3  2 -1</clus>
<clus scale="   56.087">  1  3  2 -1</clus>
</clustering>
</event>
<event>
 6    0  0.5563122E+002  0.1230474E+03  0.7546771E-02  0.1238153E+00
         21   -1    0    0  503  501  0.00000000000E+00  0.00000000000E+00  0.13415637583E+03  0.13415637583E+03  0.00000000000E+00 0.  1.
         21   -1    0    0  504  502 -0.00000000000E+00 -0.00000000000E+00 -0.10021905359E+04  0.10021905359E+04  0.00000000000E+00 0. -1.
         21    1    1    2  503  506 -0.15802802933E+02  0.29591974933E+02  0.85934007477E+02  0.92250025485E+02  0.00000000000E+00 0.  1.
         21    1    1    2  504  501  0.12967415788E+03  0.25882918824E+02 -0.19029186210E+03  0.23172463289E+03  0.00000000000E+00 0. -1.
         21    1    1    2  505  502 -0.68600698032E+02 -0.11029555055E+03 -0.71380916323E+03  0.72553062358E+03  0.00000000000E+00 0. -1.
         21    1    1    2  506  505 -0.45270656916E+02  0.54820656795E+02 -0.49867142224E+02  0.86841629779E+02  0.00000000000E+00 0. -1.
<scales pt_clust_3="33.54718" pt_clust_4="14000.00000" pt_clust_5="123.04736" pt_clust_6="84.62945"></scales>
<clustering>
<clus scale="   33.547">  1  3  2 -1</clus>
<clus scale="   84.629">  1  6  2 -1</clus>
<clus scale="  123.047">  2  5  1 -1</clus>
<clus scale="   33.547">  1  3  2 -1</clus>
</clustering>
</event>
<event>
 6    0  0.5563122E+002  0.1093750E+03  0.7546771E-02  0.1261732E+00
         21   -1    0    0  505  501  0.00000000000E+00  0.00000000000E+00  0.30767428067E+03  0.30767428067E+03  0.00000000000E+00 0. -1.
         21   -1    0    0  504  502 -0.00000000000E+00 -0.00000000000E+00 -0.12574995325E+03  0.12574995325E+03  0.00000000000E+00 0. -1.
         21    1    1    2  503  501 -0.43969931759E+01 -0.55787636999E+02  0.29542245662E+02  0.63279840942E+02  0.00000000000E+00 0. -1.
         21    1    1    2  504  506  0.73450792025E+01  0.96386062276E+02 -0.42996235447E+02  0.10579650019E+03  0.00000000000E+00 0. -1.
         21    1    1    2  505  502  0.23345083485E+02  0.24397566105E+02  0.19114786160E+03  0.19410754532E+03  0.00000000000E+00 0. -1.
         21    1    1    2  506  503 -0.26293169512E+02 -0.64995991381E+02  0.42304556013E+01  0.70240347474E+02  0.00000000000E+00 0. -1.
<scales pt_clust_3="30.38160" pt_clust_4="103.95393" pt_clust_5="33.76735" pt_clust_6="30.38160"></scales>
<clustering>
<clus scale="   30.382">  3  6 -1 -1</clus>
<clus scale="   33.767">  1  5  2 -1</clus>
<clus scale="  103.954">  2  4  1 -1</clus>
<clus scale="   33.767">  1  3  2 -1</clus>
</clustering>
</event>
<event>
 6    0  0.5563122E+002  0.1265013E+03  0.7546771E-02  0.1232741E+00
         21   -1    0    0  504  501  0.00000000000E+00  0.00000000000E+00  0.57304974742E+03  0.57304974742E+03  0.00000000000E+00 0.  1.
         21   -1    0    0  505  502 -0.00000000000E+00 -0.00000000000E+00 -0.18391447085E+03  0.18391447085E+03  0.00000000000E+00 0.  1.
         21    1    1    2  503  501  0.35632126895E+02  0.74620086048E+02  0.10390111879E+03  0.13279024134E+03  0.00000000000E+00 0.  1.
         21    1    1    2  504  506 -0.11357227198E+03 -0.18714726351E+03  0.36720962864E+03  0.42751101807E+03  0.00000000000E+00 0.  1.
         21    1    1    2  505  503 -0.66554389594E+01  0.86508384920E+02 -0.21253689619E+02  0.89329249698E+02  0.00000000000E+00 0.  1.
         21    1    1    2  506  502  0.84595584048E+02  0.26018792543E+02 -0.60721781242E+02  0.10733370916E+03  0.00000000000E+00 0.  1.
<scales pt_clust_3="82.69103" pt_clust_4="14000.00000" pt_clust_5="126.50130" pt_clust_6="91.42965"></scales>
<clustering>
<clus scale="   82.691">  1  3  2 -1</clus>
<clus scale="   91.430">  2  6  1 -1</clus>
<clus scale="  126.501">  2  5  1 -1</clus>
<clus scale="   82.691">  1  3  2 -1</clus>
</clustering>
</event>
<event>
 6    0  0.5563122E+002  0.7924658E+02  0.7546771E-02  0.1331203E+00
         21   -1    0    0  503  501  0.00000000000E+00  0.00000000000E+00  0.30545554682E+03  0.30545554682E+03  0.00000000000E+00 0. -1.
         21   -1    0    0  506  502 -0.00000000000E+00 -0.00000000000E+00 -0.78789146391E+02  0.78789146391E+02  0.00000000000E+00 0. -1.
         21    1    1    2  503  502 -0.81255824620E+02 -0.19666558563E+02  0.76036368349E+02  0.11300801685E+03  0.00000000000E+00 0. -1.
         21    1    1    2  504  501  0.29853018384E+02  0.10618496888E+02  0.57946867235E+02  0.66043883935E+02  0.00000000000E+00 0. -1.
         21    1    1    2  505  504 -0.21846303805E+02  0.49778241195E+02  0.10714137231E+03  0.12014328091E+03  0.00000000000E+00 0. -1.
         21    1    1    2  506  505  0.73249110042E+02 -0.40730179519E+02 -0.14458207472E+02  0.85049511515E+02  0.00000000000E+00 0. -1.
<scales pt_clust_3="79.24658" pt_clust_4="31.68525" pt_clust_5="55.30356" pt_clust_6="14000.00000"></scales>
<clustering>
<clus scale="   31.685">  1  4  2 -1</clus>
<clus scale="   55.304">  1  5  2 -1</clus>
<clus scale="   79.247">  1  3  2 -1</clus>
<clus scale="   31.685">  1  3  2 -1</clus>
</clustering>
</event>
<event>
 6    0  0.5563122E+002  0.9215023E+02  0.7546771E-02  0.1297727E+00
         21   -1    0    0  504  501  0.00000000000E+00  0.00000000000E+00  0.11322355587E+03  0.11322355587E+03  0.00000000000E+00 0.  1.
         21   -1    0    0  505  502 -0.00000000000E+00 -0.00000000000E+00 -0.86977891698E+03  0.86977891698E+03  0.00000000000E+00 0. -1.
         21    1    1    2  503  506  0.27317634713E+02  0.14377279860E+03 -0.30903230534E+02  0.14957232511E+03  0.00000000000E+00 0.  1.
         21    1    1    2  504  502 -0.37416282593E+02 -0.17839028739E+02 -0.27611158910E+02  0.49805474054E+02  0.00000000000E+00 0. -1.
         21    1    1    2  505  503 -0.25760097392E+02 -0.85864647719E+02 -0.71998745109E+03  0.72554686277E+03  0.00000000000E+00 0. -1.
         21    1    1    2  506  501  0.35858745272E+02 -0.40069122139E+02  0.21946479429E+02  0.58077810916E+02  0.00000000000E+00 0.  1.
<scales pt_clust_3="92.15023" pt_clust_4="41.45129" pt_clust_5="14000.00000" pt_clust_6="51.61295"></scales>
<clustering>
<clus scale="   41.451">  1  4  2 -1</clus>
<clus scale="   51.613">  1  6  2 -1</clus>
<clus scale="   92.150">  1  3  2 -1</clus>
<clus scale="   41.451">  1  3  2 -1</clus>
</clustering>
</event>
<event>
 6    0  0.5563122E+002  0.2185510E+03  0.7546771E-02  0.1134968E+00
         21   -1    0    0  505  501  0.00000000000E+00  0.00000000000E+00  0.73070725095E+03  0.73070725095E+03  0.00000000000E+00 0.  1.
         21   -1    0    0  504  502 -0.00000000000E+00 -0.00000000000E+00 -0.12483372004E+04  0.12483372004E+04  0.00000000000E+00 0. -1.
         21    1    1    2  503  501  0.26097807754E+02  0.38025846764E+02  0.52183824977E+03  0.52387233131E+03  0.00000000000E+00 0.  1.
         21    1    1    2  504  503 -0.14524185815E+03  0.49034612062E+02  0.13501979603E+03  0.20427906368E+03  0.00000000000E+00 0.  1.
         21    1    1    2  505  506 -0.30169135342E+02  0.79913101218E+02 -0.39672178451E+02  0.94181538619E+02  0.00000000000E+00 0.  1.
         21    1    1    2  506  502  0.14931318574E+03 -0.16697356004E+03 -0.11348158168E+04  0.11567115177E+04  0.00000000000E+00 0. -1.
<scales pt_clust_3="46.12007" pt_clust_4="218.55096" pt_clust_5="89.01286" pt_clust_6="14000.00000"></scales>
<clustering>
<clus scale="   46.120">  1  3  2 -1</clus>
<clus scale="   89.013">  1  5  2 -1</clus>
<clus scale="  218.551">  1  4  2 -1</clus>
<clus scale="   46.120">  1  3  2 -1</clus>
</clustering>
</event>
<event>
 6    0  0.5563122E+002  0.1329784E+03  0.7546771E-02  0.1223102E+00
         21   -1    0    0  505  501  0.00000000000E+00  0.00000000000E+00  0.14093175629E+03  0.14093175629E+03  0.00000000000E+00 0. -1.
         21   -1    0    0  503  502 -0.00000000000E+00 -0.00000000000E+00 -0.12464693645E+04  0.12464693645E+04  0.00000000000E+00 0.  1.
         21    1    1    2  503  501  0.10234084980E+02 -0.31931008410E+02 -0.51272166200E+02  0.61263046124E+02  0.00000000000E+00 0. -1.
         21    1    1    2  504  502 -0.12593224291E+03 -0.48627244581E+01 -0.68170353939E+03  0.69325485322E+03  0.00000000000E+00 0.  1.
         21    1    1    2  505  506 -0.15951095353E+02 -0.45969835728E+02  0.11299865906E+03  0.12302991583E+03  0.00000000000E+00 0. -1.
         21    1    1    2  506  504  0.13164925328E+03  0.82763568596E+02 -0.48556056171E+03  0.50985330564E+03  0.00000000000E+00 0. -1.
<scales pt_clust_3="33.53097" pt_clust_4="14000.00000" pt_clust_5="48.77170" pt_clust_6="132.97836"></scales>
<clustering>
<clus scale="   33.531">  2  3  1 -1</clus>
<clus scale="   48.772">  1  5  2 -1</clus>
<clus scale="  132.978">  1  6  2 -1</clus>
<clus scale="   48.772">  1  3  2 -1</clus>
</clustering>
</event>
<event>
 6    0  0.5563122E+002  0.1188216E+03  0.7546771E-02  0.1245054E+00
         21   -1    0    0  504  501  0.00000000000E+00  0.00000000000E+00  0.20272772536E+03  0.20272772536E+03  0.00000000000E+00 0.  1.
         21   -1    0    0  501  502 -0.00000000000E+00 -0.00000000000E+00 -0.16294584408E+04  0.16294584408E+04  0.00000000000E+00 0. -1.
         21    1    1    2  503  506  0.30831033178E+02  0.89145218206E+02 -0.25595190541E+02  0.97737077482E+02  0.00000000000E+00 0. -1.
         21    1    1    2  504  503  0.47882695491E+02  0.17084935722E+02  0.15870064988E+03  0.16664496341E+03  0.00000000000E+00 0.  1.
         21    1    1    2  505  502 -0.16970180289E+02 -0.44715164792E+02 -0.10074185245E+04  0.10085531798E+04  0.00000000000E+00 0. -1.
         21    1    1    2  506  505 -0.61743548380E+02 -0.61514989135E+02 -0.55241765031E+03  0.55925094549E+03  0.00000000000E+00 0. -1.
<scales pt_clust_3="118.82157" pt_clust_4="50.64176" pt_clust_5="47.82712" pt_clust_6="14000.00000"></scales>
<clustering>
<clus scale="   47.827">  2  5  1 -1</clus>
<clus scale="   50.642">  1  4  2 -1</clus>
<clus scale="  118.822">  1  3  2 -1</clus>
<clus scale="   50.642">  1  3  2 -1</clus>
</clustering>
</event>
<event>
 6    0  0.5563122E+002  0.8836516E+02  0.7546771E-02  0.1306860E+00
         21   -1    0    0  504  501  0.00000000000E+00  0.00000000000E+00  0.28418754495E+02  0.28418754495E+02  0.00000000000E+00 0.  1.
         21   -1    0    0  503  502 -0.00000000000E+00 -0.00000000000E+00 -0.11831332287E+04  0.11831332287E+04  0.00000000000E+00 0. -1.
         21    1    1    2  503  505 -0.91716566462E+02 -0.17425613998E+00 -0.74759906606E+03  0.75320403777E+03  0.00000000000E+00 0. -1.
         21    1    1    2  504  506  0.65850799059E+02  0.19861081578E+02 -0.10825869806E+03  0.12826042259E+03  0.00000000000E+00 0.  1.
         21    1    1    2  505  501 -0.46859717182E+02  0.21238361751E+02 -0.16016967161E+03  0.16822967874E+03  0.00000000000E+00 0. -1.
         21    1    1    2  506  502  0.72725484585E+02 -0.40925187189E+02 -0.13868703844E+03  0.16185784407E+03  0.00000000000E+00 0.  1.
<scales pt_clust_3="88.36516" pt_clust_4="54.69112" pt_clust_5="51.44804" pt_clust_6="14000.00000"></scales>
<clustering>
<clus scale="   51.448">  1  5  2 -1</clus>
<clus scale="   54.691">  1  4  2 -1</clus>
<clus scale="   88.365">  2  3  1 -1</clus>
<clus scale="   51.448">  1  3  2 -1</clus>
</clustering>
</event>
<event>
 6    0  0.5563122E+002  0.1057946E+03  0.7546771E-02  0.1268562E+00
         21   -1    0    0  505  501  0.00000000000E+00  0.00000000000E+00  0.45518859463E+03  0.45518859463E+03  0.00000000000E+00 0.  1.
         21   -1    0    0  504  502 -0.00000000000E+00 -0.00000000000E+00 -0.71929938956E+03  0.71929938956E+03  0.00000000000E+00 0. -1.
         21    1    1    2  503  501  0.10832795250E+03  0.13387341702E+02  0.42822899736E+03  0.44192107936E+03  0.00000000000E+00 0.  1.
         21    1    1    2  504  503 -0.40880936298E+01 -0.38092534972E+02 -0.69031863408E+02  0.78950312828E+02  0.00000000000E+00 0.  1.
         21    1    1    2  505  506 -0.65382686440E+02 -0.12867129035E+02 -0.66329421112E+02  0.94021544344E+02  0.00000000000E+00 0. -1.
         21    1    1    2  506  502 -0.38857172429E+02  0.37572322305E+02 -0.55697850776E+03  0.55959504766E+03  0.00000000000E+00 0. -1.
<scales pt_clust_3="14000.00000" pt_clust_4="38.31127" pt_clust_5="105.79465" pt_clust_6="42.64461"></scales>
<clustering>
<clus scale="   38.311">  2  4  1 -1</clus>
<clus scale="   42.645">  2  6  1 -1</clus>
<clus scale="  105.795">  2  5  1 -1</clus>
<clus scale="  105.795">  1  3  2 -1</clus>
</clustering>
</event>
<event>
 6    0  0.5563122E+002  0.1939291E+03  0.7546771E-02  0.1154965E+00
         21   -1    0    0  503  501  0.00000000000E+00  0.00000000000E+00  0.78795169457E+03  0.78795169457E+03  0.00000000000E+00 0. -1.
         21   -1    0    0  505  502 -0.00000000000E+00 -0.00000000000E+00 -0.18009208135E+03  0.18009208135E+03  0.00000000000E+00 0. -1.
         21    1    1    2  503  502 -0.15534075518E+03  0.15559220784E+03  0.10612650422E+03  0.24413627395E+03  0.00000000000E+00 0. -1.
         21    1    1    2  504  506  0.15466768133E+03 -0.92386339927E+02  0.18218645446E+03  0.25622106010E+03  0.00000000000E+00 0. -1.
         21    1    1    2  505  504  0.16877383753E+02 -0.35075216535E+02 -0.68230553128E+02  0.78552691089E+02  0.00000000000E+00 0. -1.
         21    1    1    2  506  501 -0.16204309902E+02 -0.28130651378E+02  0.38777720767E+03  0.38913375078E+03  0.00000000000E+00 0. -1.
<scales pt_clust_3="14000.00000" pt_clust_4="193.92911" pt_clust_5="39.16274" pt_clust_6="32.46403"></scales>
<clustering>
<clus scale="   32.464">  1  6  2 -1</clus>
<clus scale="   39.163">  2  5  1 -1</clus>
<clus scale="  193.929">  1  4  2 -1</clus>
<clus scale="   32.464">  1  3  2 -1</clus>
</clustering>
</event>
<event>
 6    0  0.5563122E+002  0.1220990E+03  0.7546771E-02  0.1239674E+00
         21   -1    0    0  504  501  0.00000000000E+00  0.00000000000E+00  0.63543549306E+03  0.63543549306E+03  0.00000000000E+00 0.  1.
         21   -1    0    0  506  502 -0.00000000000E+00 -0.00000000000E+00 -0.44464044019E+03  0.44464044019E+03  0.00000000000E+00 0. -1.
         21    1    1    2  503  501 -0.16359864511E+02  0.59871264815E+02  0.47128306939E+03  0.47535244295E+03  0.00000000000E+00 0.  1.
         21    1    1    2  504  502 -0.90420343103E+02 -0.11814985826E+03 -0.53649020213E+01  0.14887581948E+03  0.00000000000E+00 0.  1.
         21    1    1    2  505  503 -0.73058485916E+01  0.10920191962E+03  0.40263205451E+02  0.11661715305E+03  0.00000000000E+00 0. -1.
         21    1    1    2  506  505  0.11408605621E+03 -0.50923326183E+02 -0.31538631996E+03  0.33923051777E+03  0.00000000000E+00 0. -1.
<scales pt_clust_3="62.06620" pt_clust_4="122.09895" pt_clust_5="14000.00000" pt_clust_6="122.09304"></scales>
<clustering>
<clus scale="   62.066">  1  3  2 -1</clus>
<clus scale="  122.093">  2  6  1 -1</clus>
<clus scale="  122.099">  2  4  1 -1</clus>
<clus scale="   62.066">  1  3  2 -1</clus>
</clustering>
</event>
<event>
 6    0  0.5563122E+002  0.1684979E+03  0.7546771E-02  0.1179423E+00
         21   -1    0    0  503  501  0.00000000000E+00  0.00000000000E+00  0.41003894154E+02  0.41003894154E+02  0.00000000000E+00 0.  1.
         21   -1    0    0  504  502 -0.00000000000E+00 -0.00000000000E+00 -0.34644914039E+04  0.34644914039E+04  0.00000000000E+00 0.  1.
         21    1    1    2  503  506 -0.41525830691E+02 -0.16021133330E+03 -0.17123336132E+03  0.23814476682E+03  0.00000000000E+00 0.  1.
         21    1    1    2  504  505  0.65217726381E+02  0.62597552557E+02 -0.58847612075E+03  0.59537882908E+03  0.00000000000E+00 0.  1.
         21    1    1    2  505  501  0.32485650977E+02 -0.18261407758E+02 -0.13891550584E+03  0.14382737673E+03  0.00000000000E+00 0. -1.
         21    1    1    2  506  502 -0.56177546666E+02  0.11587518850E+03 -0.25248625218E+04  0.25281443254E+04  0.00000000000E+00 0.  1.
<scales pt_clust_3="14000.00000" pt_clust_4="91.42004" pt_clust_5="37.26656" pt_clust_6="168.49794"></scales>
<clustering>
<clus scale="   37.267">  1  5  2 -1</clus>
<clus scale="   91.420">  2  4  1 -1</clus>
<clus scale="  168.498">  2  6  1 -1</clus>
<clus scale="   37.267">  1  3  2 -1</clus>
</clustering>
</event>
<event>
 6    0  0.5563122E+002  0.1298038E+03  0.7546771E-02  0.1227747E+00
         21   -1    0    0  504  501  0.00000000000E+00  0.00000000000E+00  0.21940531384E+04  0.21940531384E+04  0.00000000000E+00 0.  1.
         21   -1    0    0  506  502 -0.00000000000E+00 -0.00000000000E+00 -0.11928333954E+03  0.11928333954E+03  0.00000000000E+00 0.  1.
         21    1    1    2  503  505 -0.26753897036E+02 -0.92577657376E+02  0.11109577127E+03  0.14706686930E+03  0.00000000000E+00 0.  1.
         21    1    1    2  504  502  0.24619716796E+01  0.14855183544E+03  0.15320329804E+04  0.15392201799E+04  0.00000000000E+00 0.  1.
         21    1    1    2  505  501  0.27800419326E+02 -0.16570351752E+02  0.52482186651E+03  0.52581881997E+03  0.00000000000E+00 0.  1.
         21    1    1    2  506  503 -0.35084939699E+01 -0.39403826315E+02 -0.93180819342E+02  0.10123060877E+03  0.00000000000E+00 0.  1.
<scales pt_clust_3="14000.00000" pt_clust_4="129.80376" pt_clust_5="32.36418" pt_clust_6="39.59364"></scales>
<clustering>
<clus scale="   32.364">  1  5  2 -1</clus>
<clus scale="   39.594">  2  6  1 -1</clus>
<clus scale="  129.804">  1  4  2 -1</clus>
<clus scale="   32.364">  1  3  2 -1</clus>
</clustering>
</event>
<event>
 6    0  0.5563122E+002  0.7888591E+02  0.7546771E-02  0.1332243E+00
         21   -1    0    0  506  501  0.00000000000E+00  0.00000000000E+00  0.16114777021E+03  0.16114777021E+03  0.00000000000E+00 0. -1.
         21   -1    0    0  505  502 -0.00000000000E+00 -0.00000000000E+00 -0.33144364709E+03  0.33144364709E+03  0.00000000000E+00 0. -1.
         21    1    1    2  503  504  0.45577014852E+02 -0.61134786456E+02 -0.54758717320E+02  0.93878876859E+02  0.00000000000E+00 0. -1.
         21    1    1    2  504  502 -0.28587399476E+02  0.33686116416E+02 -0.20249839134E+03  0.20726213437E+03  0.00000000000E+00 0. -1.
         21    1    1    2  505  501 -0.70304540058E+02 -0.34080532725E+02  0.88579417247E+01  0.78629982800E+02  0.00000000000E+00 0. -1.
         21    1    1    2  506  503  0.53314924682E+02  0.61529202765E+02  0.78103290065E+02  0.11282042327E+03  0.00000000000E+00 0. -1.
<scales pt_clust_3="50.38892" pt_clust_4="44.18137" pt_clust_5="14000.00000" pt_clust_6="78.88591"></scales>
<clustering>
<clus scale="   44.181">  2  4  1 -1</clus>
<clus scale="   50.389">  2  3  1 -1</clus>
<clus scale="   78.886">  1  6  2 -1</clus>
<clus scale="   78.886">  1  3  2 -1</clus>
</clustering>
</event>
<event>
 6    0  0.5563122E+002  0.1356079E+03  0.7546771E-02  0.1219364E+00
         21   -1    0    0  506  501  0.00000000000E+00  0.00000000000E+00  0.82423614427E+03  0.82423614427E+03  0.00000000000E+00 0. -1.
         21   -1    0    0  504  502 -0.00000000000E+00 -0.00000000000E+00 -0.85021464340E+02  0.85021464340E+02  0.00000000000E+00 0. -1.
         21    1    1    2  503  502  0.13438446882E+03 -0.51976377038E+02  0.64470337596E+01  0.14423000199E+03  0.00000000000E+00 0. -1.
         21    1    1    2  504  505 -0.70251752606E+02  0.64466513071E+02  0.40446115723E+03  0.41554791272E+03  0.00000000000E+00 0. -1.
         21    1    1    2  505  501  0.96973445033E+01  0.31993440414E+02  0.83624000330E+02  0.90058826059E+02  0.00000000000E+00 0.  1.
         21    1    1    2  506  503 -0.73830060722E+02 -0.44483576448E+02  0.24468248861E+03  0.25942086784E+03  0.00000000000E+00 0. -1.
<scales pt_clust_3="135.60790" pt_clust_4="14000.00000" pt_clust_5="33.43080" pt_clust_6="78.08887"></scales>
<clustering>
<clus scale="   33.431">  1  5  2 -1</clus>
<clus scale="   78.089">  1  6  2 -1</clus>
<clus scale="  135.608">  2  3  1 -1</clus>
<clus scale="   33.431">  1  3  2 -1</clus>
</clustering>
</event>
<event>
 6    0  0.5563122E+002  0.5235868E+03  0.7546771E-02  0.1007799E+00
         21   -1    0    0  502  501  0.00000000000E+00  0.00000000000E+00  0.29933689867E+03  0.29933689867E+03  0.00000000000E+00 0.  1.
         21   -1    0    0  506  502 -0.00000000000E+00 -0.00000000000E+00 -0.12431967294E+04  0.12431967294E+04  0.00000000000E+00 0. -1.
         21    1    1    2  503  504  0.39455629288E+01  0.12057944945E+03 -0.15189335092E+01  0.12065354638E+03  0.00000000000E+00 0. -1.
         21    1    1    2  504  501  0.30050445093E+03  0.26650205468E+03 -0.72344427548E+02  0.40811761341E+03  0.00000000000E+00 0.  1.
         21    1    1    2  505  503 -0.27239173462E+03 -0.31112174406E+03 -0.58028735339E+03  0.71254993455E+03  0.00000000000E+00 0. -1.
         21    1    1    2  506  505 -0.32058279239E+02 -0.75959760063E+02 -0.28970911630E+03  0.30121253375E+03  0.00000000000E+00 0. -1.
<scales pt_clust_3="97.45767" pt_clust_4="97.45767" pt_clust_5="520.40416" pt_clust_6="75.11494"></scales>
<clustering>
<clus scale="   75.115">  5  6 -1 -1</clus>
<clus scale="   97.458">  3  4 -1 -1</clus>
<clus scale="  520.404">  2  5  1 -1</clus>
<clus scale="  523.587">  1  3  2 -1</clus>
</clustering>
</event>
<event>
 6    0  0.5563122E+002  0.1532444E+03  0.7546771E-02  0.1196542E+00
         21   -1    0    0  503  501  0.00000000000E+00  0.00000000000E+00  0.80302003134E+03  0.80302003134E+03  0.00000000000E+00 0. -1.
         21   -1    0    0  504  502 -0.00000000000E+00 -0.00000000000E+00 -0.14647303108E+03  0.14647303108E+03  0.00000000000E+00 0.  1.
         21    1    1    2  503  505 -0.76718980365E+02  0.96083227681E+02  0.16050754831E+03  0.20218917294E+03  0.00000000000E+00 0. -1.
         21    1    1    2  504  506  0.93904669136E+02  0.15168158235E+01 -0.82159876469E+02  0.12478234217E+03  0.00000000000E+00 0.  1.
         21    1    1    2  505  502 -0.89016907916E+00  0.40362614531E+02  0.16024681162E+02  0.43436430091E+02  0.00000000000E+00 0. -1.
         21    1    1    2  506  501 -0.16295519692E+02 -0.13796265803E+03  0.56217464726E+03  0.57908511723E+03  0.00000000000E+00 0. -1.
<scales pt_clust_3="38.55736" pt_clust_4="93.91692" pt_clust_5="38.55736" pt_clust_6="137.68149"></scales>
<clustering>
<clus scale="   38.557">  3  5 -1 -1</clus>
<clus scale="   93.917">  2  4  1 -1</clus>
<clus scale="  137.681">  1  6  2 -1</clus>
<clus scale="  137.681">  1  3  2 -1</clus>
</clustering>
</event>
<event>
 6    0  0.5563122E+002  0.1287677E+03  0.7546771E-02  0.1229296E+00
         21   -1    0    0  506  501  0.00000000000E+00  0.00000000000E+00  0.87632656498E+02  0.87632656498E+02  0.00000000000E+00 0.  1.
         21   -1    0    0  503  502 -0.00000000000E+00 -0.00000000000E+00 -0.12070480835E+04  0.12070480835E+04  0.00000000000E+00 0.  1.
         21    1    1    2  503  504 -0.44226563044E+01 -0.67028284479E+02 -0.24495504714E+03  0.25399867308E+03  0.00000000000E+00 0.  1.
         21    1    1    2  504  501  0.12575032905E+03  0.32744865265E+02  0.13400488504E+02  0.13063286168E+03  0.00000000000E+00 0.  1.
         21    1    1    2  505  502  0.13780022671E+02 -0.31819093424E+02 -0.34493737872E+03  0.34667584134E+03  0.00000000000E+00 0.  1.
         21    1    1    2  506  505 -0.13510769542E+03  0.66102512638E+02 -0.54292348968E+03  0.56337336393E+03  0.00000000000E+00 0.  1.
<scales pt_clust_3="76.24658" pt_clust_4="128.76765" pt_clust_5="34.67483" pt_clust_6="14000.00000"></scales>
<clustering>
<clus scale="   34.675">  2  5  1 -1</clus>
<clus scale="   76.247">  2  3  1 -1</clus>
<clus scale="  128.768">  1  4  2 -1</clus>
<clus scale="  128.768">  1  3  2 -1</clus>
</clustering>
</event>
<event>
 6    0  0.5563122E+002  0.1797264E+03  0.7546771E-02  0.1168068E+00
         21   -1    0    0  505  501  0.00000000000E+00  0.00000000000E+00  0.55027228046E+03  0.55027228046E+03  0.00000000000E+00 0. -1.
         21   -1    0    0  504  502 -0.00000000000E+00 -0.00000000000E+00 -0.87180627812E+03  0.87180627812E+03  0.00000000000E+00 0.  1.
         21    1    1    2  503  506 -0.12343670883E+03  0.52640274827E+01 -0.21787595621E+03  0.25046808851E+03  0.00000000000E+00 0.  1.
         21    1    1    2  504  501 -0.38873366506E+02 -0.11301230305E+02 -0.59883704958E+03  0.60020385569E+03  0.00000000000E+00 0.  1.
         21    1    1    2  505  503  0.18134858123E+03  0.29744817122E+02  0.50661881631E+03  0.53891992642E+03  0.00000000000E+00 0. -1.
         21    1    1    2  506  502 -0.19038505900E+02 -0.23707614301E+02 -0.11439808188E+02  0.32486687952E+02  0.00000000000E+00 0. -1.
<scales pt_clust_3="14000.00000" pt_clust_4="59.33932" pt_clust_5="179.72637" pt_clust_6="30.40585"></scales>
<clustering>
<clus scale="   30.406">  2  6  1 -1</clus>
<clus scale="   59.339">  2  4  1 -1</clus>
<clus scale="  179.726">  1  5  2 -1</clus>
<clus scale="  179.726">  1  3  2 -1</clus>
</clustering>
</event>
<event>
 6    0  0.5563122E+002  0.1137573E+03  0.7546771E-02  0.1253766E+00
         21   -1    0    0  506  501  0.00000000000E+00  0.00000000000E+00  0.22795111577E+02  0.22795111577E+02  0.00000000000E+00 0. -1.
         21   -1    0    0  505  502 -0.00000000000E+00 -0.00000000000E+00 -0.12611548124E+04  0.12611548124E+04  0.00000000000E+00 0.  1.
         21    1    1    2  503  504 -0.50809043943E+02  0.26372205301E+02 -0.79918465386E+02  0.98305713305E+02  0.00000000000E+00 0. -1.
         21    1    1    2  504  501 -0.36399872028E+02 -0.11638430331E+02 -0.72788069739E+02  0.82210138308E+02  0.00000000000E+00 0. -1.
         21    1    1    2  505  503  0.96401237996E+02 -0.58322085192E+02 -0.10050020976E+04  0.10112981165E+04  0.00000000000E+00 0.  1.
         21    1    1    2  506  502 -0.91923220249E+01  0.43588310223E+02 -0.80651068074E+02  0.92135955814E+02  0.00000000000E+00 0. -1.
<scales pt_clust_3="31.05004" pt_clust_4="31.05004" pt_clust_5="107.22185" pt_clust_6="44.54705"></scales>
<clustering>
<clus scale="   31.050">  3  4 -1 -1</clus>
<clus scale="   44.547">  1  6  2 -1</clus>
<clus scale="  107.222">  2  5  1 -1</clus>
<clus scale="   44.547">  1  3  2 -1</clus>
</clustering>
</event>
<event>
 6    0  0.5563122E+002  0.3482959E+03  0.7546771E-02  0.1063317E+00
         21   -1    0    0  502  501  0.00000000000E+00  0.00000000000E+00  0.30130667739E+03  0.30130667739E+03  0.00000000000E+00 0. -1.
         21   -1    0    0  506  502 -0.00000000000E+00 -0.00000000000E+00 -0.53883909179E+03  0.53883909179E+03  0.00000000000E+00 0. -1.
         21    1    1    2  503  505 -0.21828288083E+03 -0.26350695577E+03 -0.14658422013E+03  0.37225027252E+03  0.00000000000E+00 0. -1.
         21    1    1    2  504  501  0.10390253846E+03  0.15717954249E+03  0.72305650733E+02  0.20181489837E+03  0.00000000000E+00 0. -1.
         21    1    1    2  505  504  0.70707119435E+02  0.11255950125E+03 -0.45766076212E+02  0.14058332686E+03  0.00000000000E+00 0. -1.
         21    1    1    2  506  503  0.43673222929E+02 -0.62320879725E+01 -0.11748776879E+03  0.12549727143E+03  0.00000000000E+00 0.  1.
<scales pt_clust_3="328.67232" pt_clust_4="97.58219" pt_clust_5="97.58219" pt_clust_6="44.11564"></scales>
<clustering>
<clus scale="   44.116">  2  6  1 -1</clus>
<clus scale="   97.582">  4  5 -1 -1</clus>
<clus scale="  328.672">  2  3  1 -1</clus>
<clus scale="  348.296">  1  3  2 -1</clus>
</clustering>
</event>
<event>
 6    0  0.5563122E+002  0.1208277E+03  0.7546771E-02  0.1241738E+00
         21   -1    0    0  504  501  0.00000000000E+00  0.00000000000E+00  0.25210910984E+03  0.25210910984E+03  0.00000000000E+00 0.  1.
         21   -1    0    0  503  502 -0.00000000000E+00 -0.00000000000E+00 -0.42013718099E+03  0.42013718099E+03  0.00000000000E+00 0.  1.
         21    1    1    2  503  501 -0.40918473819E+02  0.10591194453E+03  0.91044983550E+01  0.11390589706E+03  0.00000000000E+00 0. -1.
         21    1    1    2  504  506 -0.35173196866E+01 -0.63726049926E+02  0.11797912891E+03  0.13413596026E+03  0.00000000000E+00 0.  1.
         21    1    1    2  505  502  0.32252870269E+02  0.11261195666E+02 -0.34702712704E+03  0.34870458711E+03  0.00000000000E+00 0.  1.
         21    1    1    2  506  505  0.12182923236E+02 -0.53447090272E+02  0.51915428621E+02  0.75499846397E+02  0.00000000000E+00 0.  1.
<scales pt_clust_3="115.41649" pt_clust_4="33.13613" pt_clust_5="34.16229" pt_clust_6="33.13613"></scales>
<clustering>
<clus scale="   33.136">  4  6 -1 -1</clus>
<clus scale="   34.162">  2  5  1 -1</clus>
<clus scale="  115.416">  2  3  1 -1</clus>
<clus scale="  120.828">  1  3  2 -1</clus>
</clustering>
</event>
<event>
 6    0  0.5563122E+002  0.1477851E+03  0.7546771E-02  0.1203221E+00
         21   -1    0    0  503  501  0.00000000000E+00  0.00000000000E+00  0.22553603996E+04  0.22553603996E+04  0.00000000000E+00 0. -1.
         21   -1    0    0  506  502 -0.00000000000E+00 -0.00000000000E+00 -0.10791201013E+03  0.10791201013E+03  0.00000000000E+00 0. -1.
         21    1    1    2  503  502 -0.93886304780E+01  0.55138512496E+02 -0.28865183714E+00  0.55932863885E+02  0.00000000000E+00 0. -1.
         21    1    1    2  504  501  0.81793394476E+02  0.12361816038E+03  0.20670109763E+04  0.20723189873E+04  0.00000000000E+00 0. -1.
         21    1    1    2  505  504 -0.12821216765E+02 -0.15645082884E+03  0.53852658441E+02  0.16595588048E+03  0.00000000000E+00 0. -1.
         21    1    1    2  506  505 -0.59583547233E+02 -0.22305844029E+02  0.26873406592E+02  0.69064678097E+02  0.00000000000E+00 0. -1.
<scales pt_clust_3="55.93212" pt_clust_4="14000.00000" pt_clust_5="147.78507" pt_clust_6="62.54495"></scales>
<clustering>
<clus scale="   55.932">  2  3  1 -1</clus>
<clus scale="   62.545">  2  6  1 -1</clus>
<clus scale="  147.785">  2  5  1 -1</clus>
<clus scale="  147.785">  1  3  2 -1</clus>
</clustering>
</event>
<event>
 6    0  0.5563122E+002  0.1017977E+03  0.7546771E-02  0.1276560E+00
         21   -1    0    0  504  501  0.00000000000E+00  0.00000000000E+00  0.25329856439E+03  0.25329856439E+03  0.00000000000E+00 0.  1.
         21   -1    0    0  503  502 -0.00000000000E+00 -0.00000000000E+00 -0.19694848078E+03  0.19694848078E+03  0.00000000000E+00 0.  1.
         21    1    1    2  503  501  0.81189961768E+02  0.73800336242E+02 -0.83151776988E+02  0.13766814278E+03  0.00000000000E+00 0.  1.
         21    1    1    2  504  505 -0.37331225147E+02 -0.44905548359E+01  0.15741345543E+03  0.16184184070E+03  0.00000000000E+00 0.  1.
         21    1    1    2  505  506 -0.25185262338E+02  0.32589780545E+02  0.12016273652E+02  0.42904336232E+02  0.00000000000E+00 0.  1.
         21    1    1    2  506  502 -0.18673474283E+02 -0.10189956195E+03 -0.29927868479E+02  0.10783272546E+03  0.00000000000E+00 0.  1.
<scales pt_clust_3="101.79769" pt_clust_4="37.60034" pt_clust_5="47.78430" pt_clust_6="14000.00000"></scales>
<clustering>
<clus scale="   37.600">  1  4  2 -1</clus>
<clus scale="   47.784">  1  5  2 -1</clus>
<clus scale="  101.798">  2  3  1 -1</clus>
<clus scale="   37.600">  1  3  2 -1</clus>
</clustering>
</event>
<event>
 6    0  0.5563122E+002  0.1575412E+03  0.7546771E-02  0.1191501E+00
         21   -1    0    0  506  501  0.00000000000E+00  0.00000000000E+00  0.39297007390E+03  0.39297007390E+03  0.00000000000E+00 0.  1.
         21   -1    0    0  504  502 -0.00000000000E+00 -0.00000000000E+00 -0.17108497484E+03  0.17108497484E+03  0.00000000000E+00 0.  1.
         21    1    1    2  503  502  0.16979844500E+02 -0.62625572972E+02  0.13243185201E+02  0.66224311726E+02  0.00000000000E+00 0. -1.
         21    1    1    2  504  501 -0.12267565519E+03  0.11433941084E+03  0.97943017437E+01  0.16798436116E+03  0.00000000000E+00 0.  1.
         21    1    1    2  505  503 -0.61718260509E+02 -0.54016475230E+02  0.19123960556E+02  0.84217867130E+02  0.00000000000E+00 0.  1.
         21    1    1    2  506  505  0.16741407119E+03  0.23026373594E+01  0.17972365156E+03  0.24562850873E+03  0.00000000000E+00 0.  1.
<scales pt_clust_3="64.88665" pt_clust_4="14000.00000" pt_clust_5="89.39435" pt_clust_6="157.54118"></scales>
<clustering>
<clus scale="   64.887">  2  3  1 -1</clus>
<clus scale="   89.394">  2  5  1 -1</clus>
<clus scale="  157.541">  1  6  2 -1</clus>
<clus scale="  157.541">  1  3  2 -1</clus>
</clustering>
</event>
<event>
 6    0  0.5563122E+002  0.1099945E+03  0.7546771E-02  0.1260580E+00
         21   -1    0    0  506  501  0.00000000000E+00  0.00000000000E+00  0.93322317166E+02  0.93322317166E+02  0.00000000000E+00 0. -1.
         21   -1    0    0  505  502 -0.00000000000E+00 -0.00000000000E+00 -0.27534214757E+03  0.27534214757E+03  0.00000000000E+00 0. -1.
         21    1    1    2  503  502 -0.58959696203E+02 -0.35186613749E+02 -0.74270942317E+02  0.10114601542E+03  0.00000000000E+00 0. -1.
         21    1    1    2  504  501  0.62413886199E+02  0.31958659473E+02 -0.48218223286E+02  0.85099037378E+02  0.00000000000E+00 0. -1.
         21    1    1    2  505  504  0.78263325607E+02 -0.19022255637E+02 -0.55149112746E+02  0.97613620879E+02  0.00000000000E+00 0. -1.
         21    1    1    2  506  503 -0.81717515603E+02  0.22250209912E+02 -0.43815520504E+01  0.84805791051E+02  0.00000000000E+00 0. -1.
<scales pt_clust_3="68.66108" pt_clust_4="48.85616" pt_clust_5="48.85616" pt_clust_6="96.73218"></scales>
<clustering>
<clus scale="   48.856">  4  5 -1 -1</clus>
<clus scale="   68.661">  2  3  1 -1</clus>
<clus scale="   96.732">  1  6  2 -1</clus>
<clus scale="   96.732">  1  3  2 -1</clus>
</clustering>
</event>
<event>
 6    0  0.5563122E+002  0.1272168E+03  0.7546771E-02  0.1231645E+00
         21   -1    0    0  505  501  0.00000000000E+00  0.00000000000E+00  0.50535089064E+03  0.50535089064E+03  0.00000000000E+00 0. -1.
         21   -1    0    0  506  502 -0.00000000000E+00 -0.00000000000E+00 -0.11607025773E+03  0.11607025773E+03  0.00000000000E+00 0. -1.
         21    1    1    2  503  502  0.30927884051E+02  0.26104135265E+02 -0.24833151952E+02  0.47483105686E+02  0.00000000000E+00 0. -1.
         21    1    1    2  504  503 -0.77966365575E+02  0.34457890992E+02  0.54737661105E+02  0.10130306982E+03  0.00000000000E+00 0. -1.
         21    1    1    2  505  504 -0.67841267605E+02 -0.11988034956E+03  0.67478365014E+02  0.15338534984E+03  0.00000000000E+00 0. -1.
         21    1    1    2  506  501  0.11487974913E+03  0.59318323302E+02  0.29189775874E+03  0.31924962302E+03  0.00000000000E+00 0. -1.
<scales pt_clust_3="40.47172" pt_clust_4="80.77240" pt_clust_5="14000.00000" pt_clust_6="127.21676"></scales>
<clustering>
<clus scale="   40.472">  2  3  1 -1</clus>
<clus scale="   80.772">  2  4  1 -1</clus>
<clus scale="  127.217">  1  6  2 -1</clus>
<clus scale="  127.217">  1  3  2 -1</clus>
</clustering>
</event>
<event>
 6    0  0.5563122E+002  0.1102948E+03  0.7546771E-02  0.1260025E+00
         21   -1    0    0  505  501  0.00000000000E+00  0.00000000000E+00  0.99564493174E+02  0.99564493174E+02  0.00000000000E+00 0. -1.
         21   -1    0    0  506  502 -0.00000000000E+00 -0.00000000000E+00 -0.19164803237E+03  0.19164803237E+03  0.00000000000E+00 0. -1.
         21    1    1    2  503  501 -0.89088929873E+02 -0.53152325574E+01 -0.36234861016E+02  0.96322657127E+02  0.00000000000E+00 0. -1.
         21    1    1    2  504  502  0.90150847399E+02 -0.14853908380E+01 -0.62053804301E+02  0.10945344353E+03  0.00000000000E+00 0. -1.
         21    1    1    2  505  504  0.31245233030E+02  0.31627489711E+02  0.26675234209E+01  0.44538504395E+02  0.00000000000E+00 0. -1.
         21    1    1    2  506  503 -0.32307150556E+02 -0.24826866315E+02  0.35376026958E+01  0.40897920496E+02  0.00000000000E+00 0. -1.
<scales pt_clust_3="31.07237" pt_clust_4="100.25035" pt_clust_5="44.45855" pt_clust_6="31.07237"></scales>
<clustering>
<clus scale="   31.072">  3  6 -1 -1</clus>
<clus scale="   44.459">  1  5  2 -1</clus>
<clus scale="  100.250">  2  4  1 -1</clus>
<clus scale="   44.459">  1  3  2 -1</clus>
</clustering>
</event>
<event>
 6    0  0.5563122E+002  0.1162999E+03  0.7546771E-02  0.1249329E+00
         21   -1    0    0  506  501  0.00000000000E+00  0.00000000000E+00  0.16545890971E+04  0.16545890971E+04  0.00000000000E+00 0.  1.
         21   -1    0    0  504  502 -0.00000000000E+00 -0.00000000000E+00 -0.45143319890E+03  0.45143319890E+03  0.00000000000E+00 0. -1.
         21    1    1    2  503  501 -0.86602621968E+02 -0.76434527558E+02  0.15822223518E+04  0.15864330499E+04  0.00000000000E+00 0.  1.
         21    1    1    2  504  505 -0.90649208030E+01 -0.40420808425E+02 -0.27320036475E+03  0.27632309683E+03  0.00000000000E+00 0. -1.
         21    1    1    2  505  503  0.13698152080E+03  0.10591678440E+03 -0.10046492506E+03  0.20018866957E+03  0.00000000000E+00 0. -1.
         21    1    1    2  506  502 -0.41313978032E+02  0.10938551581E+02 -0.54011637938E+01  0.43077479753E+02  0.00000000000E+00 0. -1.
<scales pt_clust_3="14000.00000" pt_clust_4="41.42481" pt_clust_5="116.29991" pt_clust_6="42.89801"></scales>
<clustering>
<clus scale="   41.425">  2  4  1 -1</clus>
<clus scale="   42.898">  2  6  1 -1</clus>
<clus scale="  116.300">  2  5  1 -1</clus>
<clus scale="  116.300">  1  3  2 -1</clus>
</clustering>
</event>
<event>
 6    0  0.5563122E+002  0.1178518E+03  0.7546771E-02  0.1246684E+00
         21   -1    0    0  506  501  0.00000000000E+00  0.00000000000E+00  0.37570737514E+04  0.37570737514E+04  0.00000000000E+00 0. -1.
         21   -1    0    0  504  502 -0.00000000000E+00 -0.00000000000E+00 -0.24627039401E+02  0.24627039401E+02  0.00000000000E+00 0.  1.
         21    1    1    2  503  501  0.40258499864E+02 -0.22657831170E+01  0.89516679296E+03  0.89607447670E+03  0.00000000000E+00 0. -1.
         21    1    1    2  504  505 -0.91776155849E+01  0.12058901157E+03  0.14221210720E+03  0.18668214101E+03  0.00000000000E+00 0.  1.
         21    1    1    2  505  503  0.85461246219E+01 -0.79388666923E+02  0.20264313497E+04  0.20280038490E+04  0.00000000000E+00 0. -1.
         21    1    1    2  506  502 -0.39627008901E+02 -0.38934561534E+02  0.66863646216E+03  0.67094032405E+03  0.00000000000E+00 0. -1.
<scales pt_clust_3="40.32221" pt_clust_4="14000.00000" pt_clust_5="117.85183" pt_clust_6="49.69644"></scales>
<clustering>
<clus scale="   40.322">  1  3  2 -1</clus>
<clus scale="   49.696">  1  6  2 -1</clus>
<clus scale="  117.852">  1  5  2 -1</clus>
<clus scale="   40.322">  1  3  2 -1</clus>
</clustering>
</event>
<event>
 6    0  0.5563122E+002  0.7863303E+02  0.7546771E-02  0.1332976E+00
         21   -1    0    0  505  501  0.00000000000E+00  0.00000000000E+00  0.18020093774E+03  0.18020093774E+03  0.00000000000E+00 0.  1.
         21   -1    0    0  504  502 -0.00000000000E+00 -0.00000000000E+00 -0.22231937816E+03  0.22231937816E+03  0.00000000000E+00 0.  1.
         21    1    1    2  503  501  0.22704082022E+02 -0.42889710432E+02  0.91813699269E+02  0.10384968933E+03  0.00000000000E+00 0.  1.
         21    1    1    2  504  503  0.16809982806E+02 -0.72810578900E+02 -0.14161288780E+03  0.16011922406E+03  0.00000000000E+00 0.  1.
         21    1    1    2  505  506  0.14445886788E+02  0.27984853609E+02  0.15825412334E+02  0.35245983489E+02  0.00000000000E+00 0.  1.
         21    1    1    2  506  502 -0.53959951616E+02  0.87715435723E+02 -0.81446642216E+01  0.10330541901E+03  0.00000000000E+00 0.  1.
<scales pt_clust_3="40.59972" pt_clust_4="78.63303" pt_clust_5="31.49342" pt_clust_6="14000.00000"></scales>
<clustering>
<clus scale="   31.493">  1  5  2 -1</clus>
<clus scale="   40.600">  1  3  2 -1</clus>
<clus scale="   78.633">  2  4  1 -1</clus>
<clus scale="   31.493">  1  3  2 -1</clus>
</clustering>
</event>
<event>
 6    0  0.5563122E+002  0.1743157E+03  0.7546771E-02  0.1173421E+00
         21   -1    0    0  505  501  0.00000000000E+00  0.00000000000E+00  0.84366399101E+02  0.84366399101E+02  0.00000000000E+00 0. -1.
         21   -1    0    0  503  502 -0.00000000000E+00 -0.00000000000E+00 -0.13612708817E+04  0.13612708817E+04  0.00000000000E+00 0.  1.
         21    1    1    2  503  504  0.12092350532E+03 -0.10938276864E+03 -0.11006053165E+04  0.11126181496E+04  0.00000000000E+00 0.  1.
         21    1    1    2  504  506 -0.49957812021E+02  0.37161158606E+02 -0.12224654709E+03  0.13718947834E+03  0.00000000000E+00 0.  1.
         21    1    1    2  505  502  0.21352141246E+02  0.74046456180E+02  0.17487179691E+02  0.79022737627E+02  0.00000000000E+00 0. -1.
         21    1    1    2  506  501 -0.92317834547E+02 -0.18248461513E+01 -0.71539798708E+02  0.11680691520E+03  0.00000000000E+00 0. -1.
<scales pt_clust_3="157.84789" pt_clust_4="60.73306" pt_clust_5="77.06356" pt_clust_6="60.73306"></scales>
<clustering>
<clus scale="   60.733">  4  6 -1 -1</clus>
<clus scale="   77.064">  1  5  2 -1</clus>
<clus scale="  157.848">  2  3  1 -1</clus>
<clus scale="   77.064">  1  3  2 -1</clus>
</clustering>
</event>
<event>
 6    0  0.5563122E+002  0.1098602E+03  0.7546771E-02  0.1260829E+00
         21   -1    0    0  504  501  0.00000000000E+00  0.00000000000E+00  0.10865258819E+04  0.10865258819E+04  0.00000000000E+00 0. -1.
         21   -1    0    0  505  502 -0.00000000000E+00 -0.00000000000E+00 -0.30887438069E+02  0.30887438069E+02  0.00000000000E+00 0. -1.
         21    1    1    2  503  506  0.60099040416E+02 -0.66441436116E+02  0.16765976774E+03  0.19009512569E+03  0.00000000000E+00 0. -1.
         21    1    1    2  504  502 -0.79546280566E+02  0.95668792278E+02  0.52372440587E+03  0.53830045687E+03  0.00000000000E+00 0. -1.
         21    1    1    2  505  503  0.42420098086E+02 -0.49348213728E+01  0.27913919177E+02  0.51019643936E+02  0.00000000000E+00 0. -1.
         21    1    1    2  506  501 -0.22972857936E+02 -0.24292534790E+02  0.33634035103E+03  0.33799809346E+03  0.00000000000E+00 0. -1.
<scales pt_clust_3="109.86024" pt_clust_4="14000.00000" pt_clust_5="41.67608" pt_clust_6="33.43470"></scales>
<clustering>
<clus scale="   33.435">  1  6  2 -1</clus>
<clus scale="   41.676">  2  5  1 -1</clus>
<clus scale="  109.860">  2  3  1 -1</clus>
<clus scale="   33.435">  1  3  2 -1</clus>
</clustering>
</event>
<event>
 6    0  0.5563122E+002  0.8088538E+02  0.7546771E-02  0.1326557E+00
         21   -1    0    0  506  501  0.00000000000E+00  0.00000000000E+00  0.86094875297E+02  0.86094875297E+02  0.00000000000E+00 0.  1.
         21   -1    0    0  505  502 -0.00000000000E+00 -0.00000000000E+00 -0.29171753613E+03  0.29171753613E+03  0.00000000000E+00 0.  1.
         21    1    1    2  503  504  0.70893466123E+02  0.13079017539E+02 -0.30118960839E+02  0.78128714572E+02  0.00000000000E+00 0.  1.
         21    1    1    2  504  502 -0.72471607812E+02  0.88819022220E+02 -0.11490309466E+03  0.16230734367E+03  0.00000000000E+00 0.  1.
         21    1    1    2  505  501 -0.33555844245E+02 -0.52636497646E+02 -0.35998956995E+02  0.72059145652E+02  0.00000000000E+00 0. -1.
         21    1    1    2  506  503  0.35133985933E+02 -0.49261542113E+02 -0.24601648339E+02  0.65317207533E+02  0.00000000000E+00 0.  1.
<scales pt_clust_3="80.88538" pt_clust_4="14000.00000" pt_clust_5="70.33963" pt_clust_6="60.50700"></scales>
<clustering>
<clus scale="   60.507">  1  6  2 -1</clus>
<clus scale="   70.340">  2  5  1 -1</clus>
<clus scale="   80.885">  1  3  2 -1</clus>
<clus scale="   60.507">  1  3  2 -1</clus>
</clustering>
</event>
<event>
 6    0  0.5563122E+002  0.9449911E+02  0.7546771E-02  0.1292308E+00
         21   -1    0    0  504  501  0.00000000000E+00  0.00000000000E+00  0.19711152399E+03  0.19711152399E+03  0.00000000000E+00 0.  1.
         21   -1    0    0  503  502 -0.00000000000E+00 -0.00000000000E+00 -0.30466181757E+03  0.30466181757E+03  0.00000000000E+00 0. -1.
         21    1    1    2  503  501  0.79793526875E+02  0.78828282857E+02 -0.87482409477E+02  0.14224653626E+03  0.00000000000E+00 0.  1.
         21    1    1    2  504  505 -0.11195189545E+02 -0.48940630698E+02  0.12202640043E+03  0.13195059683E+03  0.00000000000E+00 0.  1.
         21    1    1    2  505  506 -0.41151018389E+02 -0.55366122045E+02  0.11099395996E+02  0.69871384530E+02  0.00000000000E+00 0.  1.
         21    1    1    2  506  502 -0.27447318942E+02  0.25478469885E+02 -0.15319368052E+03  0.15770482394E+03  0.00000000000E+00 0. -1.
<scales pt_clust_3="14000.00000" pt_clust_4="49.59407" pt_clust_5="94.49911" pt_clust_6="37.45007"></scales>
<clustering>
<clus scale="   37.450">  2  6  1 -1</clus>
<clus scale="   49.594">  1  4  2 -1</clus>
<clus scale="   94.499">  1  5  2 -1</clus>
<clus scale="   49.594">  1  3  2 -1</clus>
</clustering>
</event>
<event>
 6    0  0.5563122E+002  0.1414193E+03  0.7546771E-02  0.1211432E+00
         21   -1    0    0  504  501  0.00000000000E+00  0.00000000000E+00  0.30206281903E+03  0.30206281903E+03  0.00000000000E+00 0. -1.
         21   -1    0    0  505  502 -0.00000000000E+00 -0.00000000000E+00 -0.16632169653E+03  0.16632169653E+03  0.00000000000E+00 0. -1.
         21    1    1    2  503  506 -0.95087038807E+02 -0.99117282248E+02  0.64315922481E+02  0.15166515247E+03  0.00000000000E+00 0. -1.
         21    1    1    2  504  502  0.46233226308E+02  0.16830906921E+02 -0.10719384228E+02  0.50355693232E+02  0.00000000000E+00 0. -1.
         21    1    1    2  505  503 -0.22620502333E+02 -0.45522259690E+02 -0.48397951233E+02  0.70187783386E+02  0.00000000000E+00 0.  1.
         21    1    1    2  506  501  0.71474314833E+02  0.12780863502E+03  0.13054253548E+03  0.19617588648E+03  0.00000000000E+00 0. -1.
<scales pt_clust_3="141.41935" pt_clust_4="49.20153" pt_clust_5="38.25009" pt_clust_6="14000.00000"></scales>
<clustering>
<clus scale="   49.202">  2  4  1 -1</clus>
<clus scale="   38.250">  2  5  1 -1</clus>
<clus scale="  141.419">  2  3  1 -1</clus>
<clus scale="  141.419">  1  3  2 -1</clus>
</clustering>
</event>
<event>
 6    0  0.5563122E+002  0.1590116E+03  0.7546771E-02  0.1189817E+00
         21   -1    0    0  506  501  0.00000000000E+00  0.00000000000E+00  0.94615665820E+03  0.94615665820E+03  0.00000000000E+00 0.  1.
         21   -1    0    0  504  502 -0.00000000000E+00 -0.00000000000E+00 -0.35697062664E+03  0.35697062664E+03  0.00000000000E+00 0.  1.
         21    1    1    2  503  501  0.25398392862E+02  0.10536404915E+03  0.99513024435E+02  0.14713770164E+03  0.00000000000E+00 0.  1.
         21    1    1    2  504  505  0.10467551382E+03 -0.93910208740E+01 -0.19771558828E+03  0.22391205487E+03  0.00000000000E+00 0.  1.
         21    1    1    2  505  503  0.42157867590E+02  0.32072230093E+02 -0.10151431046E+03  0.11450357624E+03  0.00000000000E+00 0. -1.
         21    1    1    2  506  502 -0.17223177427E+03 -0.12804525837E+03  0.78890290586E+03  0.81757395209E+03  0.00000000000E+00 0.  1.
<scales pt_clust_3="108.38202" pt_clust_4="38.31165" pt_clust_5="38.31165" pt_clust_6="149.57456"></scales>
<clustering>
<clus scale="   38.312">  4  5 -1 -1</clus>
<clus scale="  108.382">  1  3  2 -1</clus>
<clus scale="  149.575">  1  6  2 -1</clus>
<clus scale="  108.382">  1  3  2 -1</clus>
</clustering>
</event>
<event>
 6    0  0.7089260E+002  0.1899241E+03  0.7546771E-02  0.1158530E+00
         21   -1    0    0  504  501  0.00000000000E+00  0.00000000000E+00  0.16905612243E+04  0.16905612243E+04  0.00000000000E+00 0. -1.
         21   -1    0    0  503  502 -0.00000000000E+00 -0.00000000000E+00 -0.12466690894E+04  0.12466690894E+04  0.00000000000E+00 0.  1.
         21    1    1    2  503  506  0.96140574254E+02  0.16218220177E+03 -0.10592348268E+04  0.10758831232E+04  0.00000000000E+00 0.  1.
         21    1    1    2  504  505 -0.79499175408E+02  0.12251311615E+03  0.48335518904E+02  0.15383726761E+03  0.00000000000E+00 0.  1.
         21    1    1    2  505  502  0.44624256102E+01 -0.24279158586E+03 -0.89685875770E+01  0.24299815425E+03  0.00000000000E+00 0.  1.
         21    1    1    2  506  501 -0.21103824456E+02 -0.41903732054E+02  0.14637600303E+04  0.14645117687E+04  0.00000000000E+00 0. -1.
<scales pt_clust_3="14000.00000" pt_clust_4="136.68389" pt_clust_5="189.92411" pt_clust_6="46.91795"></scales>
<clustering>
<clus scale="   46.918">  1  6  2 -1</clus>
<clus scale="  136.684">  1  4  2 -1</clus>
<clus scale="  189.924">  1  5  2 -1</clus>
<clus scale="   46.918">  1  3  2 -1</clus>
</clustering>
</event>
<event>
 6    0  0.5563122E+002  0.8695990E+02  0.7546771E-02  0.1310385E+00
         21   -1    0    0  505  501  0.00000000000E+00  0.00000000000E+00  0.65483240896E+03  0.65483240896E+03  0.00000000000E+00 0. -1.
         21   -1    0    0  506  502 -0.00000000000E+00 -0.00000000000E+00 -0.53024395618E+02  0.53024395618E+02  0.00000000000E+00 0. -1.
         21    1    1    2  503  501  0.57238673746E+02 -0.53660832920E+02  0.13226026495E+03  0.15378078048E+03  0.00000000000E+00 0. -1.
         21    1    1    2  504  502 -0.50349636912E+02 -0.54405147852E+01  0.57232501895E+02  0.76421491816E+02  0.00000000000E+00 0.  1.
         21    1    1    2  505  504 -0.82359657809E+02  0.41879365060E+02  0.38442521201E+03  0.39537291015E+03  0.00000000000E+00 0. -1.
         21    1    1    2  506  503  0.75470620975E+02  0.17221982646E+02  0.27890034494E+02  0.82281622132E+02  0.00000000000E+00 0. -1.
<scales pt_clust_3="86.95990" pt_clust_4="50.64272" pt_clust_5="14000.00000" pt_clust_6="46.06224"></scales>
<clustering>
<clus scale="   50.643">  2  4  1 -1</clus>
<clus scale="   46.062">  2  6  1 -1</clus>
<clus scale="   86.960">  2  3  1 -1</clus>
<clus scale="   86.960">  1  3  2 -1</clus>
</clustering>
</event>
<event>
 6    0  0.5563122E+002  0.8721645E+02  0.7546771E-02  0.1309736E+00
         21   -1    0    0  505  501  0.00000000000E+00  0.00000000000E+00  0.58521807296E+02  0.58521807296E+02  0.00000000000E+00 0. -1.
         21   -1    0    0  503  502 -0.00000000000E+00 -0.00000000000E+00 -0.61837093001E+03  0.61837093001E+03  0.00000000000E+00 0. -1.
         21    1    1    2  503  501 -0.39465961986E+02 -0.37137491453E+01 -0.30033487962E-01  0.39640320259E+02  0.00000000000E+00 0. -1.
         21    1    1    2  504  506  0.61224337090E+02 -0.77114049124E+02 -0.42449226569E+03  0.43576218245E+03  0.00000000000E+00 0. -1.
         21    1    1    2  505  504  0.12306280386E+02  0.87734581847E+02 -0.34902010835E+02  0.95220542684E+02  0.00000000000E+00 0. -1.
         21    1    1    2  506  502 -0.34064655490E+02 -0.69067835771E+01 -0.10042481270E+03  0.10626969191E+03  0.00000000000E+00 0.  1.
<scales pt_clust_3="40.97164" pt_clust_4="14000.00000" pt_clust_5="87.21645" pt_clust_6="34.75780"></scales>
<clustering>
<clus scale="   34.758">  2  6  1 -1</clus>
<clus scale="   40.972">  1  3  2 -1</clus>
<clus scale="   87.216">  1  5  2 -1</clus>
<clus scale="   40.972">  1  3  2 -1</clus>
</clustering>
</event>
<event>
 6    0  0.5563122E+002  0.1337097E+03  0.7546771E-02  0.1222053E+00
         21   -1    0    0  503  501  0.00000000000E+00  0.00000000000E+00  0.23334867507E+03  0.23334867507E+03  0.00000000000E+00 0. -1.
         21   -1    0    0  504  502 -0.00000000000E+00 -0.00000000000E+00 -0.11328801648E+03  0.11328801648E+03  0.00000000000E+00 0. -1.
         21    1    1    2  503  502 -0.30926910377E+02 -0.15213195853E+02 -0.78570444236E+01  0.35350364363E+02  0.00000000000E+00 0. -1.
         21    1    1    2  504  505 -0.84050280663E+02  0.70614781455E+02 -0.15975022685E+02  0.11093285532E+03  0.00000000000E+00 0. -1.
         21    1    1    2  505  506  0.60707969507E+02 -0.25562831112E+02  0.33798565712E+02  0.74035524853E+02  0.00000000000E+00 0. -1.
         21    1    1    2  506  501  0.54269221532E+02 -0.29838754490E+02  0.11009415998E+03  0.12631794701E+03  0.00000000000E+00 0. -1.
<scales pt_clust_3="34.46614" pt_clust_4="121.37120" pt_clust_5="55.66610" pt_clust_6="55.66610"></scales>
<clustering>
<clus scale="   34.466">  2  3  1 -1</clus>
<clus scale="   55.666">  5  6 -1 -1</clus>
<clus scale="  121.371">  2  4  1 -1</clus>
<clus scale="  133.710">  1  3  2 -1</clus>
</clustering>
</event>
<event>
 6    0  0.5563122E+002  0.2720167E+03  0.7546771E-02  0.1100131E+00
         21   -1    0    0  503  501  0.00000000000E+00  0.00000000000E+00  0.75125123869E+03  0.75125123869E+03  0.00000000000E+00 0.  1.
         21   -1    0    0  504  502 -0.00000000000E+00 -0.00000000000E+00 -0.56376906488E+03  0.56376906488E+03  0.00000000000E+00 0.  1.
         21    1    1    2  503  502 -0.10655446377E+03 -0.10341197083E+03  0.34253384007E+02  0.15238498540E+03  0.00000000000E+00 0.  1.
         21    1    1    2  504  505  0.95287743813E+02  0.16892798680E+03 -0.33961561929E+03  0.39109485769E+03  0.00000000000E+00 0.  1.
         21    1    1    2  505  506  0.11672500050E+02  0.84061303171E+02 -0.11648382887E+03  0.14412158872E+03  0.00000000000E+00 0. -1.
         21    1    1    2  506  501 -0.40578009209E+00 -0.14957731914E+03  0.60932823797E+03  0.62741887176E+03  0.00000000000E+00 0.  1.
<scales pt_clust_3="148.48532" pt_clust_4="36.14616" pt_clust_5="36.14616" pt_clust_6="266.47185"></scales>
<clustering>
<clus scale="   36.146">  4  5 -1 -1</clus>
<clus scale="  148.485">  1  3  2 -1</clus>
<clus scale="  266.472">  1  6  2 -1</clus>
<clus scale="  148.485">  1  3  2 -1</clus>
</clustering>
</event>
<event>
 6    0  0.5563122E+002  0.2039968E+03  0.7546771E-02  0.1146410E+00
         21   -1    0    0  503  501  0.00000000000E+00  0.00000000000E+00  0.89720180602E+03  0.89720180602E+03  0.00000000000E+00 0.  1.
         21   -1    0    0  506  502 -0.00000000000E+00 -0.00000000000E+00 -0.14972171568E+03  0.14972171568E+03  0.00000000000E+00 0.  1.
         21    1    1    2  503  505  0.23507286099E+02  0.61644266690E+02  0.10424185401E+03  0.12336519867E+03  0.00000000000E+00 0.  1.
         21    1    1    2  504  502  0.16474686012E+03 -0.14291692124E+03 -0.48552633301E+01  0.21815212096E+03  0.00000000000E+00 0.  1.
         21    1    1    2  505  504 -0.18597645302E+02  0.85404981767E+02  0.10611002998E+03  0.13747444047E+03  0.00000000000E+00 0.  1.
         21    1    1    2  506  501 -0.16965650092E+03 -0.41323272185E+01  0.54198346969E+03  0.56793176161E+03  0.00000000000E+00 0.  1.
<scales pt_clust_3="40.20748" pt_clust_4="203.99679" pt_clust_5="154.23813" pt_clust_6="14000.00000"></scales>
<clustering>
<clus scale="   40.207">  3  5 -1 -1</clus>
<clus scale="  154.238">  1  3  2 -1</clus>
<clus scale="  203.997">  2  4  1 -1</clus>
<clus scale="  154.238">  1  3  2 -1</clus>
</clustering>
</event>
<event>
 6    0  0.5563122E+002  0.9006949E+02  0.7546771E-02  0.1302684E+00
         21   -1    0    0  504  501  0.00000000000E+00  0.00000000000E+00  0.23755394127E+03  0.23755394127E+03  0.00000000000E+00 0. -1.
         21   -1    0    0  505  502 -0.00000000000E+00 -0.00000000000E+00 -0.12748011949E+03  0.12748011949E+03  0.00000000000E+00 0. -1.
         21    1    1    2  503  502  0.62183873687E+01 -0.85773979498E+02 -0.49149804584E+02  0.99053254318E+02  0.00000000000E+00 0. -1.
         21    1    1    2  504  503  0.27311630228E+02 -0.34084346096E+02  0.14208228312E+02  0.45929745767E+02  0.00000000000E+00 0. -1.
         21    1    1    2  505  506  0.16504620100E+02  0.10715609535E+03  0.70226938963E+02  0.12917683311E+03  0.00000000000E+00 0. -1.
         21    1    1    2  506  501 -0.50034637696E+02  0.12702230240E+02  0.74788459089E+02  0.90874227564E+02  0.00000000000E+00 0. -1.
<scales pt_clust_3="90.06949" pt_clust_4="43.67686" pt_clust_5="14000.00000" pt_clust_6="39.14185"></scales>
<clustering>
<clus scale="   43.677">  1  4  2 -1</clus>
<clus scale="   39.142">  1  6  2 -1</clus>
<clus scale="   90.069">  2  3  1 -1</clus>
<clus scale="   43.677">  1  3  2 -1</clus>
</clustering>
</event>
<event>
 6    0  0.5563122E+002  0.3341404E+03  0.7546771E-02  0.1069319E+00
         21   -1    0    0  505  501  0.00000000000E+00  0.00000000000E+00  0.17875372247E+04  0.17875372247E+04  0.00000000000E+00 0.  1.
         21   -1    0    0  506  502 -0.00000000000E+00 -0.00000000000E+00 -0.72727208699E+03  0.72727208699E+03  0.00000000000E+00 0.  1.
         21    1    1    2  503  504  0.28580804080E+03  0.13522551873E+03 -0.24023822017E+03  0.39709769520E+03  0.00000000000E+00 0.  1.
         21    1    1    2  504  501  0.20926497173E+02 -0.22718671218E+02  0.16045462270E+04  0.16048434973E+04  0.00000000000E+00 0.  1.
         21    1    1    2  505  502 -0.33937179899E+03 -0.10130951783E+03 -0.20780895472E+03  0.41063535895E+03  0.00000000000E+00 0.  1.
         21    1    1    2  506  503  0.32637261016E+02 -0.11197329684E+02 -0.96233914355E+02  0.10223276026E+03  0.00000000000E+00 0.  1.
<scales pt_clust_3="14000.00000" pt_clust_4="30.88780" pt_clust_5="334.14039" pt_clust_6="34.95113"></scales>
<clustering>
<clus scale="   30.888">  1  4  2 -1</clus>
<clus scale="   34.951">  2  6  1 -1</clus>
<clus scale="  334.140">  1  5  2 -1</clus>
<clus scale="   30.888">  1  3  2 -1</clus>
</clustering>
</event>
<event>
 6    0  0.5563122E+002  0.7920214E+02  0.7546771E-02  0.1331331E+00
         21   -1    0    0  506  501  0.00000000000E+00  0.00000000000E+00  0.96493760597E+03  0.96493760597E+03  0.00000000000E+00 0. -1.
         21   -1    0    0  505  502 -0.00000000000E+00 -0.00000000000E+00 -0.16510642780E+03  0.16510642780E+03  0.00000000000E+00 0. -1.
         21    1    1    2  503  502 -0.34710495270E+02  0.40520581743E+02 -0.79852462069E+02  0.96037241345E+02  0.00000000000E+00 0. -1.
         21    1    1    2  504  501  0.32763418143E+02 -0.72566057078E+02  0.89708236847E+03  0.90060871084E+03  0.00000000000E+00 0. -1.
         21    1    1    2  505  504 -0.70873732808E+01 -0.42460037401E+02  0.22314500676E+02  0.48487344499E+02  0.00000000000E+00 0.  1.
         21    1    1    2  506  503  0.90344504079E+01  0.74505512735E+02 -0.39713228915E+02  0.84910737089E+02  0.00000000000E+00 0. -1.
<scales pt_clust_3="41.96298" pt_clust_4="14000.00000" pt_clust_5="43.04748" pt_clust_6="79.20214"></scales>
<clustering>
<clus scale="   43.047">  2  5  1 -1</clus>
<clus scale="   41.963">  2  3  1 -1</clus>
<clus scale="   79.202">  2  6  1 -1</clus>
<clus scale="   79.202">  1  3  2 -1</clus>
</clustering>
</event>
<event>
 6    0  0.5563122E+002  0.1298013E+03  0.7546771E-02  0.1227751E+00
         21   -1    0    0  505  501  0.00000000000E+00  0.00000000000E+00  0.26074998570E+03  0.26074998570E+03  0.00000000000E+00 0. -1.
         21   -1    0    0  506  502 -0.00000000000E+00 -0.00000000000E+00 -0.24691509030E+03  0.24691509030E+03  0.00000000000E+00 0. -1.
         21    1    1    2  503  501  0.34088124972E+02 -0.75978291393E+02  0.15971031959E+03  0.18011687098E+03  0.00000000000E+00 0. -1.
         21    1    1    2  504  502 -0.27965816657E+00  0.40010437521E+02 -0.60720524749E+02  0.72717916946E+02  0.00000000000E+00 0. -1.
         21    1    1    2  505  504  0.70917083899E+02  0.68895966366E+02 -0.10393907584E+03  0.14345458674E+03  0.00000000000E+00 0. -1.
         21    1    1    2  506  503 -0.10472555070E+03 -0.32928112494E+02  0.18784176397E+02  0.11137570132E+03  0.00000000000E+00 0. -1.
<scales pt_clust_3="83.27485" pt_clust_4="33.46555" pt_clust_5="33.46555" pt_clust_6="118.66280"></scales>
<clustering>
<clus scale="   33.466">  4  5 -1 -1</clus>
<clus scale="   83.275">  1  3  2 -1</clus>
<clus scale="  118.663">  1  6  2 -1</clus>
<clus scale="   83.275">  1  3  2 -1</clus>
</clustering>
</event>
<event>
 6    0  0.5563122E+002  0.3218062E+03  0.7546771E-02  0.1074821E+00
         21   -1    0    0  505  501  0.00000000000E+00  0.00000000000E+00  0.13880307800E+03  0.13880307800E+03  0.00000000000E+00 0. -1.
         21   -1    0    0  503  502 -0.00000000000E+00 -0.00000000000E+00 -0.25323020612E+04  0.25323020612E+04  0.00000000000E+00 0. -1.
         21    1    1    2  503  504  0.29790733914E+03 -0.13709847771E+03 -0.19376971791E+04  0.19652519261E+04  0.00000000000E+00 0. -1.
         21    1    1    2  504  506 -0.13777625759E+03  0.85078370757E+01 -0.31381270764E+03  0.34283100198E+03  0.00000000000E+00 0. -1.
         21    1    1    2  505  502 -0.74660480638E+02  0.32836801876E+02  0.75072112804E+02  0.11085244719E+03  0.00000000000E+00 0. -1.
         21    1    1    2  506  501 -0.85470600916E+02  0.95753838758E+02 -0.21706120935E+03  0.25216976397E+03  0.00000000000E+00 0. -1.
<scales pt_clust_3="303.43054" pt_clust_4="105.45698" pt_clust_5="81.56251" pt_clust_6="105.45698"></scales>
<clustering>
<clus scale="   81.563">  1  5  2 -1</clus>
<clus scale="  105.457">  4  6 -1 -1</clus>
<clus scale="  303.431">  2  3  1 -1</clus>
<clus scale="   81.563">  1  3  2 -1</clus>
</clustering>
</event>
<event>
 6    0  0.5563122E+002  0.1222047E+03  0.7546771E-02  0.1239504E+00
         21   -1    0    0  503  501  0.00000000000E+00  0.00000000000E+00  0.44823670552E+03  0.44823670552E+03  0.00000000000E+00 0.  1.
         21   -1    0    0  506  502 -0.00000000000E+00 -0.00000000000E+00 -0.13770278244E+04  0.13770278244E+04  0.00000000000E+00 0.  1.
         21    1    1    2  503  505 -0.70153915238E+02  0.64119234150E+02  0.86494844257E+02  0.12850761104E+03  0.00000000000E+00 0.  1.
         21    1    1    2  504  501  0.13756121665E+03 -0.57094234107E+02  0.28630785519E+03  0.32273058088E+03  0.00000000000E+00 0.  1.
         21    1    1    2  505  502 -0.62736035670E+02  0.72118882966E+02 -0.30317229360E+02  0.10027999725E+03  0.00000000000E+00 0.  1.
         21    1    1    2  506  504 -0.46712657394E+01 -0.79143883008E+02 -0.12712765890E+04  0.12737463408E+04  0.00000000000E+00 0.  1.
<scales pt_clust_3="122.20474" pt_clust_4="14000.00000" pt_clust_5="69.45893" pt_clust_6="79.28162"></scales>
<clustering>
<clus scale="   79.282">  2  6  1 -1</clus>
<clus scale="   69.459">  2  5  1 -1</clus>
<clus scale="  122.205">  2  3  1 -1</clus>
<clus scale="  122.205">  1  3  2 -1</clus>
</clustering>
</event>
<event>
 6    0  0.5563122E+002  0.2075447E+03  0.7546771E-02  0.1143525E+00
         21   -1    0    0  504  501  0.00000000000E+00  0.00000000000E+00  0.23360258751E+03  0.23360258751E+03  0.00000000000E+00 0. -1.
         21   -1    0    0  503  502 -0.00000000000E+00 -0.00000000000E+00 -0.34635419053E+03  0.34635419053E+03  0.00000000000E+00 0. -1.
         21    1    1    2  503  506 -0.12239868262E+03 -0.44119279403E+01 -0.15715453799E+03  0.19924470238E+03  0.00000000000E+00 0. -1.
         21    1    1    2  504  502 -0.52302411768E+01  0.33474982405E+02 -0.26751671686E+02  0.43169222923E+02  0.00000000000E+00 0. -1.
         21    1    1    2  505  501  0.19493003336E+03  0.18361298922E+02  0.13116010177E+03  0.23566465051E+03  0.00000000000E+00 0. -1.
         21    1    1    2  506  505 -0.67301109568E+02 -0.47424353387E+02 -0.60005495114E+02  0.10187820222E+03  0.00000000000E+00 0. -1.
<scales pt_clust_3="54.99121" pt_clust_4="33.88111" pt_clust_5="195.52825" pt_clust_6="54.99121"></scales>
<clustering>
<clus scale="   33.881">  2  4  1 -1</clus>
<clus scale="   54.991">  3  6 -1 -1</clus>
<clus scale="  195.528">  1  5  2 -1</clus>
<clus scale="  195.528">  1  3  2 -1</clus>
</clustering>
</event>
<event>
 6    0  0.5563122E+002  0.1121689E+03  0.7546771E-02  0.1256605E+00
         21   -1    0    0  505  501  0.00000000000E+00  0.00000000000E+00  0.62591606520E+03  0.62591606520E+03  0.00000000000E+00 0. -1.
         21   -1    0    0  501  502 -0.00000000000E+00 -0.00000000000E+00 -0.24853785794E+03  0.24853785794E+03  0.00000000000E+00 0. -1.
         21    1    1    2  503  502  0.18472159818E+02 -0.45566524115E+02 -0.47593134775E+01  0.49398176819E+02  0.00000000000E+00 0.  1.
         21    1    1    2  504  506  0.63761152409E+02 -0.10956692592E+02 -0.10706681050E+03  0.12509530599E+03  0.00000000000E+00 0. -1.
         21    1    1    2  505  504 -0.45567641640E+02  0.10662272143E+03  0.57916439777E+03  0.59065744246E+03  0.00000000000E+00 0. -1.
         21    1    1    2  506  503 -0.36665670587E+02 -0.50099504721E+02 -0.89960066534E+02  0.10930299787E+03  0.00000000000E+00 0. -1.
<scales pt_clust_3="49.16837" pt_clust_4="14000.00000" pt_clust_5="112.16886" pt_clust_6="76.08075"></scales>
<clustering>
<clus scale="   49.168">  2  3  1 -1</clus>
<clus scale="   76.081">  2  6  1 -1</clus>
<clus scale="  112.169">  1  5  2 -1</clus>
<clus scale="  112.169">  1  3  2 -1</clus>
</clustering>
</event>
<event>
 6    0  0.5563122E+002  0.8950631E+02  0.7546771E-02  0.1304052E+00
         21   -1    0    0  502  501  0.00000000000E+00  0.00000000000E+00  0.93732010486E+02  0.93732010486E+02  0.00000000000E+00 0. -1.
         21   -1    0    0  506  502 -0.00000000000E+00 -0.00000000000E+00 -0.16353030252E+04  0.16353030252E+04  0.00000000000E+00 0. -1.
         21    1    1    2  503  504 -0.27380452258E+02 -0.62284242650E+02 -0.58997949981E+03  0.59388957411E+03  0.00000000000E+00 0. -1.
         21    1    1    2  504  505  0.44878215083E+02  0.10341953207E+03 -0.34592047058E+03  0.36382774189E+03  0.00000000000E+00 0. -1.
         21    1    1    2  505  501  0.37181766493E+02 -0.44962296049E+02  0.71301168308E+02  0.92130062562E+02  0.00000000000E+00 0. -1.
         21    1    1    2  506  503 -0.54679529318E+02  0.38270066321E+01 -0.67697221259E+03  0.67918765708E+03  0.00000000000E+00 0. -1.
<scales pt_clust_3="14000.00000" pt_clust_4="89.50631" pt_clust_5="57.93500" pt_clust_6="54.81329"></scales>
<clustering>
<clus scale="   54.813">  2  6  1 -1</clus>
<clus scale="   57.935">  1  5  2 -1</clus>
<clus scale="   89.506">  1  4  2 -1</clus>
<clus scale="   57.935">  1  3  2 -1</clus>
</clustering>
</event>
<event>
 6    0  0.5563122E+002  0.6729802E+02  0.7546771E-02  0.1369530E+00
         21   -1    0    0  504  501  0.00000000000E+00  0.00000000000E+00  0.39675105815E+03  0.39675105815E+03  0.00000000000E+00 0. -1.
         21   -1    0    0  503  502 -0.00000000000E+00 -0.00000000000E+00 -0.32501449927E+03  0.32501449927E+03  0.00000000000E+00 0. -1.
         21    1    1    2  503  501 -0.26406991679E+02 -0.10090515720E+03 -0.18954278191E+02  0.10601153060E+03  0.00000000000E+00 0. -1.
         21    1    1    2  504  506  0.13870010584E+02  0.28487189933E+02  0.33009103955E+03  0.33160818985E+03  0.00000000000E+00 0. -1.
         21    1    1    2  505  502  0.52004086619E+02  0.39569238873E+02 -0.21959245909E+03  0.22910913945E+03  0.00000000000E+00 0. -1.
         21    1    1    2  506  505 -0.39467105525E+02  0.32848728389E+02 -0.19807743389E+02  0.55036697516E+02  0.00000000000E+00 0. -1.
<scales pt_clust_3="14000.00000" pt_clust_4="31.68434" pt_clust_5="67.29802" pt_clust_6="54.00015"></scales>
<clustering>
<clus scale="   31.684">  1  4  2 -1</clus>
<clus scale="   54.000">  1  6  2 -1</clus>
<clus scale="   67.298">  2  5  1 -1</clus>
<clus scale="   31.684">  1  3  2 -1</clus>
</clustering>
</event>
<event>
 6    0  0.5563122E+002  0.1331666E+03  0.7546771E-02  0.1222831E+00
         21   -1    0    0  506  501  0.00000000000E+00  0.00000000000E+00  0.11624646429E+03  0.11624646429E+03  0.00000000000E+00 0.  1.
         21   -1    0    0  501  502 -0.00000000000E+00 -0.00000000000E+00 -0.22593445779E+03  0.22593445779E+03  0.00000000000E+00 0.  1.
         21    1    1    2  503  502 -0.10648649990E+03  0.56568067444E+02 -0.10466732116E+03  0.15967018831E+03  0.00000000000E+00 0.  1.
         21    1    1    2  504  505  0.28800588021E+02 -0.30725103698E+02 -0.48998644165E+01  0.42397105313E+02  0.00000000000E+00 0.  1.
         21    1    1    2  505  503  0.90026956521E+02  0.19268170618E+02 -0.90168725765E+01  0.92506320273E+02  0.00000000000E+00 0. -1.
         21    1    1    2  506  504 -0.12341044644E+02 -0.45111134364E+02  0.88960646539E+01  0.47607308187E+02  0.00000000000E+00 0.  1.
<scales pt_clust_3="118.23421" pt_clust_4="41.43876" pt_clust_5="41.43876" pt_clust_6="46.76875"></scales>
<clustering>
<clus scale="   41.439">  4  5 -1 -1</clus>
<clus scale="   46.769">  1  6  2 -1</clus>
<clus scale="  118.234">  2  3  1 -1</clus>
<clus scale="   46.769">  1  3  2 -1</clus>
</clustering>
</event>
<event>
 6    0  0.5563122E+002  0.1538970E+03  0.7546771E-02  0.1195765E+00
         21   -1    0    0  505  501  0.00000000000E+00  0.00000000000E+00  0.20593538408E+03  0.20593538408E+03  0.00000000000E+00 0.  1.
         21   -1    0    0  504  502 -0.00000000000E+00 -0.00000000000E+00 -0.28089392522E+03  0.28089392522E+03  0.00000000000E+00 0.  1.
         21    1    1    2  503  502  0.81695057836E+02  0.80655719954E+02 -0.49519214504E+02  0.12502631819E+03  0.00000000000E+00 0. -1.
         21    1    1    2  504  506 -0.85105466678E+02 -0.16103401761E+03 -0.54678343028E+02  0.19016996735E+03  0.00000000000E+00 0.  1.
         21    1    1    2  505  503 -0.69735102209E+01  0.12146099603E+03  0.39721100502E+02  0.12798112840E+03  0.00000000000E+00 0.  1.
         21    1    1    2  506  501  0.10383919063E+02 -0.41082698380E+02 -0.10482084108E+02  0.43651895360E+02  0.00000000000E+00 0.  1.
<scales pt_clust_3="114.80169" pt_clust_4="30.47634" pt_clust_5="140.32812" pt_clust_6="30.47634"></scales>
<clustering>
<clus scale="   30.476">  4  6 -1 -1</clus>
<clus scale="  114.802">  2  3  1 -1</clus>
<clus scale="  140.328">  1  5  2 -1</clus>
<clus scale="  140.328">  1  3  2 -1</clus>
</clustering>
</event>
<event>
 6    0  0.5563122E+002  0.1172237E+03  0.7546771E-02  0.1247749E+00
         21   -1    0    0  504  501  0.00000000000E+00  0.00000000000E+00  0.14210009717E+03  0.14210009717E+03  0.00000000000E+00 0. -1.
         21   -1    0    0  505  502 -0.00000000000E+00 -0.00000000000E+00 -0.34606127164E+03  0.34606127164E+03  0.00000000000E+00 0. -1.
         21    1    1    2  503  506  0.11676647728E+03  0.18715806826E+02 -0.14332669731E+02  0.11912227777E+03  0.00000000000E+00 0. -1.
         21    1    1    2  504  502 -0.36978636398E+02 -0.24762212387E+02 -0.18757893130E+02  0.48295395918E+02  0.00000000000E+00 0. -1.
         21    1    1    2  505  503 -0.11687165471E+03 -0.68095745463E+01 -0.22514600302E+03  0.25376382063E+03  0.00000000000E+00 0. -1.
         21    1    1    2  506  501  0.37083813836E+02  0.12855980108E+02  0.54275391417E+02  0.66979874490E+02  0.00000000000E+00 0. -1.
<scales pt_clust_3="14000.00000" pt_clust_4="37.66472" pt_clust_5="117.22367" pt_clust_6="39.24902"></scales>
<clustering>
<clus scale="   39.249">  1  6  2 -1</clus>
<clus scale="   37.665">  1  4  2 -1</clus>
<clus scale="  117.224">  2  5  1 -1</clus>
<clus scale="   39.249">  1  3  2 -1</clus>
</clustering>
</event>
<event>
 6    0  0.5563122E+002  0.1144879E+03  0.7546771E-02  0.1252478E+00
         21   -1    0    0  502  501  0.00000000000E+00  0.00000000000E+00  0.37712732516E+04  0.37712732516E+04  0.00000000000E+00 0. -1.
         21   -1    0    0  505  502 -0.00000000000E+00 -0.00000000000E+00 -0.98005400235E+02  0.98005400235E+02  0.00000000000E+00 0.  1.
         21    1    1    2  503  504  0.44598275007E+02 -0.36998504387E+02  0.49672450820E+03  0.50009312383E+03  0.00000000000E+00 0. -1.
         21    1    1    2  504  506  0.62524506897E+02 -0.28495018294E+02  0.12211812411E+04  0.12231127927E+04  0.00000000000E+00 0. -1.
         21    1    1    2  505  503 -0.10292181693E+03 -0.63402779766E+01 -0.66649410690E+02  0.12278128306E+03  0.00000000000E+00 0.  1.
         21    1    1    2  506  501 -0.42009649746E+01  0.71833800657E+02  0.20220115127E+04  0.20232914522E+04  0.00000000000E+00 0. -1.
<scales pt_clust_3="45.67536" pt_clust_4="45.67536" pt_clust_5="103.11980" pt_clust_6="71.95654"></scales>
<clustering>
<clus scale="   45.675">  3  4 -1 -1</clus>
<clus scale="   71.957">  1  6  2 -1</clus>
<clus scale="  103.120">  2  5  1 -1</clus>
<clus scale="   71.957">  1  3  2 -1</clus>
</clustering>
</event>
<event>
 6    0  0.5563122E+002  0.1130551E+03  0.7546771E-02  0.1255015E+00
         21   -1    0    0  503  501  0.00000000000E+00  0.00000000000E+00  0.30843539091E+02  0.30843539091E+02  0.00000000000E+00 0. -1.
         21   -1    0    0  504  502 -0.00000000000E+00 -0.00000000000E+00 -0.13346093268E+04  0.13346093268E+04  0.00000000000E+00 0. -1.
         21    1    1    2  503  506 -0.28353514332E+02 -0.53940132268E+02 -0.79908806992E+02  0.10049316931E+03  0.00000000000E+00 0. -1.
         21    1    1    2  504  501  0.83765305132E+01  0.93101345598E+02 -0.94109077765E+03  0.94572188226E+03  0.00000000000E+00 0. -1.
         21    1    1    2  505  502  0.57438055885E+02 -0.39605577336E+01 -0.25376999336E+03  0.26021918801E+03  0.00000000000E+00 0. -1.
         21    1    1    2  506  505 -0.37461072066E+02 -0.35200655597E+02 -0.28996209742E+02  0.59018626333E+02  0.00000000000E+00 0. -1.
<scales pt_clust_3="33.19243" pt_clust_4="107.12325" pt_clust_5="57.57444" pt_clust_6="33.19243"></scales>
<clustering>
<clus scale="   33.192">  3  6 -1 -1</clus>
<clus scale="   57.574">  2  5  1 -1</clus>
<clus scale="  107.123">  2  4  1 -1</clus>
<clus scale="  113.055">  1  3  2 -1</clus>
</clustering>
</event>
<event>
 6    0  0.5563122E+002  0.2187955E+03  0.7546771E-02  0.1134784E+00
         21   -1    0    0  503  501  0.00000000000E+00  0.00000000000E+00  0.97744768803E+03  0.97744768803E+03  0.00000000000E+00 0. -1.
         21   -1    0    0  506  502 -0.00000000000E+00 -0.00000000000E+00 -0.61410921450E+03  0.61410921450E+03  0.00000000000E+00 0.  1.
         21    1    1    2  503  505  0.82106447688E+02 -0.75273300158E+02  0.15997613920E+03  0.19493563959E+03  0.00000000000E+00 0. -1.
         21    1    1    2  504  501  0.36056399149E+02  0.43979681083E+02  0.70458462707E+03  0.70687606620E+03  0.00000000000E+00 0. -1.
         21    1    1    2  505  502  0.52106144187E+02 -0.81337286363E+02  0.45040822675E+02  0.10658086189E+03  0.00000000000E+00 0. -1.
         21    1    1    2  506  504 -0.17026899102E+03  0.11263090544E+03 -0.54626311542E+03  0.58316433484E+03  0.00000000000E+00 0.  1.
<scales pt_clust_3="71.43547" pt_clust_4="56.87070" pt_clust_5="71.43547" pt_clust_6="203.79186"></scales>
<clustering>
<clus scale="   56.871">  1  4  2 -1</clus>
<clus scale="   71.435">  3  5 -1 -1</clus>
<clus scale="  203.792">  2  6  1 -1</clus>
<clus scale="   56.871">  1  3  2 -1</clus>
</clustering>
</event>
<event>
 6    0  0.5563122E+002  0.6682749E+02  0.7546771E-02  0.1371226E+00
         21   -1    0    0  504  501  0.00000000000E+00  0.00000000000E+00  0.21877661065E+02  0.21877661065E+02  0.00000000000E+00 0.  1.
         21   -1    0    0  503  502 -0.00000000000E+00 -0.00000000000E+00 -0.10987375400E+04  0.10987375400E+04  0.00000000000E+00 0.  1.
         21    1    1    2  503  501  0.61031971230E+02  0.91622090762E+02 -0.39774897004E+03  0.41270298302E+03  0.00000000000E+00 0.  1.
         21    1    1    2  504  505  0.22067923463E+02 -0.31650608492E+02 -0.37890423664E+02  0.54078077530E+02  0.00000000000E+00 0.  1.
         21    1    1    2  505  506 -0.24413784300E+02 -0.43645255519E+02 -0.13505901806E+03  0.14402041366E+03  0.00000000000E+00 0.  1.
         21    1    1    2  506  502 -0.58686110393E+02 -0.16326226751E+02 -0.50616146719E+03  0.50981372687E+03  0.00000000000E+00 0.  1.
<scales pt_clust_3="66.82749" pt_clust_4="38.58438" pt_clust_5="56.62233" pt_clust_6="14000.00000"></scales>
<clustering>
<clus scale="   38.584">  1  4  2 -1</clus>
<clus scale="   56.622">  1  5  2 -1</clus>
<clus scale="   66.827">  1  3  2 -1</clus>
<clus scale="   38.584">  1  3  2 -1</clus>
</clustering>
</event>
<event>
 6    0  0.5563122E+002  0.1190364E+03  0.7546771E-02  0.1244695E+00
         21   -1    0    0  504  501  0.00000000000E+00  0.00000000000E+00  0.28952058308E+03  0.28952058308E+03  0.00000000000E+00 0.  1.
         21   -1    0    0  506  502 -0.00000000000E+00 -0.00000000000E+00 -0.29525494779E+03  0.29525494779E+03  0.00000000000E+00 0.  1.
         21    1    1    2  503  502  0.68144049443E+02 -0.11275862381E+02 -0.18289987125E+03  0.19550733861E+03  0.00000000000E+00 0.  1.
         21    1    1    2  504  503 -0.10342162441E+03  0.86203885526E+02  0.93444050177E+02  0.16388695125E+03  0.00000000000E+00 0.  1.
         21    1    1    2  505  501 -0.71340236316E+02 -0.62963575010E+02  0.67991174228E+02  0.11694717127E+03  0.00000000000E+00 0.  1.
         21    1    1    2  506  505  0.10661781129E+03 -0.11964448134E+02  0.15730282138E+02  0.10843406973E+03  0.00000000000E+00 0.  1.
<scales pt_clust_3="69.07066" pt_clust_4="14000.00000" pt_clust_5="85.97435" pt_clust_6="119.03636"></scales>
<clustering>
<clus scale="   69.071">  2  3  1 -1</clus>
<clus scale="   85.974">  1  5  2 -1</clus>
<clus scale="  119.036">  1  6  2 -1</clus>
<clus scale="   85.974">  1  3  2 -1</clus>
</clustering>
</event>
<event>
 6    0  0.5563122E+002  0.1768927E+03  0.7546771E-02  0.1170845E+00
         21   -1    0    0  505  501  0.00000000000E+00  0.00000000000E+00  0.60012624117E+02  0.60012624117E+02  0.00000000000E+00 0. -1.
         21   -1    0    0  504  502 -0.00000000000E+00 -0.00000000000E+00 -0.76258933617E+03  0.76258933617E+03  0.00000000000E+00 0. -1.
         21    1    1    2  503  502 -0.25588333314E+02 -0.83997471836E+02 -0.24019725883E+03  0.25574413234E+03  0.00000000000E+00 0. -1.
         21    1    1    2  504  506 -0.33348347237E+02  0.27335063995E+02 -0.22898238730E+03  0.23300697775E+03  0.00000000000E+00 0. -1.
         21    1    1    2  505  503 -0.45942396024E+02 -0.63957965379E+02 -0.82067800176E+02  0.11373851113E+03  0.00000000000E+00 0. -1.
         21    1    1    2  506  501  0.10487907658E+03  0.12062037322E+03 -0.15132926575E+03  0.22011233907E+03  0.00000000000E+00 0. -1.
<scales pt_clust_3="73.52326" pt_clust_4="43.11981" pt_clust_5="73.52326" pt_clust_6="160.11192"></scales>
<clustering>
<clus scale="   43.120">  2  4  1 -1</clus>
<clus scale="   73.523">  3  5 -1 -1</clus>
<clus scale="  160.112">  1  6  2 -1</clus>
<clus scale="  160.112">  1  3  2 -1</clus>
</clustering>
</event>
<event>
 6    0  0.5563122E+002  0.1999715E+03  0.7546771E-02  0.1149763E+00
         21   -1    0    0  504  501  0.00000000000E+00  0.00000000000E+00  0.22968441794E+03  0.22968441794E+03  0.00000000000E+00 0. -1.
         21   -1    0    0  503  502 -0.00000000000E+00 -0.00000000000E+00 -0.15112512556E+04  0.15112512556E+04  0.00000000000E+00 0.  1.
         21    1    1    2  503  505 -0.21315511880E+02 -0.57542429821E+02 -0.25377326720E+03  0.26108686949E+03  0.00000000000E+00 0.  1.
         21    1    1    2  504  506  0.81281194526E+02  0.17479278224E+03  0.16998475325E+03  0.25700966060E+03  0.00000000000E+00 0. -1.
         21    1    1    2  505  501 -0.14326670439E+02 -0.16191911586E+03 -0.10400021663E+04  0.10526288802E+04  0.00000000000E+00 0.  1.
         21    1    1    2  506  502 -0.45639012207E+02  0.44668763434E+02 -0.15777615746E+03  0.17021026328E+03  0.00000000000E+00 0. -1.
<scales pt_clust_3="31.08986" pt_clust_4="193.46349" pt_clust_5="31.08986" pt_clust_6="63.86093"></scales>
<clustering>
<clus scale="   31.090">  3  5 -1 -1</clus>
<clus scale="   63.861">  2  6  1 -1</clus>
<clus scale="  193.463">  1  4  2 -1</clus>
<clus scale="  193.463">  1  3  2 -1</clus>
</clustering>
</event>
<event>
 6    0  0.5563122E+002  0.1680060E+03  0.7546771E-02  0.1179943E+00
         21   -1    0    0  503  501  0.00000000000E+00  0.00000000000E+00  0.55173971172E+03  0.55173971172E+03  0.00000000000E+00 0.  1.
         21   -1    0    0  505  502 -0.00000000000E+00 -0.00000000000E+00 -0.15297131168E+03  0.15297131168E+03  0.00000000000E+00 0.  1.
         21    1    1    2  503  502 -0.31382009795E+02 -0.23864593950E+02  0.24357781813E+03  0.24674785281E+03  0.00000000000E+00 0. -1.
         21    1    1    2  504  501 -0.48595072313E+02 -0.14608065324E+01  0.49930557034E+02  0.69689852450E+02  0.00000000000E+00 0.  1.
         21    1    1    2  505  506  0.12523692827E+03  0.94929236430E+02 -0.86449220738E+02  0.17935806616E+03  0.00000000000E+00 0.  1.
         21    1    1    2  506  504 -0.45259846165E+02 -0.69603835947E+02  0.19170924561E+03  0.20891525197E+03  0.00000000000E+00 0.  1.
<scales pt_clust_3="39.42524" pt_clust_4="52.42317" pt_clust_5="151.17518" pt_clust_6="52.42317"></scales>
<clustering>
<clus scale="   39.425">  1  3  2 -1</clus>
<clus scale="   52.423">  4  6 -1 -1</clus>
<clus scale="  151.175">  2  5  1 -1</clus>
<clus scale="   39.425">  1  3  2 -1</clus>
</clustering>
</event>
<event>
 6    0  0.5563122E+002  0.1496787E+03  0.7546771E-02  0.1200868E+00
         21   -1    0    0  503  501  0.00000000000E+00  0.00000000000E+00  0.30320535088E+03  0.30320535088E+03  0.00000000000E+00 0.  1.
         21   -1    0    0  505  502 -0.00000000000E+00 -0.00000000000E+00 -0.52587587027E+03  0.52587587027E+03  0.00000000000E+00 0. -1.
         21    1    1    2  503  504  0.41694967224E+02  0.34694954444E+02  0.20475883305E+03  0.21182159915E+03  0.00000000000E+00 0.  1.
         21    1    1    2  504  506 -0.10313335474E+03  0.13776567416E+02 -0.24794342444E+03  0.26889072946E+03  0.00000000000E+00 0. -1.
         21    1    1    2  505  501  0.99781216179E+02 -0.60585348218E+02  0.41395900202E+02  0.12385675627E+03  0.00000000000E+00 0.  1.
         21    1    1    2  506  502 -0.38342828662E+02  0.12113826358E+02 -0.22088182820E+03  0.22451213626E+03  0.00000000000E+00 0. -1.
<scales pt_clust_3="54.24214" pt_clust_4="33.84159" pt_clust_5="139.42840" pt_clust_6="33.84159"></scales>
<clustering>
<clus scale="   33.842">  4  6 -1 -1</clus>
<clus scale="   54.242">  1  3  2 -1</clus>
<clus scale="  139.428">  1  5  2 -1</clus>
<clus scale="   54.242">  1  3  2 -1</clus>
</clustering>
</event>
<event>
 6    0  0.5563122E+002  0.1184241E+03  0.7546771E-02  0.1245720E+00
         21   -1    0    0  503  501  0.00000000000E+00  0.00000000000E+00  0.69191462787E+02  0.69191462787E+02  0.00000000000E+00 0. -1.
         21   -1    0    0  504  502 -0.00000000000E+00 -0.00000000000E+00 -0.43647817694E+03  0.43647817694E+03  0.00000000000E+00 0. -1.
         21    1    1    2  503  506  0.92313691474E+02  0.46689292324E+02 -0.19023200482E+02  0.10518360047E+03  0.00000000000E+00 0. -1.
         21    1    1    2  504  505 -0.80494329784E+02 -0.21601882097E+02 -0.11196309262E+03  0.13957690549E+03  0.00000000000E+00 0. -1.
         21    1    1    2  505  501 -0.38042018047E+02 -0.43938471513E+02 -0.67616634889E+02  0.89161615787E+02  0.00000000000E+00 0. -1.
         21    1    1    2  506  502  0.26222656357E+02  0.18851061286E+02 -0.16868378616E+03  0.17174751798E+03  0.00000000000E+00 0. -1.
<scales pt_clust_3="110.89742" pt_clust_4="34.91049" pt_clust_5="34.91049" pt_clust_6="32.29536"></scales>
<clustering>
<clus scale="   32.295">  2  6  1 -1</clus>
<clus scale="   34.910">  4  5 -1 -1</clus>
<clus scale="  110.897">  1  3  2 -1</clus>
<clus scale="  110.897">  1  3  2 -1</clus>
</clustering>
</event>
<event>
 6    0  0.5563122E+002  0.2205786E+03  0.7546771E-02  0.1133452E+00
         21   -1    0    0  505  501  0.00000000000E+00  0.00000000000E+00  0.80452041392E+03  0.80452041392E+03  0.00000000000E+00 0. -1.
         21   -1    0    0  503  502 -0.00000000000E+00 -0.00000000000E+00 -0.61950970260E+03  0.61950970260E+03  0.00000000000E+00 0. -1.
         21    1    1    2  503  504 -0.40973040355E+02  0.77267445594E+02 -0.41784615893E+03  0.42690099639E+03  0.00000000000E+00 0. -1.
         21    1    1    2  504  506  0.10551943522E+03  0.83200365293E+02 -0.44651344427E+02  0.14159941579E+03  0.00000000000E+00 0. -1.
         21    1    1    2  505  502  0.11083888976E+03  0.14623613294E+03  0.34346500514E+03  0.38940785280E+03  0.00000000000E+00 0. -1.
         21    1    1    2  506  501 -0.17538528463E+03 -0.30670394383E+03  0.30404320953E+03  0.46612185154E+03  0.00000000000E+00 0. -1.
<scales pt_clust_3="87.45884" pt_clust_4="147.48744" pt_clust_5="220.57863" pt_clust_6="14000.00000"></scales>
<clustering>
<clus scale="   87.459">  2  3  1 -1</clus>
<clus scale="  147.487">  2  4  1 -1</clus>
<clus scale="  220.579">  1  5  2 -1</clus>
<clus scale="  220.579">  1  3  2 -1</clus>
</clustering>
</event>
<event>
 6    0  0.5563122E+002  0.6428224E+02  0.7546771E-02  0.1380692E+00
         21   -1    0    0  505  501  0.00000000000E+00  0.00000000000E+00  0.94549294526E+03  0.94549294526E+03  0.00000000000E+00 0. -1.
         21   -1    0    0  506  502 -0.00000000000E+00 -0.00000000000E+00 -0.33306189829E+02  0.33306189829E+02  0.00000000000E+00 0. -1.
         21    1    1    2  503  502 -0.65735454695E+01 -0.62691833352E+02  0.26642954001E+02  0.68434819113E+02  0.00000000000E+00 0. -1.
         21    1    1    2  504  501 -0.18497947074E+02 -0.46891609399E+02  0.33306020702E+03  0.33685323003E+03  0.00000000000E+00 0. -1.
         21    1    1    2  505  503  0.61280311244E+02  0.34635508193E+02  0.23708061495E+03  0.24730975104E+03  0.00000000000E+00 0. -1.
         21    1    1    2  506  504 -0.36208818700E+02  0.74947934558E+02  0.31540297945E+03  0.32620133491E+03  0.00000000000E+00 0. -1.
<scales pt_clust_3="64.28224" pt_clust_4="50.40830" pt_clust_5="56.27487" pt_clust_6="14000.00000"></scales>
<clustering>
<clus scale="   50.408">  1  4  2 -1</clus>
<clus scale="   56.275">  1  5  2 -1</clus>
<clus scale="   64.282">  2  3  1 -1</clus>
<clus scale="   50.408">  1  3  2 -1</clus>
</clustering>
</event>
<event>
 6    0  0.5563122E+002  0.7493163E+02  0.7546771E-02  0.1344083E+00
         21   -1    0    0  503  501  0.00000000000E+00  0.00000000000E+00  0.13625506130E+03  0.13625506130E+03  0.00000000000E+00 0.  1.
         21   -1    0    0  506  502 -0.00000000000E+00 -0.00000000000E+00 -0.57165482824E+03  0.57165482824E+03  0.00000000000E+00 0.  1.
         21    1    1    2  503  504  0.33827979821E+02 -0.28195581543E+02  0.10637970392E+03  0.11513454930E+03  0.00000000000E+00 0.  1.
         21    1    1    2  504  502  0.22730448365E+02 -0.73046470025E+02 -0.18344627828E+03  0.19875864026E+03  0.00000000000E+00 0.  1.
         21    1    1    2  505  501  0.26094064379E+02  0.66941042086E+02 -0.12599112867E+03  0.14503712564E+03  0.00000000000E+00 0.  1.
         21    1    1    2  506  505 -0.82652492564E+02  0.34301009481E+02 -0.23234206390E+03  0.24897957434E+03  0.00000000000E+00 0.  1.
<scales pt_clust_3="44.03775" pt_clust_4="14000.00000" pt_clust_5="68.42528" pt_clust_6="74.93163"></scales>
<clustering>
<clus scale="   44.038">  1  3  2 -1</clus>
<clus scale="   68.425">  1  5  2 -1</clus>
<clus scale="   74.932">  1  6  2 -1</clus>
<clus scale="   44.038">  1  3  2 -1</clus>
</clustering>
</event>
<event>
 6    0  0.5563122E+002  0.9064422E+02  0.7546771E-02  0.1301299E+00
         21   -1    0    0  503  501  0.00000000000E+00  0.00000000000E+00  0.80129936763E+02  0.80129936763E+02  0.00000000000E+00 0.  1.
         21   -1    0    0  506  502 -0.00000000000E+00 -0.00000000000E+00 -0.73043447711E+03  0.73043447711E+03  0.00000000000E+00 0.  1.
         21    1    1    2  503  504  0.85217000796E+02 -0.35008888120E+02  0.34660373334E+02  0.98432215010E+02  0.00000000000E+00 0.  1.
         21    1    1    2  504  505 -0.65232106993E+02  0.29237497163E+02 -0.40936915677E+03  0.41556367206E+03  0.00000000000E+00 0.  1.
         21    1    1    2  505  502 -0.36410940671E+02  0.50021659003E+02 -0.16981326062E+03  0.18073313601E+03  0.00000000000E+00 0.  1.
         21    1    1    2  506  501  0.16426046869E+02 -0.44250268046E+02 -0.10578249629E+03  0.11583539079E+03  0.00000000000E+00 0.  1.
<scales pt_clust_3="90.64422" pt_clust_4="14000.00000" pt_clust_5="49.14855" pt_clust_6="47.20065"></scales>
<clustering>
<clus scale="   47.201">  2  6  1 -1</clus>
<clus scale="   49.149">  2  5  1 -1</clus>
<clus scale="   90.644">  1  3  2 -1</clus>
<clus scale="   90.644">  1  3  2 -1</clus>
</clustering>
</event>
<event>
 6    0  0.5563122E+002  0.1050403E+03  0.7546771E-02  0.1270040E+00
         21   -1    0    0  506  501  0.00000000000E+00  0.00000000000E+00  0.17895816790E+04  0.17895816790E+04  0.00000000000E+00 0. -1.
         21   -1    0    0  505  502 -0.00000000000E+00 -0.00000000000E+00 -0.21280493767E+03  0.21280493767E+03  0.00000000000E+00 0.  1.
         21    1    1    2  503  502 -0.88376091934E+02  0.96253637330E+02  0.75804716879E+03  0.76922727879E+03  0.00000000000E+00 0. -1.
         21    1    1    2  504  501  0.54063752005E+02 -0.62219752893E+02  0.73286415473E+03  0.73748495322E+03  0.00000000000E+00 0. -1.
         21    1    1    2  505  504  0.52239941134E+02  0.15128814096E+02 -0.19886877258E+03  0.20617148487E+03  0.00000000000E+00 0.  1.
         21    1    1    2  506  503 -0.17927601205E+02 -0.49162698533E+02  0.28473419043E+03  0.28950289983E+03  0.00000000000E+00 0. -1.
<scales pt_clust_3="14000.00000" pt_clust_4="105.04025" pt_clust_5="54.31152" pt_clust_6="52.32944"></scales>
<clustering>
<clus scale="   52.329">  1  6  2 -1</clus>
<clus scale="   54.312">  2  5  1 -1</clus>
<clus scale="  105.040">  1  4  2 -1</clus>
<clus scale="   52.329">  1  3  2 -1</clus>
</clustering>
</event>
<event>
 6    0  0.5563122E+002  0.7900464E+02  0.7546771E-02  0.1331900E+00
         21   -1    0    0  506  501  0.00000000000E+00  0.00000000000E+00  0.11069808288E+04  0.11069808288E+04  0.00000000000E+00 0. -1.
         21   -1    0    0  505  502 -0.00000000000E+00 -0.00000000000E+00 -0.94184650074E+02  0.94184650074E+02  0.00000000000E+00 0. -1.
         21    1    1    2  503  501  0.59669597729E+01 -0.89930937904E+02  0.41541161303E+03  0.42507644777E+03  0.00000000000E+00 0. -1.
         21    1    1    2  504  503  0.87477646096E+02  0.24907934963E+02  0.56911247787E+03  0.57633476059E+03  0.00000000000E+00 0. -1.
         21    1    1    2  505  504 -0.42581135904E+02  0.38101217541E+02 -0.67243550585E+02  0.88241435892E+02  0.00000000000E+00 0. -1.
         21    1    1    2  506  502 -0.50863469965E+02  0.26921785401E+02  0.95515638361E+02  0.11151283459E+03  0.00000000000E+00 0. -1.
<scales pt_clust_3="79.00464" pt_clust_4="14000.00000" pt_clust_5="57.13892" pt_clust_6="76.29412"></scales>
<clustering>
<clus scale="   57.139">  2  5  1 -1</clus>
<clus scale="   79.005">  1  3  2 -1</clus>
<clus scale="   76.294">  2  6  1 -1</clus>
<clus scale="   79.005">  1  3  2 -1</clus>
</clustering>
</event>
<event>
 6    0  0.5563122E+002  0.1978030E+03  0.7546771E-02  0.1151606E+00
         21   -1    0    0  503  501  0.00000000000E+00  0.00000000000E+00  0.68801215832E+03  0.68801215832E+03  0.00000000000E+00 0. -1.
         21   -1    0    0  504  502 -0.00000000000E+00 -0.00000000000E+00 -0.13677086330E+04  0.13677086330E+04  0.00000000000E+00 0.  1.
         21    1    1    2  503  505  0.14528193646E+02 -0.19277719354E+03  0.59233770315E+03  0.62308752943E+03  0.00000000000E+00 0. -1.
         21    1    1    2  504  501 -0.15916171656E+02  0.30365048018E+02 -0.12589520689E+04  0.12594187836E+04  0.00000000000E+00 0.  1.
         21    1    1    2  505  506  0.79005173181E+01  0.10269943832E+03  0.19571510175E+02  0.10484577634E+03  0.00000000000E+00 0. -1.
         21    1    1    2  506  502 -0.65125393086E+01  0.59712707200E+02 -0.32653619143E+02  0.68368701995E+02  0.00000000000E+00 0. -1.
<scales pt_clust_3="188.87444" pt_clust_4="34.28353" pt_clust_5="47.57180" pt_clust_6="47.57180"></scales>
<clustering>
<clus scale="   34.284">  2  4  1 -1</clus>
<clus scale="   47.572">  5  6 -1 -1</clus>
<clus scale="  188.874">  1  3  2 -1</clus>
<clus scale="  188.874">  1  3  2 -1</clus>
</clustering>
</event>
<event>
 6    0  0.5563122E+002  0.1031345E+03  0.7546771E-02  0.1273839E+00
         21   -1    0    0  505  501  0.00000000000E+00  0.00000000000E+00  0.40897855214E+03  0.40897855214E+03  0.00000000000E+00 0. -1.
         21   -1    0    0  504  502 -0.00000000000E+00 -0.00000000000E+00 -0.74488386617E+03  0.74488386617E+03  0.00000000000E+00 0.  1.
         21    1    1    2  503  501 -0.10114201266E+03 -0.16604639944E+02  0.37574726927E+03  0.38947584156E+03  0.00000000000E+00 0. -1.
         21    1    1    2  504  506 -0.36290579898E+02  0.65404750040E+01 -0.49620208781E+02  0.61821914578E+02  0.00000000000E+00 0.  1.
         21    1    1    2  505  502  0.14891354670E+03  0.66859565352E+02 -0.57715590072E+03  0.59979528141E+03  0.00000000000E+00 0.  1.
         21    1    1    2  506  503 -0.11480954141E+02 -0.56795400411E+02 -0.84876473800E+02  0.10276938075E+03  0.00000000000E+00 0. -1.
<scales pt_clust_3="103.13449" pt_clust_4="36.87525" pt_clust_5="14000.00000" pt_clust_6="58.26692"></scales>
<clustering>
<clus scale="   36.875">  2  4  1 -1</clus>
<clus scale="   58.267">  2  6  1 -1</clus>
<clus scale="  103.134">  1  3  2 -1</clus>
<clus scale="  103.134">  1  3  2 -1</clus>
</clustering>
</event>
<event>
 6    0  0.5563122E+002  0.1078757E+03  0.7546771E-02  0.1264555E+00
         21   -1    0    0  503  501  0.00000000000E+00  0.00000000000E+00  0.14138162744E+02  0.14138162744E+02  0.00000000000E+00 0.  1.
         21   -1    0    0  504  502 -0.00000000000E+00 -0.00000000000E+00 -0.35120644536E+04  0.35120644536E+04  0.00000000000E+00 0.  1.
         21    1    1    2  503  506  0.26599905032E+02 -0.39050666421E+02 -0.17699358420E+03  0.18319180752E+03  0.00000000000E+00 0.  1.
         21    1    1    2  504  501  0.55068776475E+02 -0.12778801836E+02 -0.93856257490E+02  0.10956671479E+03  0.00000000000E+00 0.  1.
         21    1    1    2  505  502 -0.11652806119E+03 -0.60216207016E+01 -0.26247967316E+04  0.26273889950E+04  0.00000000000E+00 0.  1.
         21    1    1    2  506  505  0.34859379680E+02  0.57851088959E+02 -0.60227971759E+03  0.60605509904E+03  0.00000000000E+00 0.  1.
<scales pt_clust_3="47.24944" pt_clust_4="14000.00000" pt_clust_5="107.87572" pt_clust_6="64.58874"></scales>
<clustering>
<clus scale="   47.249">  1  3  2 -1</clus>
<clus scale="   64.589">  1  6  2 -1</clus>
<clus scale="  107.876">  2  5  1 -1</clus>
<clus scale="   47.249">  1  3  2 -1</clus>
</clustering>
</event>
<event>
 6    0  0.5563122E+002  0.1119950E+03  0.7546771E-02  0.1256919E+00
         21   -1    0    0  503  501  0.00000000000E+00  0.00000000000E+00  0.44114318500E+02  0.44114318500E+02  0.00000000000E+00 0. -1.
         21   -1    0    0  506  502 -0.00000000000E+00 -0.00000000000E+00 -0.14965976218E+04  0.14965976218E+04  0.00000000000E+00 0.  1.
         21    1    1    2  503  502  0.92530871421E+02 -0.10396644784E+03 -0.10806240401E+04  0.10895500449E+04  0.00000000000E+00 0.  1.
         21    1    1    2  504  501 -0.12671852681E+02  0.36947760602E+02  0.16319538523E+02  0.42332495810E+02  0.00000000000E+00 0. -1.
         21    1    1    2  505  504 -0.81948468033E+02  0.35847035542E+02 -0.21514269602E+03  0.23299558155E+03  0.00000000000E+00 0.  1.
         21    1    1    2  506  505  0.20894492929E+01  0.31171651697E+02 -0.17303610575E+03  0.17583381803E+03  0.00000000000E+00 0.  1.
<scales pt_clust_3="14000.00000" pt_clust_4="39.34395" pt_clust_5="111.99503" pt_clust_6="31.24160"></scales>
<clustering>
<clus scale="   31.242">  2  6  1 -1</clus>
<clus scale="   39.344">  1  4  2 -1</clus>
<clus scale="  111.995">  1  5  2 -1</clus>
<clus scale="   39.344">  1  3  2 -1</clus>
</clustering>
</event>
<event>
 6    0  0.5563122E+002  0.1532406E+03  0.7546771E-02  0.1196547E+00
         21   -1    0    0  503  501  0.00000000000E+00  0.00000000000E+00  0.38263929492E+03  0.38263929492E+03  0.00000000000E+00 0.  1.
         21   -1    0    0  505  502 -0.00000000000E+00 -0.00000000000E+00 -0.18542482807E+04  0.18542482807E+04  0.00000000000E+00 0. -1.
         21    1    1    2  503  504 -0.74856987829E+02  0.81989706171E+02  0.29488553705E+03  0.31509262210E+03  0.00000000000E+00 0.  1.
         21    1    1    2  504  502  0.10151490811E+03 -0.97801948306E+01 -0.16824040673E+04  0.16854923240E+04  0.00000000000E+00 0. -1.
         21    1    1    2  505  506  0.38236009193E+02 -0.10412153888E+03 -0.11307360571E+03  0.15839484703E+03  0.00000000000E+00 0. -1.
         21    1    1    2  506  501 -0.64893929469E+02  0.31912027537E+02  0.28983150110E+02  0.77907782498E+02  0.00000000000E+00 0. -1.
<scales pt_clust_3="14000.00000" pt_clust_4="101.66767" pt_clust_5="153.24056" pt_clust_6="72.31597"></scales>
<clustering>
<clus scale="   72.316">  1  6  2 -1</clus>
<clus scale="  101.668">  2  4  1 -1</clus>
<clus scale="  153.241">  2  5  1 -1</clus>
<clus scale="   72.316">  1  3  2 -1</clus>
</clustering>
</event>
<event>
 6    0  0.5563122E+002  0.7375925E+02  0.7546771E-02  0.1347757E+00
         21   -1    0    0  506  501  0.00000000000E+00  0.00000000000E+00  0.14242800832E+04  0.14242800832E+04  0.00000000000E+00 0. -1.
         21   -1    0    0  504  502 -0.00000000000E+00 -0.00000000000E+00 -0.12128746569E+03  0.12128746569E+03  0.00000000000E+00 0. -1.
         21    1    1    2  503  502  0.71994336735E+02  0.12465294335E+02 -0.98059672167E+02  0.12228764202E+03  0.00000000000E+00 0. -1.
         21    1    1    2  504  505 -0.93747778022E+02 -0.65534505205E+02  0.52033871836E+03  0.53276242274E+03  0.00000000000E+00 0. -1.
         21    1    1    2  505  501 -0.31212792960E+02 -0.14402618962E+02  0.45209104051E+03  0.45339605511E+03  0.00000000000E+00 0. -1.
         21    1    1    2  506  503  0.52966234247E+02  0.67471829832E+02  0.42862253082E+03  0.43712142903E+03  0.00000000000E+00 0. -1.
<scales pt_clust_3="14000.00000" pt_clust_4="73.75925" pt_clust_5="34.37548" pt_clust_6="72.47965"></scales>
<clustering>
<clus scale="   34.375">  1  5  2 -1</clus>
<clus scale="   72.480">  1  6  2 -1</clus>
<clus scale="   73.759">  1  4  2 -1</clus>
<clus scale="   34.375">  1  3  2 -1</clus>
</clustering>
</event>
<event>
 6    0  0.5563122E+002  0.7564825E+02  0.7546771E-02  0.1341875E+00
         21   -1    0    0  506  501  0.00000000000E+00  0.00000000000E+00  0.72542439751E+03  0.72542439751E+03  0.00000000000E+00 0. -1.
         21   -1    0    0  504  502 -0.00000000000E+00 -0.00000000000E+00 -0.32237310314E+02  0.32237310314E+02  0.00000000000E+00 0. -1.
         21    1    1    2  503  501  0.60564706608E+02  0.53898002980E+02  0.15674321988E+03  0.17646958772E+03  0.00000000000E+00 0. -1.
         21    1    1    2  504  503 -0.19433742509E+02  0.29099137747E+02  0.12978008883E+02  0.37321024639E+02  0.00000000000E+00 0. -1.
         21    1    1    2  505  502 -0.55117112569E+02  0.20021162603E+01  0.13236554726E+03  0.14339645278E+03  0.00000000000E+00 0. -1.
         21    1    1    2  506  505  0.13986148470E+02 -0.84999256987E+02  0.39110031117E+03  0.40047464269E+03  0.00000000000E+00 0. -1.
<scales pt_clust_3="75.64825" pt_clust_4="34.99186" pt_clust_5="61.28035" pt_clust_6="14000.00000"></scales>
<clustering>
<clus scale="   34.992">  2  4  1 -1</clus>
<clus scale="   61.280">  2  5  1 -1</clus>
<clus scale="   75.648">  2  3  1 -1</clus>
<clus scale="   75.648">  1  3  2 -1</clus>
</clustering>
</event>
<event>
 6    0  0.5563122E+002  0.8671343E+02  0.7546771E-02  0.1311012E+00
         21   -1    0    0  505  501  0.00000000000E+00  0.00000000000E+00  0.26485561701E+03  0.26485561701E+03  0.00000000000E+00 0. -1.
         21   -1    0    0  503  502 -0.00000000000E+00 -0.00000000000E+00 -0.13023975756E+04  0.13023975756E+04  0.00000000000E+00 0. -1.
         21    1    1    2  503  506  0.43163093854E+02  0.46825952764E+02  0.31616970199E+02  0.71101021989E+02  0.00000000000E+00 0. -1.
         21    1    1    2  504  502  0.38431423497E+02  0.76836617926E+02 -0.11901720724E+04  0.11932687887E+04  0.00000000000E+00 0. -1.
         21    1    1    2  505  504 -0.12556024983E+03 -0.14822289806E+03  0.14940953500E+03  0.24506858835E+03  0.00000000000E+00 0. -1.
         21    1    1    2  506  501  0.43965732479E+02  0.24560327374E+02 -0.28396391434E+02  0.57814793605E+02  0.00000000000E+00 0. -1.
<scales pt_clust_3="73.58084" pt_clust_4="14000.00000" pt_clust_5="86.71343" pt_clust_6="50.36065"></scales>
<clustering>
<clus scale="   50.361">  1  6  2 -1</clus>
<clus scale="   73.581">  1  3  2 -1</clus>
<clus scale="   86.713">  1  5  2 -1</clus>
<clus scale="   50.361">  1  3  2 -1</clus>
</clustering>
</event>
<event>
 6    0  0.5563122E+002  0.1245576E+03  0.7546771E-02  0.1235762E+00
         21   -1    0    0  504  501  0.00000000000E+00  0.00000000000E+00  0.90438408890E+03  0.90438408890E+03  0.00000000000E+00 0. -1.
         21   -1    0    0  503  502 -0.00000000000E+00 -0.00000000000E+00 -0.25094323309E+03  0.25094323309E+03  0.00000000000E+00 0.  1.
         21    1    1    2  503  505 -0.37878926230E+02 -0.45914487539E+02 -0.17993394078E+03  0.18952355068E+03  0.00000000000E+00 0.  1.
         21    1    1    2  504  506  0.15584282402E+03  0.98584650506E+02  0.19303899647E+03  0.26696436705E+03  0.00000000000E+00 0. -1.
         21    1    1    2  505  501 -0.11915137504E+03  0.55332767059E+00  0.63414721340E+03  0.64524417441E+03  0.00000000000E+00 0.  1.
         21    1    1    2  506  502  0.11874772444E+01 -0.53223490637E+02  0.61885867194E+01  0.53595229857E+02  0.00000000000E+00 0. -1.
<scales pt_clust_3="96.51885" pt_clust_4="124.55764" pt_clust_5="14000.00000" pt_clust_6="53.23674"></scales>
<clustering>
<clus scale="   53.237">  2  6  1 -1</clus>
<clus scale="   96.519">  2  3  1 -1</clus>
<clus scale="  124.558">  2  4  1 -1</clus>
<clus scale="  124.558">  1  3  2 -1</clus>
</clustering>
</event>
<event>
 6    0  0.5563122E+002  0.9158496E+02  0.7546771E-02  0.1299058E+00
         21   -1    0    0  504  501  0.00000000000E+00  0.00000000000E+00  0.13137845079E+04  0.13137845079E+04  0.00000000000E+00 0. -1.
         21   -1    0    0  506  502 -0.00000000000E+00 -0.00000000000E+00 -0.31161857367E+02  0.31161857367E+02  0.00000000000E+00 0. -1.
         21    1    1    2  503  502 -0.40695097619E+02 -0.33798709916E+02  0.17998999621E+02  0.55878508835E+02  0.00000000000E+00 0. -1.
         21    1    1    2  504  505  0.25336341036E+02  0.25603529346E+02  0.52895907876E+03  0.53018409811E+03  0.00000000000E+00 0. -1.
         21    1    1    2  505  503  0.10708718664E+02  0.87352394323E+02  0.54998679065E+03  0.55698347133E+03  0.00000000000E+00 0. -1.
         21    1    1    2  506  501  0.46500379191E+01 -0.79157213752E+02  0.18567778153E+03  0.20190028702E+03  0.00000000000E+00 0. -1.
<scales pt_clust_3="51.21198" pt_clust_4="36.02042" pt_clust_5="91.58496" pt_clust_6="14000.00000"></scales>
<clustering>
<clus scale="   36.020">  1  4  2 -1</clus>
<clus scale="   51.212">  2  3  1 -1</clus>
<clus scale="   91.585">  1  5  2 -1</clus>
<clus scale="   36.020">  1  3  2 -1</clus>
</clustering>
</event>
<event>
 6    0  0.5563122E+002  0.1164020E+03  0.7546771E-02  0.1249153E+00
         21   -1    0    0  506  501  0.00000000000E+00  0.00000000000E+00  0.17775948587E+04  0.17775948587E+04  0.00000000000E+00 0.  1.
         21   -1    0    0  504  502 -0.00000000000E+00 -0.00000000000E+00 -0.78958729506E+02  0.78958729506E+02  0.00000000000E+00 0. -1.
         21    1    1    2  503  501 -0.67453095840E+02  0.58002631555E+02  0.14232735929E+04  0.14260511721E+04  0.00000000000E+00 0.  1.
         21    1    1    2  504  505  0.29340094179E+02 -0.25078236858E+02 -0.35813077638E+02  0.52652973518E+02  0.00000000000E+00 0. -1.
         21    1    1    2  505  503  0.33486922443E+02 -0.80897329614E+02  0.29966957491E+02  0.92540642178E+02  0.00000000000E+00 0. -1.
         21    1    1    2  506  502  0.46260792173E+01  0.47972934917E+02  0.28120865647E+03  0.28530880037E+03  0.00000000000E+00 0.  1.
<scales pt_clust_3="14000.00000" pt_clust_4="38.59740" pt_clust_5="116.40199" pt_clust_6="46.92517"></scales>
<clustering>
<clus scale="   38.597">  2  4  1 -1</clus>
<clus scale="   46.925">  1  6  2 -1</clus>
<clus scale="  116.402">  2  5  1 -1</clus>
<clus scale="   46.925">  1  3  2 -1</clus>
</clustering>
</event>
<event>
 6    0  0.5563122E+002  0.1255724E+03  0.7546771E-02  0.1234177E+00
         21   -1    0    0  504  501  0.00000000000E+00  0.00000000000E+00  0.28694603471E+03  0.28694603471E+03  0.00000000000E+00 0.  1.
         21   -1    0    0  503  502 -0.00000000000E+00 -0.00000000000E+00 -0.12067891169E+03  0.12067891169E+03  0.00000000000E+00 0.  1.
         21    1    1    2  503  505 -0.36691698738E+02  0.59335323338E+00 -0.53817713283E+01  0.37089031896E+02  0.00000000000E+00 0.  1.
         21    1    1    2  504  506  0.10937666180E+03 -0.74467257387E+02  0.11681795519E+03  0.17650796363E+03  0.00000000000E+00 0.  1.
         21    1    1    2  505  501 -0.56300721536E+02  0.11341682895E+03  0.74509989249E+02  0.14691795953E+03  0.00000000000E+00 0.  1.
         21    1    1    2  506  502 -0.16384241530E+02 -0.39542924794E+02 -0.19679050093E+02  0.47109991342E+02  0.00000000000E+00 0.  1.
<scales pt_clust_3="36.69650" pt_clust_4="125.57240" pt_clust_5="14000.00000" pt_clust_6="48.70266"></scales>
<clustering>
<clus scale="   36.696">  2  3  1 -1</clus>
<clus scale="   48.703">  2  6  1 -1</clus>
<clus scale="  125.572">  1  4  2 -1</clus>
<clus scale="  125.572">  1  3  2 -1</clus>
</clustering>
</event>
<event>
 6    0  0.5563122E+002  0.7478089E+02  0.7546771E-02  0.1344551E+00
         21   -1    0    0  506  501  0.00000000000E+00  0.00000000000E+00  0.49489064930E+03  0.49489064930E+03  0.00000000000E+00 0. -1.
         21   -1    0    0  503  502 -0.00000000000E+00 -0.00000000000E+00 -0.69138061310E+02  0.69138061310E+02  0.00000000000E+00 0.  1.
         21    1    1    2  503  504  0.70666432508E+02  0.82073771432E+01 -0.18419664101E+02  0.73487344138E+02  0.00000000000E+00 0.  1.
         21    1    1    2  504  501  0.50758992665E+00  0.46791674528E+02  0.77359827625E+02  0.90411621945E+02  0.00000000000E+00 0. -1.
         21    1    1    2  505  502 -0.10253461228E+03 -0.69976658339E+02  0.26719056693E+03  0.29461988814E+03  0.00000000000E+00 0. -1.
         21    1    1    2  506  505  0.31360589846E+02  0.14977606668E+02  0.99621857533E+02  0.10550985639E+03  0.00000000000E+00 0.  1.
<scales pt_clust_3="14000.00000" pt_clust_4="50.51180" pt_clust_5="74.78089" pt_clust_6="34.75364"></scales>
<clustering>
<clus scale="   34.754">  1  6  2 -1</clus>
<clus scale="   50.512">  1  4  2 -1</clus>
<clus scale="   74.781">  1  5  2 -1</clus>
<clus scale="   34.754">  1  3  2 -1</clus>
</clustering>
</event>
<event>
 6    0  0.5563122E+002  0.1150838E+03  0.7546771E-02  0.1251435E+00
         21   -1    0    0  506  501  0.00000000000E+00  0.00000000000E+00  0.27214327936E+03  0.27214327936E+03  0.00000000000E+00 0. -1.
         21   -1    0    0  504  502 -0.00000000000E+00 -0.00000000000E+00 -0.12509829474E+03  0.12509829474E+03  0.00000000000E+00 0.  1.
         21    1    1    2  503  501  0.24270635239E+02 -0.40354192169E+02  0.14421767163E+03  0.15171111156E+03  0.00000000000E+00 0. -1.
         21    1    1    2  504  503 -0.24409658445E+02 -0.78926559209E+02  0.64157004113E+02  0.10460092901E+03  0.00000000000E+00 0. -1.
         21    1    1    2  505  502  0.20646555848E+02  0.76466831139E+02 -0.42224805803E+02  0.89757399461E+02  0.00000000000E+00 0.  1.
         21    1    1    2  506  505 -0.20507532642E+02  0.42813920239E+02 -0.19104885324E+02  0.51172134062E+02  0.00000000000E+00 0.  1.
<scales pt_clust_3="47.09060" pt_clust_4="106.64139" pt_clust_5="33.49513" pt_clust_6="33.49513"></scales>
<clustering>
<clus scale="   33.495">  5  6 -1 -1</clus>
<clus scale="   47.091">  1  3  2 -1</clus>
<clus scale="  106.641">  1  4  2 -1</clus>
<clus scale="   47.091">  1  3  2 -1</clus>
</clustering>
</event>
<event>
 6    0  0.5563122E+002  0.8478606E+02  0.7546771E-02  0.1315993E+00
         21   -1    0    0  503  501  0.00000000000E+00  0.00000000000E+00  0.79038140280E+02  0.79038140280E+02  0.00000000000E+00 0.  1.
         21   -1    0    0  506  502 -0.00000000000E+00 -0.00000000000E+00 -0.59728276384E+03  0.59728276384E+03  0.00000000000E+00 0.  1.
         21    1    1    2  503  505  0.62794129406E+02 -0.53022428692E+02 -0.63897262364E+02  0.10410254930E+03  0.00000000000E+00 0.  1.
         21    1    1    2  504  501  0.13766278307E+02  0.46837835905E+02  0.16416652563E+02  0.51505337317E+02  0.00000000000E+00 0.  1.
         21    1    1    2  505  502  0.29912229640E+02  0.23705903910E+02 -0.37349031276E+03  0.37543538071E+03  0.00000000000E+00 0.  1.
         21    1    1    2  506  504 -0.10647263735E+03 -0.17521311123E+02 -0.97273701002E+02  0.14527763680E+03  0.00000000000E+00 0.  1.
<scales pt_clust_3="14000.00000" pt_clust_4="51.30322" pt_clust_5="38.16689" pt_clust_6="84.78606"></scales>
<clustering>
<clus scale="   38.167">  2  5  1 -1</clus>
<clus scale="   51.303">  1  4  2 -1</clus>
<clus scale="   84.786">  2  6  1 -1</clus>
<clus scale="   51.303">  1  3  2 -1</clus>
</clustering>
</event>
<event>
 6    0  0.5563122E+002  0.1171839E+03  0.7546771E-02  0.1247816E+00
         21   -1    0    0  505  501  0.00000000000E+00  0.00000000000E+00  0.10909954153E+03  0.10909954153E+03  0.00000000000E+00 0. -1.
         21   -1    0    0  506  502 -0.00000000000E+00 -0.00000000000E+00 -0.38819340537E+03  0.38819340537E+03  0.00000000000E+00 0. -1.
         21    1    1    2  503  502 -0.46509307816E+02 -0.76873312683E+02 -0.12313066377E+01  0.89856207535E+02  0.00000000000E+00 0. -1.
         21    1    1    2  504  501  0.38875137836E+02 -0.64763887607E+01 -0.62032542592E+02  0.73493239781E+02  0.00000000000E+00 0. -1.
         21    1    1    2  505  503 -0.60412841415E+02  0.39166996295E+02  0.27784965066E+02  0.77173630797E+02  0.00000000000E+00 0. -1.
         21    1    1    2  506  504  0.68047011396E+02  0.44182705149E+02 -0.24361497968E+03  0.25676986879E+03  0.00000000000E+00 0. -1.
<scales pt_clust_3="104.56033" pt_clust_4="36.87461" pt_clust_5="71.99837" pt_clust_6="36.87461"></scales>
<clustering>
<clus scale="   36.875">  4  6 -1 -1</clus>
<clus scale="   71.998">  1  5  2 -1</clus>
<clus scale="  104.560">  1  3  2 -1</clus>
<clus scale="   71.998">  1  3  2 -1</clus>
</clustering>
</event>
<event>
 6    0  0.5563122E+002  0.8207077E+02  0.7546771E-02  0.1323276E+00
         21   -1    0    0  506  501  0.00000000000E+00  0.00000000000E+00  0.57724939669E+03  0.57724939669E+03  0.00000000000E+00 0. -1.
         21   -1    0    0  504  502 -0.00000000000E+00 -0.00000000000E+00 -0.19920099291E+03  0.19920099291E+03  0.00000000000E+00 0. -1.
         21    1    1    2  503  501  0.62385070046E+02  0.38891176032E+02  0.11825595402E+03  0.13924399879E+03  0.00000000000E+00 0. -1.
         21    1    1    2  504  503  0.82756050667E+02 -0.61327568442E+01 -0.15711752733E+03  0.17768537369E+03  0.00000000000E+00 0. -1.
         21    1    1    2  505  502 -0.73398915280E+02 -0.56029572419E+02  0.11068826358E+03  0.14414785966E+03  0.00000000000E+00 0. -1.
         21    1    1    2  506  505 -0.71742205433E+02  0.23271153231E+02  0.30622171351E+03  0.31537315745E+03  0.00000000000E+00 0. -1.
<scales pt_clust_3="73.51476" pt_clust_4="14000.00000" pt_clust_5="82.07077" pt_clust_6="57.75030"></scales>
<clustering>
<clus scale="   73.515">  1  3  2 -1</clus>
<clus scale="   57.750">  1  6  2 -1</clus>
<clus scale="   82.071">  1  5  2 -1</clus>
<clus scale="   73.515">  1  3  2 -1</clus>
</clustering>
</event>
<event>
 6    0  0.5563122E+002  0.9789350E+02  0.7546771E-02  0.1284789E+00
         21   -1    0    0  506  501  0.00000000000E+00  0.00000000000E+00  0.13016918406E+03  0.13016918406E+03  0.00000000000E+00 0.  1.
         21   -1    0    0  505  502 -0.00000000000E+00 -0.00000000000E+00 -0.20092497741E+04  0.20092497741E+04  0.00000000000E+00 0. -1.
         21    1    1    2  503  504 -0.10593020292E+02 -0.87319630905E+02  0.30716988863E+01  0.88013438488E+02  0.00000000000E+00 0.  1.
         21    1    1    2  504  502  0.17126204404E+02  0.30317994170E+02 -0.18700722176E+04  0.18703963716E+04  0.00000000000E+00 0. -1.
         21    1    1    2  505  501 -0.13377205580E+02 -0.49989547764E+02 -0.45295315113E+02  0.68771869874E+02  0.00000000000E+00 0.  1.
         21    1    1    2  506  503  0.68440214688E+01  0.10699118450E+03  0.33215243849E+02  0.11223727818E+03  0.00000000000E+00 0.  1.
<scales pt_clust_3="14000.00000" pt_clust_4="34.82079" pt_clust_5="38.08431" pt_clust_6="97.89350"></scales>
<clustering>
<clus scale="   34.821">  2  4  1 -1</clus>
<clus scale="   38.084">  2  5  1 -1</clus>
<clus scale="   97.894">  1  6  2 -1</clus>
<clus scale="   97.894">  1  3  2 -1</clus>
</clustering>
</event>
<event>
 6    0  0.5563122E+002  0.2620726E+03  0.7546771E-02  0.1105904E+00
         21   -1    0    0  504  501  0.00000000000E+00  0.00000000000E+00  0.11728896823E+04  0.11728896823E+04  0.00000000000E+00 0.  1.
         21   -1    0    0  505  502 -0.00000000000E+00 -0.00000000000E+00 -0.30381685186E+03  0.30381685186E+03  0.00000000000E+00 0.  1.
         21    1    1    2  503  501  0.20420253363E+03  0.14141985285E+03  0.96426885721E+03  0.99574729651E+03  0.00000000000E+00 0.  1.
         21    1    1    2  504  502  0.71584457775E+02 -0.95428804407E+02  0.77381545990E+02  0.14219316075E+03  0.00000000000E+00 0.  1.
         21    1    1    2  505  506 -0.42877274232E+02 -0.27164619353E+02 -0.62363186952E+02  0.80408608227E+02  0.00000000000E+00 0.  1.
         21    1    1    2  506  503 -0.23290971717E+03 -0.18826429087E+02 -0.11021438579E+03  0.25835746868E+03  0.00000000000E+00 0.  1.
<scales pt_clust_3="248.74939" pt_clust_4="119.29372" pt_clust_5="38.44952" pt_clust_6="38.44952"></scales>
<clustering>
<clus scale="   38.450">  5  6 -1 -1</clus>
<clus scale="  119.294">  2  4  1 -1</clus>
<clus scale="  248.749">  1  3  2 -1</clus>
<clus scale="  248.749">  1  3  2 -1</clus>
</clustering>
</event>
<event>
 6    0  0.5563122E+002  0.2130122E+03  0.7546771E-02  0.1139203E+00
         21   -1    0    0  503  501  0.00000000000E+00  0.00000000000E+00  0.50684747453E+03  0.50684747453E+03  0.00000000000E+00 0.  1.
         21   -1    0    0  504  502 -0.00000000000E+00 -0.00000000000E+00 -0.48763881806E+03  0.48763881806E+03  0.00000000000E+00 0.  1.
         21    1    1    2  503  506 -0.22969115681E+02 -0.19997756647E+02  0.17769312417E+03  0.18028404512E+03  0.00000000000E+00 0.  1.
         21    1    1    2  504  505  0.12465274236E+03 -0.73158753642E+02 -0.31222214500E+03  0.34405403244E+03  0.00000000000E+00 0.  1.
         21    1    1    2  505  501  0.68012903841E+02 -0.77437169085E+01 -0.11671133950E+03  0.13530431260E+03  0.00000000000E+00 0. -1.
         21    1    1    2  506  502 -0.16969653052E+03  0.10090022720E+03  0.27044901679E+03  0.33484390244E+03  0.00000000000E+00 0.  1.
<scales pt_clust_3="30.45473" pt_clust_4="31.71602" pt_clust_5="31.71602" pt_clust_6="207.93978"></scales>
<clustering>
<clus scale="   30.455">  1  3  2 -1</clus>
<clus scale="   31.716">  4  5 -1 -1</clus>
<clus scale="  207.940">  1  6  2 -1</clus>
<clus scale="   30.455">  1  3  2 -1</clus>
</clustering>
</event>
<event>
 6    0  0.5563122E+002  0.1418626E+03  0.7546771E-02  0.1210844E+00
         21   -1    0    0  503  501  0.00000000000E+00  0.00000000000E+00  0.21550478646E+04  0.21550478646E+04  0.00000000000E+00 0. -1.
         21   -1    0    0  505  502 -0.00000000000E+00 -0.00000000000E+00 -0.26656747529E+02  0.26656747529E+02  0.00000000000E+00 0.  1.
         21    1    1    2  503  504  0.14495677005E+02  0.10170284493E+03  0.16098562229E+04  0.16131306989E+04  0.00000000000E+00 0. -1.
         21    1    1    2  504  506  0.22120648699E+02  0.28095162487E+02  0.27252363110E+03  0.27485958371E+03  0.00000000000E+00 0. -1.
         21    1    1    2  505  501 -0.14627773577E+02 -0.31297632461E+02  0.15169422005E+03  0.15557843666E+03  0.00000000000E+00 0. -1.
         21    1    1    2  506  502 -0.21988552126E+02 -0.98500374959E+02  0.94317043048E+02  0.13813589288E+03  0.00000000000E+00 0.  1.
<scales pt_clust_3="32.12621" pt_clust_4="32.12621" pt_clust_5="34.54727" pt_clust_6="130.99570"></scales>
<clustering>
<clus scale="   32.126">  3  4 -1 -1</clus>
<clus scale="   34.547">  2  5  1 -1</clus>
<clus scale="  130.996">  2  6  1 -1</clus>
<clus scale="  141.863">  1  3  2 -1</clus>
</clustering>
</event>
<event>
 6    0  0.5563122E+002  0.9900664E+02  0.7546771E-02  0.1282399E+00
         21   -1    0    0  505  501  0.00000000000E+00  0.00000000000E+00  0.15778208214E+03  0.15778208214E+03  0.00000000000E+00 0.  1.
         21   -1    0    0  506  502 -0.00000000000E+00 -0.00000000000E+00 -0.29297629655E+03  0.29297629655E+03  0.00000000000E+00 0.  1.
         21    1    1    2  503  502  0.12764289217E+03  0.45794410795E+02 -0.13788704889E+03  0.19339771000E+03  0.00000000000E+00 0.  1.
         21    1    1    2  504  503  0.40647860170E+01 -0.74888416341E+02 -0.15415352500E+02  0.76566510173E+02  0.00000000000E+00 0.  1.
         21    1    1    2  505  504 -0.57594461137E+02 -0.65386964917E+01  0.64222715808E+02  0.86512621804E+02  0.00000000000E+00 0.  1.
         21    1    1    2  506  501 -0.74113217048E+02  0.35632702037E+02 -0.46114528831E+02  0.94281536713E+02  0.00000000000E+00 0.  1.
<scales pt_clust_3="99.00664" pt_clust_4="79.22674" pt_clust_5="57.96444" pt_clust_6="14000.00000"></scales>
<clustering>
<clus scale="   57.964">  1  5  2 -1</clus>
<clus scale="   79.227">  1  4  2 -1</clus>
<clus scale="   99.007">  1  3  2 -1</clus>
<clus scale="   57.964">  1  3  2 -1</clus>
</clustering>
</event>
<event>
 6    0  0.5563122E+002  0.8343240E+02  0.7546771E-02  0.1319584E+00
         21   -1    0    0  504  501  0.00000000000E+00  0.00000000000E+00  0.59171310050E+02  0.59171310050E+02  0.00000000000E+00 0.  1.
         21   -1    0    0  506  502 -0.00000000000E+00 -0.00000000000E+00 -0.65991020906E+03  0.65991020906E+03  0.00000000000E+00 0.  1.
         21    1    1    2  503  501  0.17548684347E+02  0.31313073559E+02 -0.70288702480E+01  0.36576904120E+02  0.00000000000E+00 0.  1.
         21    1    1    2  504  505 -0.93266401893E+02 -0.74450330099E+02 -0.80072755436E+02  0.14371193248E+03  0.00000000000E+00 0.  1.
         21    1    1    2  505  502  0.10062120641E+02  0.41455395463E+02 -0.43160500418E+03  0.43370805355E+03  0.00000000000E+00 0.  1.
         21    1    1    2  506  503  0.65655596905E+02  0.16818610772E+01 -0.82032269146E+02  0.10508462896E+03  0.00000000000E+00 0.  1.
<scales pt_clust_3="35.89519" pt_clust_4="14000.00000" pt_clust_5="43.47841" pt_clust_6="83.43240"></scales>
<clustering>
<clus scale="   35.895">  1  3  2 -1</clus>
<clus scale="   43.478">  2  5  1 -1</clus>
<clus scale="   83.432">  2  6  1 -1</clus>
<clus scale="   35.895">  1  3  2 -1</clus>
</clustering>
</event>
<event>
 6    0  0.5563122E+002  0.1112474E+03  0.7546771E-02  0.1258277E+00
         21   -1    0    0  503  501  0.00000000000E+00  0.00000000000E+00  0.11227895641E+03  0.11227895641E+03  0.00000000000E+00 0. -1.
         21   -1    0    0  505  502 -0.00000000000E+00 -0.00000000000E+00 -0.16572364041E+03  0.16572364041E+03  0.00000000000E+00 0. -1.
         21    1    1    2  503  506  0.97158499432E+02  0.52554588344E+02  0.26156662868E+02  0.11351620933E+03  0.00000000000E+00 0. -1.
         21    1    1    2  504  502 -0.58009693997E+02 -0.29026424638E+02 -0.44064062534E+02  0.78417469558E+02  0.00000000000E+00 0. -1.
         21    1    1    2  505  501 -0.24821633856E+02  0.18955132165E+02 -0.45332653982E+01  0.31558850388E+02  0.00000000000E+00 0. -1.
         21    1    1    2  506  504 -0.14327171579E+02 -0.42483295871E+02 -0.31004018935E+02  0.54510067544E+02  0.00000000000E+00 0. -1.
<scales pt_clust_3="103.38151" pt_clust_4="33.10899" pt_clust_5="31.23156" pt_clust_6="33.10899"></scales>
<clustering>
<clus scale="   31.232">  1  5  2 -1</clus>
<clus scale="   33.109">  4  6 -1 -1</clus>
<clus scale="  103.382">  1  3  2 -1</clus>
<clus scale="   31.232">  1  3  2 -1</clus>
</clustering>
</event>
<event>
 6    0  0.5563122E+002  0.1574089E+03  0.7546771E-02  0.1191653E+00
         21   -1    0    0  506  501  0.00000000000E+00  0.00000000000E+00  0.73991096507E+03  0.73991096507E+03  0.00000000000E+00 0. -1.
         21   -1    0    0  501  502 -0.00000000000E+00 -0.00000000000E+00 -0.43404374372E+02  0.43404374372E+02  0.00000000000E+00 0. -1.
         21    1    1    2  503  504 -0.98708288701E+02 -0.55169039880E+01  0.12223364686E+03  0.15720950007E+03  0.00000000000E+00 0. -1.
         21    1    1    2  504  502 -0.48224025845E+02  0.27174255008E+02  0.36283001797E+02  0.66184990922E+02  0.00000000000E+00 0.  1.
         21    1    1    2  505  503  0.65994820566E+02 -0.31835241413E+02  0.23656321357E+03  0.24765086908E+03  0.00000000000E+00 0. -1.
         21    1    1    2  506  505  0.80937493979E+02  0.10177890393E+02  0.30142672846E+03  0.31226997937E+03  0.00000000000E+00 0. -1.
<scales pt_clust_3="39.02071" pt_clust_4="39.02071" pt_clust_5="42.59613" pt_clust_6="155.17145"></scales>
<clustering>
<clus scale="   39.021">  3  4 -1 -1</clus>
<clus scale="   42.596">  5  6 -1 -1</clus>
<clus scale="  155.171">  1  5  2 -1</clus>
<clus scale="  155.171">  1  3  2 -1</clus>
</clustering>
</event>
<event>
 6    0  0.5563122E+002  0.1691122E+03  0.7546771E-02  0.1178777E+00
         21   -1    0    0  503  501  0.00000000000E+00  0.00000000000E+00  0.20986266542E+04  0.20986266542E+04  0.00000000000E+00 0. -1.
         21   -1    0    0  506  502 -0.00000000000E+00 -0.00000000000E+00 -0.30657690306E+02  0.30657690306E+02  0.00000000000E+00 0. -1.
         21    1    1    2  503  502  0.80968971928E+02  0.13131407546E+03  0.62519313144E+03  0.64394550424E+03  0.00000000000E+00 0. -1.
         21    1    1    2  504  501  0.58063260292E+01 -0.31883951598E+02  0.17139669516E+03  0.17443373213E+03  0.00000000000E+00 0.  1.
         21    1    1    2  505  504 -0.13964064445E+03 -0.11351450640E+03  0.12279152407E+04  0.12410321878E+04  0.00000000000E+00 0. -1.
         21    1    1    2  506  505  0.52865346492E+02  0.14084382531E+02  0.43463896543E+02  0.69872920318E+02  0.00000000000E+00 0. -1.
<scales pt_clust_3="169.11215" pt_clust_4="32.40833" pt_clust_5="14000.00000" pt_clust_6="54.64120"></scales>
<clustering>
<clus scale="   32.408">  1  4  2 -1</clus>
<clus scale="   54.641">  2  6  1 -1</clus>
<clus scale="  169.112">  2  3  1 -1</clus>
<clus scale="   32.408">  1  3  2 -1</clus>
</clustering>
</event>
<event>
 6    0  0.5563122E+002  0.1435008E+03  0.7546771E-02  0.1208694E+00
         21   -1    0    0  503  501  0.00000000000E+00  0.00000000000E+00  0.33948232781E+03  0.33948232781E+03  0.00000000000E+00 0. -1.
         21   -1    0    0  505  502 -0.00000000000E+00 -0.00000000000E+00 -0.74420841968E+03  0.74420841968E+03  0.00000000000E+00 0.  1.
         21    1    1    2  503  506 -0.94224159663E+02 -0.62829040192E+02  0.44521822072E+02  0.12168760494E+03  0.00000000000E+00 0. -1.
         21    1    1    2  504  501  0.22965305915E+02 -0.22462766570E+02  0.61700503692E+02  0.69562441832E+02  0.00000000000E+00 0.  1.
         21    1    1    2  505  504  0.98093824120E+02  0.15777948862E+03  0.14268317643E+03  0.23425467807E+03  0.00000000000E+00 0. -1.
         21    1    1    2  506  502 -0.26834970371E+02 -0.72487681859E+02 -0.65363159406E+03  0.65818602265E+03  0.00000000000E+00 0.  1.
<scales pt_clust_3="143.50081" pt_clust_4="32.12446" pt_clust_5="14000.00000" pt_clust_6="77.40466"></scales>
<clustering>
<clus scale="   32.124">  1  4  2 -1</clus>
<clus scale="   77.405">  2  6  1 -1</clus>
<clus scale="  143.501">  1  3  2 -1</clus>
<clus scale="   32.124">  1  3  2 -1</clus>
</clustering>
</event>
<event>
 6    0  0.5563122E+002  0.7305021E+02  0.7546771E-02  0.1350017E+00
         21   -1    0    0  503  501  0.00000000000E+00  0.00000000000E+00  0.62762095557E+03  0.62762095557E+03  0.00000000000E+00 0. -1.
         21   -1    0    0  505  502 -0.00000000000E+00 -0.00000000000E+00 -0.19479076414E+03  0.19479076414E+03  0.00000000000E+00 0. -1.
         21    1    1    2  503  506  0.40679236676E+02  0.33649470383E+02  0.22478456791E+03  0.23090082097E+03  0.00000000000E+00 0. -1.
         21    1    1    2  504  502  0.23797344348E+02  0.51629585532E+02 -0.16367081947E+03  0.17326299329E+03  0.00000000000E+00 0. -1.
         21    1    1    2  505  501  0.37712451013E+02 -0.55137511996E+02  0.23843878009E+03  0.24761951870E+03  0.00000000000E+00 0. -1.
         21    1    1    2  506  504 -0.10218903204E+03 -0.30141543919E+02  0.13327766289E+03  0.17062838675E+03  0.00000000000E+00 0. -1.
<scales pt_clust_3="52.79287" pt_clust_4="57.42160" pt_clust_5="14000.00000" pt_clust_6="73.05021"></scales>
<clustering>
<clus scale="   52.793">  1  3  2 -1</clus>
<clus scale="   57.422">  2  4  1 -1</clus>
<clus scale="   73.050">  2  6  1 -1</clus>
<clus scale="   52.793">  1  3  2 -1</clus>
</clustering>
</event>
<event>
 6    0  0.5563122E+002  0.1043242E+03  0.7546771E-02  0.1271457E+00
         21   -1    0    0  504  501  0.00000000000E+00  0.00000000000E+00  0.12446352301E+03  0.12446352301E+03  0.00000000000E+00 0.  1.
         21   -1    0    0  505  502 -0.00000000000E+00 -0.00000000000E+00 -0.32297499943E+03  0.32297499943E+03  0.00000000000E+00 0. -1.
         21    1    1    2  503  502 -0.70710680505E+02  0.73452424739E+02 -0.53969521376E+02  0.11536016763E+03  0.00000000000E+00 0.  1.
         21    1    1    2  504  503  0.66970656860E+02  0.26790809926E+02  0.64216180301E+02  0.96573982983E+02  0.00000000000E+00 0.  1.
         21    1    1    2  505  506 -0.57588648267E+01 -0.36425943717E+02 -0.12156317798E+03  0.12703393302E+03  0.00000000000E+00 0. -1.
         21    1    1    2  506  501  0.94988884715E+01 -0.63817290947E+02 -0.87194957363E+02  0.10847043881E+03  0.00000000000E+00 0. -1.
<scales pt_clust_3="95.20441" pt_clust_4="72.13055" pt_clust_5="32.25018" pt_clust_6="32.25018"></scales>
<clustering>
<clus scale="   32.250">  5  6 -1 -1</clus>
<clus scale="   72.131">  1  4  2 -1</clus>
<clus scale="   95.204">  1  3  2 -1</clus>
<clus scale="   72.131">  1  3  2 -1</clus>
</clustering>
</event>
<event>
 6    0  0.5563122E+002  0.1174615E+03  0.7546771E-02  0.1247344E+00
         21   -1    0    0  505  501  0.00000000000E+00  0.00000000000E+00  0.20172949218E+03  0.20172949218E+03  0.00000000000E+00 0. -1.
         21   -1    0    0  504  502 -0.00000000000E+00 -0.00000000000E+00 -0.48918120586E+03  0.48918120586E+03  0.00000000000E+00 0.  1.
         21    1    1    2  503  506 -0.54365102664E+02 -0.25024447798E+02  0.39752070083E+02  0.71847160356E+02  0.00000000000E+00 0. -1.
         21    1    1    2  504  501  0.58222531866E+02  0.12630195421E+03 -0.39326478993E+03  0.41713216353E+03  0.00000000000E+00 0.  1.
         21    1    1    2  505  503 -0.26037632634E+02 -0.20016899811E+02  0.10435568790E+03  0.10940175587E+03  0.00000000000E+00 0.  1.
         21    1    1    2  506  502  0.22180203432E+02 -0.81260606599E+02 -0.38294681725E+02  0.92529618272E+02  0.00000000000E+00 0.  1.
<scales pt_clust_3="78.80315" pt_clust_4="117.46151" pt_clust_5="32.84257" pt_clust_6="14000.00000"></scales>
<clustering>
<clus scale="   32.843">  1  5  2 -1</clus>
<clus scale="   78.803">  1  3  2 -1</clus>
<clus scale="  117.462">  2  4  1 -1</clus>
<clus scale="   32.843">  1  3  2 -1</clus>
</clustering>
</event>
<event>
 6    0  0.5563122E+002  0.1737270E+03  0.7546771E-02  0.1174016E+00
         21   -1    0    0  505  501  0.00000000000E+00  0.00000000000E+00  0.72104573026E+03  0.72104573026E+03  0.00000000000E+00 0.  1.
         21   -1    0    0  504  502 -0.00000000000E+00 -0.00000000000E+00 -0.14758824619E+03  0.14758824619E+03  0.00000000000E+00 0.  1.
         21    1    1    2  503  502  0.44352264286E+02  0.21460216148E+02 -0.33911913640E+02  0.59813728451E+02  0.00000000000E+00 0.  1.
         21    1    1    2  504  501 -0.17353745266E+03  0.19972473821E+02  0.18247974936E+03  0.25261236335E+03  0.00000000000E+00 0.  1.
         21    1    1    2  505  506 -0.25706586743E+02 -0.15822487815E+02  0.39529776836E+03  0.39644861633E+03  0.00000000000E+00 0.  1.
         21    1    1    2  506  503  0.15489177512E+03 -0.25610202154E+02  0.29591879991E+02  0.15975926832E+03  0.00000000000E+00 0.  1.
<scales pt_clust_3="48.07539" pt_clust_4="14000.00000" pt_clust_5="30.18575" pt_clust_6="173.72698"></scales>
<clustering>
<clus scale="   30.186">  1  5  2 -1</clus>
<clus scale="   48.075">  2  3  1 -1</clus>
<clus scale="  173.727">  2  6  1 -1</clus>
<clus scale="   30.186">  1  3  2 -1</clus>
</clustering>
</event>
<event>
 6    0  0.5563122E+002  0.1189385E+03  0.7546771E-02  0.1244858E+00
         21   -1    0    0  505  501  0.00000000000E+00  0.00000000000E+00  0.12786599000E+04  0.12786599000E+04  0.00000000000E+00 0. -1.
         21   -1    0    0  504  502 -0.00000000000E+00 -0.00000000000E+00 -0.45372785383E+03  0.45372785383E+03  0.00000000000E+00 0.  1.
         21    1    1    2  503  501 -0.11182955061E+03 -0.40388966016E+02  0.12459443852E+04  0.12516047811E+04  0.00000000000E+00 0. -1.
         21    1    1    2  504  506  0.35821919965E+02  0.37111082869E+01 -0.16362345041E+03  0.16753989316E+03  0.00000000000E+00 0.  1.
         21    1    1    2  505  502  0.12398125515E+03  0.15429482071E+02 -0.19662540445E+03  0.23296130627E+03  0.00000000000E+00 0.  1.
         21    1    1    2  506  503 -0.47973624501E+02  0.21248375658E+02 -0.60763484187E+02  0.80281773314E+02  0.00000000000E+00 0.  1.
<scales pt_clust_3="118.93852" pt_clust_4="36.01364" pt_clust_5="14000.00000" pt_clust_6="45.03394"></scales>
<clustering>
<clus scale="   36.014">  2  4  1 -1</clus>
<clus scale="   45.034">  2  6  1 -1</clus>
<clus scale="  118.939">  1  3  2 -1</clus>
<clus scale="  118.939">  1  3  2 -1</clus>
</clustering>
</event>
<event>
 6    0  0.5563122E+002  0.2520376E+03  0.7546771E-02  0.1112024E+00
         21   -1    0    0  505  501  0.00000000000E+00  0.00000000000E+00  0.32547772923E+04  0.32547772923E+04  0.00000000000E+00 0.  1.
         21   -1    0    0  506  502 -0.00000000000E+00 -0.00000000000E+00 -0.60966242985E+03  0.60966242985E+03  0.00000000000E+00 0. -1.
         21    1    1    2  503  502  0.10912876762E+03  0.22485118740E+03 -0.44576837970E+03  0.51105439313E+03  0.00000000000E+00 0. -1.
         21    1    1    2  504  501 -0.11733858143E+03 -0.48864169055E+02  0.28508302230E+04  0.28536623854E+04  0.00000000000E+00 0.  1.
         21    1    1    2  505  503 -0.14986160456E+03 -0.22097204816E+03  0.10461999843E+03  0.28676208023E+03  0.00000000000E+00 0.  1.
         21    1    1    2  506  504  0.15807141837E+03  0.44985029809E+02  0.13543302069E+03  0.21296086332E+03  0.00000000000E+00 0. -1.
<scales pt_clust_3="14000.00000" pt_clust_4="127.10645" pt_clust_5="252.03757" pt_clust_6="109.90909"></scales>
<clustering>
<clus scale="  127.106">  1  4  2 -1</clus>
<clus scale="  109.909">  1  6  2 -1</clus>
<clus scale="  252.038">  1  5  2 -1</clus>
<clus scale="  127.106">  1  3  2 -1</clus>
</clustering>
</event>
<event>
 6    0  0.5563122E+002  0.9389388E+02  0.7546771E-02  0.1293687E+00
         21   -1    0    0  505  501  0.00000000000E+00  0.00000000000E+00  0.16608443744E+03  0.16608443744E+03  0.00000000000E+00 0.  1.
         21   -1    0    0  506  502 -0.00000000000E+00 -0.00000000000E+00 -0.16905100385E+03  0.16905100385E+03  0.00000000000E+00 0.  1.
         21    1    1    2  503  504 -0.54484500195E+02  0.76955905015E+02  0.84657768510E+01  0.94670171943E+02  0.00000000000E+00 0.  1.
         21    1    1    2  504  501  0.21520511564E+02  0.57525914911E+02  0.24945693649E+02  0.66292163458E+02  0.00000000000E+00 0.  1.
         21    1    1    2  505  502  0.28599905676E+02 -0.35642045376E+02  0.30331340054E+02  0.54847973461E+02  0.00000000000E+00 0. -1.
         21    1    1    2  506  503  0.43640829546E+01 -0.98839774550E+02 -0.66709376961E+02  0.11932513242E+03  0.00000000000E+00 0.  1.
<scales pt_clust_3="93.89388" pt_clust_4="54.74719" pt_clust_5="45.69803" pt_clust_6="14000.00000"></scales>
<clustering>
<clus scale="   45.698">  1  5  2 -1</clus>
<clus scale="   54.747">  1  4  2 -1</clus>
<clus scale="   93.894">  1  3  2 -1</clus>
<clus scale="   45.698">  1  3  2 -1</clus>
</clustering>
</event>
<event>
 6    0  0.5563122E+002  0.1157028E+03  0.7546771E-02  0.1250359E+00
         21   -1    0    0  502  501  0.00000000000E+00  0.00000000000E+00  0.46128970042E+03  0.46128970042E+03  0.00000000000E+00 0. -1.
         21   -1    0    0  506  502 -0.00000000000E+00 -0.00000000000E+00 -0.83320475986E+02  0.83320475986E+02  0.00000000000E+00 0. -1.
         21    1    1    2  503  505 -0.27604252209E+02 -0.44844166241E+02  0.40603470778E+02  0.66495381983E+02  0.00000000000E+00 0. -1.
         21    1    1    2  504  501 -0.10530647298E+02 -0.29257198977E+02  0.30385170272E+03  0.30543859526E+03  0.00000000000E+00 0. -1.
         21    1    1    2  505  504  0.52429583748E+02  0.11324604706E+03  0.38759023743E+02  0.13067436761E+03  0.00000000000E+00 0. -1.
         21    1    1    2  506  503 -0.14294684241E+02 -0.39144681847E+02 -0.52449728128E+01  0.42001831558E+02  0.00000000000E+00 0. -1.
<scales pt_clust_3="35.06349" pt_clust_4="31.09467" pt_clust_5="108.05263" pt_clust_6="35.06349"></scales>
<clustering>
<clus scale="   31.095">  1  4  2 -1</clus>
<clus scale="   35.063">  3  6 -1 -1</clus>
<clus scale="  108.053">  1  5  2 -1</clus>
<clus scale="   31.095">  1  3  2 -1</clus>
</clustering>
</event>
<event>
 6    0  0.5563122E+002  0.1368683E+03  0.7546771E-02  0.1217606E+00
         21   -1    0    0  503  501  0.00000000000E+00  0.00000000000E+00  0.28747987128E+03  0.28747987128E+03  0.00000000000E+00 0.  1.
         21   -1    0    0  501  502 -0.00000000000E+00 -0.00000000000E+00 -0.24193083821E+03  0.24193083821E+03  0.00000000000E+00 0.  1.
         21    1    1    2  503  504  0.26236441017E+01  0.13089798068E+03  0.13798616744E+03  0.19021395128E+03  0.00000000000E+00 0.  1.
         21    1    1    2  504  506 -0.99686930727E+02 -0.14455495948E+03  0.16860338027E+02  0.17640264019E+03  0.00000000000E+00 0.  1.
         21    1    1    2  505  502  0.17018804170E+02  0.24726767163E+02 -0.62699999943E+02  0.69515053784E+02  0.00000000000E+00 0.  1.
         21    1    1    2  506  505  0.80044482455E+02 -0.11069788358E+02 -0.46597472455E+02  0.93279064237E+02  0.00000000000E+00 0.  1.
<scales pt_clust_3="14000.00000" pt_clust_4="136.86828" pt_clust_5="30.01754" pt_clust_6="86.82292"></scales>
<clustering>
<clus scale="   30.018">  2  5  1 -1</clus>
<clus scale="   86.823">  2  6  1 -1</clus>
<clus scale="  136.868">  2  4  1 -1</clus>
<clus scale="  136.868">  1  3  2 -1</clus>
</clustering>
</event>
<event>
 6    0  0.5563122E+002  0.7486666E+02  0.7546771E-02  0.1344284E+00
         21   -1    0    0  506  501  0.00000000000E+00  0.00000000000E+00  0.28126982963E+03  0.28126982963E+03  0.00000000000E+00 0.  1.
         21   -1    0    0  503  502 -0.00000000000E+00 -0.00000000000E+00 -0.13346777287E+04  0.13346777287E+04  0.00000000000E+00 0.  1.
         21    1    1    2  503  505 -0.32127048809E+02  0.36728731672E+02 -0.56315834935E+03  0.56526849676E+03  0.00000000000E+00 0.  1.
         21    1    1    2  504  502  0.85428207085E+02 -0.87206408314E+02 -0.73937898401E+03  0.74938923012E+03  0.00000000000E+00 0.  1.
         21    1    1    2  505  501 -0.70779353155E+02  0.14305985384E+02  0.25089312191E+03  0.26107802794E+03  0.00000000000E+00 0.  1.
         21    1    1    2  506  504  0.17478194879E+02  0.36171691258E+02 -0.17636875860E+01  0.40211803473E+02  0.00000000000E+00 0.  1.
<scales pt_clust_3="48.86051" pt_clust_4="74.86666" pt_clust_5="14000.00000" pt_clust_6="40.17311"></scales>
<clustering>
<clus scale="   40.173">  1  6  2 -1</clus>
<clus scale="   48.861">  2  3  1 -1</clus>
<clus scale="   74.867">  2  4  1 -1</clus>
<clus scale="   40.173">  1  3  2 -1</clus>
</clustering>
</event>
<event>
 6    0  0.5563122E+002  0.7709723E+02  0.7546771E-02  0.1337497E+00
         21   -1    0    0  506  501  0.00000000000E+00  0.00000000000E+00  0.92007746574E+03  0.92007746574E+03  0.00000000000E+00 0.  1.
         21   -1    0    0  503  502 -0.00000000000E+00 -0.00000000000E+00 -0.67931321111E+02  0.67931321111E+02  0.00000000000E+00 0.  1.
         21    1    1    2  503  505 -0.29647695001E+02  0.98884924707E+01  0.47333169023E+02  0.56720340196E+02  0.00000000000E+00 0.  1.
         21    1    1    2  504  501 -0.58394693801E+02 -0.37954190387E+02  0.55662517231E+03  0.56096527814E+03  0.00000000000E+00 0.  1.
         21    1    1    2  505  504  0.93353097639E+02  0.65979753474E+02  0.29114401284E+03  0.31278261608E+03  0.00000000000E+00 0.  1.
         21    1    1    2  506  502 -0.53107088370E+01 -0.37914055558E+02 -0.42956209539E+02  0.57540552440E+02  0.00000000000E+00 0.  1.
<scales pt_clust_3="31.25329" pt_clust_4="14000.00000" pt_clust_5="77.09723" pt_clust_6="41.67497"></scales>
<clustering>
<clus scale="   31.253">  2  3  1 -1</clus>
<clus scale="   41.675">  2  6  1 -1</clus>
<clus scale="   77.097">  2  5  1 -1</clus>
<clus scale="   77.097">  1  3  2 -1</clus>
</clustering>
</event>
<event>
 6    0  0.5563122E+002  0.1771643E+03  0.7546771E-02  0.1170576E+00
         21   -1    0    0  506  501  0.00000000000E+00  0.00000000000E+00  0.66411986310E+02  0.66411986310E+02  0.00000000000E+00 0.  1.
         21   -1    0    0  503  502 -0.00000000000E+00 -0.00000000000E+00 -0.85769975036E+03  0.85769975036E+03  0.00000000000E+00 0.  1.
         21    1    1    2  503  504  0.15454407601E+03 -0.82174962806E+02 -0.28198466521E+03  0.33189146924E+03  0.00000000000E+00 0.  1.
         21    1    1    2  504  505 -0.33519028016E+02 -0.58077726925E+02 -0.75261123537E+02  0.10080071587E+03  0.00000000000E+00 0.  1.
         21    1    1    2  505  501  0.25183403425E+02  0.36104972559E+02 -0.44949540780E+02  0.62914498073E+02  0.00000000000E+00 0.  1.
         21    1    1    2  506  502 -0.14620845142E+03  0.10414771717E+03 -0.38909243453E+03  0.42850505349E+03  0.00000000000E+00 0.  1.
<scales pt_clust_3="14000.00000" pt_clust_4="57.31012" pt_clust_5="44.02014" pt_clust_6="177.16431"></scales>
<clustering>
<clus scale="   44.020">  1  5  2 -1</clus>
<clus scale="   57.310">  1  4  2 -1</clus>
<clus scale="  177.164">  2  6  1 -1</clus>
<clus scale="   44.020">  1  3  2 -1</clus>
</clustering>
</event>
<event>
 6    0  0.5563122E+002  0.1009174E+03  0.7546771E-02  0.1278378E+00
         21   -1    0    0  505  501  0.00000000000E+00  0.00000000000E+00  0.73296060282E+03  0.73296060282E+03  0.00000000000E+00 0. -1.
         21   -1    0    0  504  502 -0.00000000000E+00 -0.00000000000E+00 -0.15673716361E+03  0.15673716361E+03  0.00000000000E+00 0.  1.
         21    1    1    2  503  501  0.97850692999E+01 -0.32591077077E+02  0.73110354100E+02  0.80641489091E+02  0.00000000000E+00 0. -1.
         21    1    1    2  504  506 -0.10800124635E+03 -0.60288321571E+02  0.45063933935E+03  0.46730585819E+03  0.00000000000E+00 0. -1.
         21    1    1    2  505  502  0.76704269643E+02  0.64357977104E+02 -0.12531744907E+03  0.16040560227E+03  0.00000000000E+00 0.  1.
         21    1    1    2  506  503  0.21511907411E+02  0.28521421544E+02  0.17779119483E+03  0.18134481688E+03  0.00000000000E+00 0. -1.
<scales pt_clust_3="34.02831" pt_clust_4="100.91742" pt_clust_5="14000.00000" pt_clust_6="31.13473"></scales>
<clustering>
<clus scale="   34.028">  1  3  2 -1</clus>
<clus scale="   31.135">  1  6  2 -1</clus>
<clus scale="  100.917">  1  4  2 -1</clus>
<clus scale="   34.028">  1  3  2 -1</clus>
</clustering>
</event>
<event>
 6    0  0.5563122E+002  0.1877970E+03  0.7546771E-02  0.1160463E+00
         21   -1    0    0  504  501  0.00000000000E+00  0.00000000000E+00  0.21218813157E+03  0.21218813157E+03  0.00000000000E+00 0. -1.
         21   -1    0    0  506  502 -0.00000000000E+00 -0.00000000000E+00 -0.12718922372E+04  0.12718922372E+04  0.00000000000E+00 0.  1.
         21    1    1    2  503  501  0.88098654522E+02 -0.77518624122E+02 -0.36458406765E+03  0.38300398483E+03  0.00000000000E+00 0.  1.
         21    1    1    2  504  505 -0.23097174679E+02  0.46133510520E+02  0.18080254625E+03  0.18801952292E+03  0.00000000000E+00 0. -1.
         21    1    1    2  505  502 -0.14765468672E+03  0.70946197017E+02 -0.50113875652E+03  0.52723365092E+03  0.00000000000E+00 0.  1.
         21    1    1    2  506  503  0.82653206875E+02 -0.39561083415E+02 -0.37478382771E+03  0.38582321009E+03  0.00000000000E+00 0.  1.
<scales pt_clust_3="34.97486" pt_clust_4="51.59244" pt_clust_5="183.57888" pt_clust_6="34.97486"></scales>
<clustering>
<clus scale="   34.975">  3  6 -1 -1</clus>
<clus scale="   51.592">  1  4  2 -1</clus>
<clus scale="  183.579">  2  5  1 -1</clus>
<clus scale="   51.592">  1  3  2 -1</clus>
</clustering>
</event>
<event>
 6    0  0.5563122E+002  0.1446140E+03  0.7546771E-02  0.1207252E+00
         21   -1    0    0  503  501  0.00000000000E+00  0.00000000000E+00  0.25267838614E+03  0.25267838614E+03  0.00000000000E+00 0. -1.
         21   -1    0    0  505  502 -0.00000000000E+00 -0.00000000000E+00 -0.45637757767E+03  0.45637757767E+03  0.00000000000E+00 0.  1.
         21    1    1    2  503  506 -0.16904395314E+02  0.56019337548E+02  0.15912083861E+03  0.16953868597E+03  0.00000000000E+00 0. -1.
         21    1    1    2  504  502 -0.72286360551E+02 -0.36104578463E+02 -0.29420532923E+03  0.30509938423E+03  0.00000000000E+00 0.  1.
         21    1    1    2  505  501  0.13054343463E+03  0.17052748605E+02  0.16647842188E+02  0.13270092393E+03  0.00000000000E+00 0.  1.
         21    1    1    2  506  504 -0.41352678769E+02 -0.36967507689E+02 -0.85262543104E+02  0.10171696969E+03  0.00000000000E+00 0.  1.
<scales pt_clust_3="58.51431" pt_clust_4="47.23597" pt_clust_5="132.90183" pt_clust_6="47.23597"></scales>
<clustering>
<clus scale="   47.236">  4  6 -1 -1</clus>
<clus scale="   58.514">  1  3  2 -1</clus>
<clus scale="  132.902">  1  5  2 -1</clus>
<clus scale="   58.514">  1  3  2 -1</clus>
</clustering>
</event>
<event>
 6    0  0.5563122E+002  0.1681465E+03  0.7546771E-02  0.1179795E+00
         21   -1    0    0  504  501  0.00000000000E+00  0.00000000000E+00  0.96966690170E+03  0.96966690170E+03  0.00000000000E+00 0. -1.
         21   -1    0    0  506  502 -0.00000000000E+00 -0.00000000000E+00 -0.15610893315E+04  0.15610893315E+04  0.00000000000E+00 0. -1.
         21    1    1    2  503  502 -0.30849663819E+02  0.39142319033E+00 -0.21168036337E+03  0.21391687920E+03  0.00000000000E+00 0. -1.
         21    1    1    2  504  503  0.73195549529E+02  0.13768844167E+03  0.95761520485E+03  0.97022810514E+03  0.00000000000E+00 0. -1.
         21    1    1    2  505  501 -0.19471180872E+02 -0.29001982925E+02 -0.14903646128E+03  0.15307549997E+03  0.00000000000E+00 0. -1.
         21    1    1    2  506  505 -0.22874704838E+02 -0.10907788193E+03 -0.11883208100E+04  0.11935357489E+04  0.00000000000E+00 0. -1.
<scales pt_clust_3="30.85215" pt_clust_4="155.86885" pt_clust_5="35.03192" pt_clust_6="35.03192"></scales>
<clustering>
<clus scale="   30.852">  2  3  1 -1</clus>
<clus scale="   35.032">  5  6 -1 -1</clus>
<clus scale="  155.869">  1  4  2 -1</clus>
<clus scale="  155.869">  1  3  2 -1</clus>
</clustering>
</event>
<event>
 6    0  0.5563122E+002  0.1483774E+03  0.7546771E-02  0.1202481E+00
         21   -1    0    0  504  501  0.00000000000E+00  0.00000000000E+00  0.41448571959E+03  0.41448571959E+03  0.00000000000E+00 0.  1.
         21   -1    0    0  506  502 -0.00000000000E+00 -0.00000000000E+00 -0.33781644953E+03  0.33781644953E+03  0.00000000000E+00 0.  1.
         21    1    1    2  503  501  0.61821291030E+02  0.94704789247E+02  0.16806929231E+03  0.20257876529E+03  0.00000000000E+00 0.  1.
         21    1    1    2  504  505 -0.81436158000E+02 -0.82396602974E+02  0.12500207707E+03  0.17043053506E+03  0.00000000000E+00 0.  1.
         21    1    1    2  505  502 -0.34825374549E+02 -0.23019736421E+02 -0.28670764835E+03  0.28973089342E+03  0.00000000000E+00 0.  1.
         21    1    1    2  506  503  0.54440241519E+02  0.10711550148E+02  0.70305549040E+02  0.89561975353E+02  0.00000000000E+00 0.  1.
<scales pt_clust_3="43.28815" pt_clust_4="134.61634" pt_clust_5="41.74584" pt_clust_6="43.28815"></scales>
<clustering>
<clus scale="   41.746">  2  5  1 -1</clus>
<clus scale="   43.288">  3  6 -1 -1</clus>
<clus scale="  134.616">  1  4  2 -1</clus>
<clus scale="  134.616">  1  3  2 -1</clus>
</clustering>
</event>
<event>
 6    0  0.5563122E+002  0.1989161E+03  0.7546771E-02  0.1150657E+00
         21   -1    0    0  505  501  0.00000000000E+00  0.00000000000E+00  0.27426017589E+03  0.27426017589E+03  0.00000000000E+00 0.  1.
         21   -1    0    0  503  502 -0.00000000000E+00 -0.00000000000E+00 -0.28917056191E+04  0.28917056191E+04  0.00000000000E+00 0. -1.
         21    1    1    2  503  501 -0.56746152739E+02 -0.26586867652E+02 -0.10537717270E+02  0.63545502339E+02  0.00000000000E+00 0. -1.
         21    1    1    2  504  502  0.13328355834E+03  0.15068843792E+03 -0.27823970879E+04  0.27896603856E+04  0.00000000000E+00 0. -1.
         21    1    1    2  505  506  0.29741810524E+02 -0.10717838944E+03  0.52440917991E+01  0.11135206759E+03  0.00000000000E+00 0.  1.
         21    1    1    2  506  504 -0.10627921612E+03 -0.16923180821E+02  0.17024527010E+03  0.20140783952E+03  0.00000000000E+00 0.  1.
<scales pt_clust_3="62.66568" pt_clust_4="14000.00000" pt_clust_5="114.61225" pt_clust_6="198.91609"></scales>
<clustering>
<clus scale="   62.666">  1  3  2 -1</clus>
<clus scale="  114.612">  1  5  2 -1</clus>
<clus scale="  198.916">  1  6  2 -1</clus>
<clus scale="   62.666">  1  3  2 -1</clus>
</clustering>
</event>
<event>
 6    0  0.5563122E+002  0.2930545E+03  0.7546771E-02  0.1088765E+00
         21   -1    0    0  503  501  0.00000000000E+00  0.00000000000E+00  0.19964345406E+03  0.19964345406E+03  0.00000000000E+00 0.  1.
         21   -1    0    0  505  502 -0.00000000000E+00 -0.00000000000E+00 -0.54692388537E+03  0.54692388537E+03  0.00000000000E+00 0. -1.
         21    1    1    2  503  504  0.14930682790E+02  0.57188729187E+02  0.79122875952E+01  0.59632879602E+02  0.00000000000E+00 0. -1.
         21    1    1    2  504  502  0.43051479400E+02  0.21870076536E+03 -0.16039746419E+03  0.27461027141E+03  0.00000000000E+00 0. -1.
         21    1    1    2  505  506 -0.12787785959E+02 -0.27519093626E+03 -0.22688642465E+03  0.35689077959E+03  0.00000000000E+00 0.  1.
         21    1    1    2  506  501 -0.45194376231E+02 -0.69855829106E+00  0.32091169931E+02  0.55433408827E+02  0.00000000000E+00 0.  1.
<scales pt_clust_3="48.37004" pt_clust_4="48.37004" pt_clust_5="277.29255" pt_clust_6="45.19977"></scales>
<clustering>
<clus scale="   45.200">  1  6  2 -1</clus>
<clus scale="   48.370">  3  4 -1 -1</clus>
<clus scale="  277.293">  2  5  1 -1</clus>
<clus scale="   45.200">  1  3  2 -1</clus>
</clustering>
</event>
<event>
 6    0  0.5563122E+002  0.1237500E+03  0.7546771E-02  0.1237036E+00
         21   -1    0    0  504  501  0.00000000000E+00  0.00000000000E+00  0.25119927201E+03  0.25119927201E+03  0.00000000000E+00 0. -1.
         21   -1    0    0  506  502 -0.00000000000E+00 -0.00000000000E+00 -0.42294751408E+03  0.42294751408E+03  0.00000000000E+00 0.  1.
         21    1    1    2  503  501  0.39581011565E+02 -0.55775443541E+01  0.18821434135E+03  0.19241206763E+03  0.00000000000E+00 0. -1.
         21    1    1    2  504  505  0.10019509438E+03 -0.20577877420E+02 -0.23543979636E+02  0.10496106399E+03  0.00000000000E+00 0. -1.
         21    1    1    2  505  502 -0.11749150219E+03  0.28554511005E+01 -0.31935804789E+03  0.34029688427E+03  0.00000000000E+00 0.  1.
         21    1    1    2  506  503 -0.22284603754E+02  0.23299970673E+02 -0.17060555897E+02  0.36476770216E+02  0.00000000000E+00 0.  1.
<scales pt_clust_3="39.83807" pt_clust_4="14000.00000" pt_clust_5="123.75003" pt_clust_6="32.24116"></scales>
<clustering>
<clus scale="   32.241">  2  6  1 -1</clus>
<clus scale="   39.838">  1  3  2 -1</clus>
<clus scale="  123.750">  2  5  1 -1</clus>
<clus scale="   39.838">  1  3  2 -1</clus>
</clustering>
</event>
<event>
 6    0  0.5563122E+002  0.2269349E+03  0.7546771E-02  0.1128816E+00
         21   -1    0    0  503  501  0.00000000000E+00  0.00000000000E+00  0.67209827486E+03  0.67209827486E+03  0.00000000000E+00 0.  1.
         21   -1    0    0  505  502 -0.00000000000E+00 -0.00000000000E+00 -0.21066896724E+03  0.21066896724E+03  0.00000000000E+00 0.  1.
         21    1    1    2  503  506 -0.41007845992E+02 -0.31957632885E+01  0.75114311344E+02  0.85638870290E+02  0.00000000000E+00 0.  1.
         21    1    1    2  504  502  0.13828037558E+03 -0.16925179335E+03  0.81477772172E+02  0.23325149342E+03  0.00000000000E+00 0.  1.
         21    1    1    2  505  501 -0.79054274114E+02  0.22507066748E+03 -0.15196686935E+02  0.23903414591E+03  0.00000000000E+00 0.  1.
         21    1    1    2  506  504 -0.18218255479E+02 -0.52623110843E+02  0.32003391104E+03  0.32484273248E+03  0.00000000000E+00 0.  1.
<scales pt_clust_3="41.13218" pt_clust_4="226.93492" pt_clust_5="14000.00000" pt_clust_6="67.83027"></scales>
<clustering>
<clus scale="   41.132">  1  3  2 -1</clus>
<clus scale="   67.830">  1  6  2 -1</clus>
<clus scale="  226.935">  1  4  2 -1</clus>
<clus scale="   41.132">  1  3  2 -1</clus>
</clustering>
</event>
<event>
 6    0  0.5563122E+002  0.7521232E+02  0.7546771E-02  0.1343215E+00
         21   -1    0    0  505  501  0.00000000000E+00  0.00000000000E+00  0.39901978738E+03  0.39901978738E+03  0.00000000000E+00 0.  1.
         21   -1    0    0  504  502 -0.00000000000E+00 -0.00000000000E+00 -0.69900660155E+03  0.69900660155E+03  0.00000000000E+00 0.  1.
         21    1    1    2  503  506  0.67670040912E+02 -0.12213533048E+02  0.75207001175E+02  0.10190435639E+03  0.00000000000E+00 0.  1.
         21    1    1    2  504  501 -0.14928258827E+03 -0.40974937222E+02  0.22781877547E+03  0.27543716361E+03  0.00000000000E+00 0.  1.
         21    1    1    2  505  503  0.94030621326E+01  0.34683700370E+02  0.51027033624E+02  0.62411015128E+02  0.00000000000E+00 0.  1.
         21    1    1    2  506  502  0.72209485222E+02  0.18504769899E+02 -0.65403962444E+03  0.65827385380E+03  0.00000000000E+00 0.  1.
<scales pt_clust_3="70.17754" pt_clust_4="14000.00000" pt_clust_5="35.93573" pt_clust_6="75.21232"></scales>
<clustering>
<clus scale="   35.936">  1  5  2 -1</clus>
<clus scale="   70.178">  1  3  2 -1</clus>
<clus scale="   75.212">  2  6  1 -1</clus>
<clus scale="   35.936">  1  3  2 -1</clus>
</clustering>
</event>
<event>
 6    0  0.5563122E+002  0.8046584E+02  0.7546771E-02  0.1327735E+00
         21   -1    0    0  503  501  0.00000000000E+00  0.00000000000E+00  0.32740794587E+02  0.32740794587E+02  0.00000000000E+00 0.  1.
         21   -1    0    0  506  502 -0.00000000000E+00 -0.00000000000E+00 -0.11785923790E+04  0.11785923790E+04  0.00000000000E+00 0.  1.
         21    1    1    2  503  502  0.78723042325E+02 -0.20471546598E+02 -0.88229544431E+03  0.88603704927E+03  0.00000000000E+00 0.  1.
         21    1    1    2  504  501  0.30729196764E+02 -0.32075899031E+02 -0.75263398377E+02  0.87394084283E+02  0.00000000000E+00 0. -1.
         21    1    1    2  505  504 -0.37831117137E+02  0.43801492252E+02 -0.13886203611E+03  0.15044078310E+03  0.00000000000E+00 0.  1.
         21    1    1    2  506  505 -0.71621121952E+02  0.87459533767E+01 -0.49430705637E+02  0.87461256965E+02  0.00000000000E+00 0.  1.
<scales pt_clust_3="14000.00000" pt_clust_4="44.42012" pt_clust_5="48.25202" pt_clust_6="80.46584"></scales>
<clustering>
<clus scale="   44.420">  1  4  2 -1</clus>
<clus scale="   48.252">  1  5  2 -1</clus>
<clus scale="   80.466">  1  6  2 -1</clus>
<clus scale="   44.420">  1  3  2 -1</clus>
</clustering>
</event>
<event>
 6    0  0.5563122E+002  0.9944231E+02  0.7546771E-02  0.1281473E+00
         21   -1    0    0  506  501  0.00000000000E+00  0.00000000000E+00  0.27244377590E+03  0.27244377590E+03  0.00000000000E+00 0.  1.
         21   -1    0    0  504  502 -0.00000000000E+00 -0.00000000000E+00 -0.13036781431E+03  0.13036781431E+03  0.00000000000E+00 0.  1.
         21    1    1    2  503  502  0.59593675565E+01 -0.76468549767E+02  0.28708615046E+02  0.81897116817E+02  0.00000000000E+00 0.  1.
         21    1    1    2  504  505  0.42763550847E+02  0.11518197993E+03 -0.32619701511E+02  0.12712063054E+03  0.00000000000E+00 0.  1.
         21    1    1    2  505  501 -0.82317323949E+02 -0.27516217491E+02  0.12638792502E+03  0.15332055191E+03  0.00000000000E+00 0.  1.
         21    1    1    2  506  503  0.33594405546E+02 -0.11197212675E+02  0.19599123030E+02  0.40473290936E+02  0.00000000000E+00 0.  1.
<scales pt_clust_3="99.44231" pt_clust_4="14000.00000" pt_clust_5="71.52103" pt_clust_6="35.41132"></scales>
<clustering>
<clus scale="   35.411">  1  6  2 -1</clus>
<clus scale="   71.521">  1  5  2 -1</clus>
<clus scale="   99.442">  1  3  2 -1</clus>
<clus scale="   35.411">  1  3  2 -1</clus>
</clustering>
</event>
<event>
 6    0  0.5563122E+002  0.9338661E+02  0.7546771E-02  0.1294852E+00
         21   -1    0    0  504  501  0.00000000000E+00  0.00000000000E+00  0.12124710791E+03  0.12124710791E+03  0.00000000000E+00 0. -1.
         21   -1    0    0  506  502 -0.00000000000E+00 -0.00000000000E+00 -0.41425433373E+03  0.41425433373E+03  0.00000000000E+00 0. -1.
         21    1    1    2  503  501  0.74066168786E+02 -0.43196219223E+02  0.36520060833E+02  0.93195630569E+02  0.00000000000E+00 0. -1.
         21    1    1    2  504  505 -0.65877009750E+02  0.10851130486E+03 -0.38579966323E+02  0.13267591152E+03  0.00000000000E+00 0. -1.
         21    1    1    2  505  502 -0.23180931658E+02 -0.32511141125E+02 -0.25705300947E+03  0.26013569453E+03  0.00000000000E+00 0. -1.
         21    1    1    2  506  503  0.14991772623E+02 -0.32803944516E+02 -0.33894310848E+02  0.49494205014E+02  0.00000000000E+00 0. -1.
<scales pt_clust_3="14000.00000" pt_clust_4="93.38661" pt_clust_5="56.73734" pt_clust_6="36.06733"></scales>
<clustering>
<clus scale="   36.067">  2  6  1 -1</clus>
<clus scale="   56.737">  2  5  1 -1</clus>
<clus scale="   93.387">  2  4  1 -1</clus>
<clus scale="   93.387">  1  3  2 -1</clus>
</clustering>
</event>
<event>
 6    0  0.5563122E+002  0.1273458E+03  0.7546771E-02  0.1231448E+00
         21   -1    0    0  504  501  0.00000000000E+00  0.00000000000E+00  0.15428979999E+03  0.15428979999E+03  0.00000000000E+00 0.  1.
         21   -1    0    0  506  502 -0.00000000000E+00 -0.00000000000E+00 -0.30774640665E+03  0.30774640665E+03  0.00000000000E+00 0.  1.
         21    1    1    2  503  501  0.12955924793E+02  0.33432697340E+02  0.16751118461E+02  0.39575260054E+02  0.00000000000E+00 0.  1.
         21    1    1    2  504  505  0.21381388291E+02 -0.50210057704E+02  0.54406289786E+02  0.77060093616E+02  0.00000000000E+00 0.  1.
         21    1    1    2  505  502 -0.25730283323E+02 -0.11722644482E+03 -0.63883750539E+02  0.13596036345E+03  0.00000000000E+00 0.  1.
         21    1    1    2  506  503 -0.86070297610E+01  0.13400380518E+03 -0.16073026437E+03  0.20944048952E+03  0.00000000000E+00 0.  1.
<scales pt_clust_3="35.85528" pt_clust_4="43.20210" pt_clust_5="127.34579" pt_clust_6="14000.00000"></scales>
<clustering>
<clus scale="   35.855">  1  3  2 -1</clus>
<clus scale="   43.202">  1  4  2 -1</clus>
<clus scale="  127.346">  1  5  2 -1</clus>
<clus scale="   35.855">  1  3  2 -1</clus>
</clustering>
</event>
<event>
 6    0  0.5563122E+002  0.1182338E+03  0.7546771E-02  0.1246039E+00
         21   -1    0    0  506  501  0.00000000000E+00  0.00000000000E+00  0.38742158141E+03  0.38742158141E+03  0.00000000000E+00 0.  1.
         21   -1    0    0  503  502 -0.00000000000E+00 -0.00000000000E+00 -0.29841609273E+03  0.29841609273E+03  0.00000000000E+00 0. -1.
         21    1    1    2  503  505 -0.52447376599E+02  0.86323631614E+01 -0.22011971789E+03  0.22644631860E+03  0.00000000000E+00 0. -1.
         21    1    1    2  504  502  0.71596328063E+02 -0.10221755319E+03  0.60264550008E+02  0.13858671783E+03  0.00000000000E+00 0.  1.
         21    1    1    2  505  501 -0.36058384594E+01  0.14683070365E+03  0.17603516497E+03  0.22926106715E+03  0.00000000000E+00 0. -1.
         21    1    1    2  506  504 -0.15543113005E+02 -0.53245513626E+02  0.72825491600E+02  0.91543570555E+02  0.00000000000E+00 0. -1.
<scales pt_clust_3="53.15303" pt_clust_4="118.23385" pt_clust_5="14000.00000" pt_clust_6="56.64886"></scales>
<clustering>
<clus scale="   53.153">  2  3  1 -1</clus>
<clus scale="   56.649">  1  6  2 -1</clus>
<clus scale="  118.234">  2  4  1 -1</clus>
<clus scale="   56.649">  1  3  2 -1</clus>
</clustering>
</event>
<event>
 6    0  0.5563122E+002  0.1078498E+03  0.7546771E-02  0.1264604E+00
         21   -1    0    0  504  501  0.00000000000E+00  0.00000000000E+00  0.16873299997E+03  0.16873299997E+03  0.00000000000E+00 0. -1.
         21   -1    0    0  503  502 -0.00000000000E+00 -0.00000000000E+00 -0.67305020791E+03  0.67305020791E+03  0.00000000000E+00 0.  1.
         21    1    1    2  503  501 -0.74403391288E+02 -0.25920799032E+02  0.93377795853E+02  0.12217677855E+03  0.00000000000E+00 0. -1.
         21    1    1    2  504  506 -0.20782760839E+02 -0.23583906962E+02  0.67822396099E+00  0.31441752550E+02  0.00000000000E+00 0.  1.
         21    1    1    2  505  502  0.71886827920E+02  0.82695665842E+02 -0.62828869666E+03  0.63777188361E+03  0.00000000000E+00 0.  1.
         21    1    1    2  506  505  0.23299324207E+02 -0.33190959848E+02  0.29915468898E+02  0.50392793171E+02  0.00000000000E+00 0. -1.
<scales pt_clust_3="14000.00000" pt_clust_4="31.43444" pt_clust_5="107.84976" pt_clust_6="43.24223"></scales>
<clustering>
<clus scale="   31.434">  1  4  2 -1</clus>
<clus scale="   43.242">  1  6  2 -1</clus>
<clus scale="  107.850">  2  5  1 -1</clus>
<clus scale="   31.434">  1  3  2 -1</clus>
</clustering>
</event>
<event>
 6    0  0.5563122E+002  0.1828501E+03  0.7546771E-02  0.1165073E+00
         21   -1    0    0  505  501  0.00000000000E+00  0.00000000000E+00  0.97913789925E+03  0.97913789925E+03  0.00000000000E+00 0. -1.
         21   -1    0    0  506  502 -0.00000000000E+00 -0.00000000000E+00 -0.20435377553E+03  0.20435377553E+03  0.00000000000E+00 0.  1.
         21    1    1    2  503  501 -0.19564027200E+03 -0.16615654982E+02  0.46824204558E+03  0.50774187268E+03  0.00000000000E+00 0. -1.
         21    1    1    2  504  502  0.62795386126E+01 -0.35010659305E+02 -0.15621878933E+03  0.16021700600E+03  0.00000000000E+00 0.  1.
         21    1    1    2  505  504  0.16984306189E+03 -0.23021279551E+01  0.34730618032E+03  0.38661809109E+03  0.00000000000E+00 0. -1.
         21    1    1    2  506  503  0.19517671497E+02  0.53928442242E+02  0.11545468715E+03  0.12891470501E+03  0.00000000000E+00 0. -1.
<scales pt_clust_3="14000.00000" pt_clust_4="35.56935" pt_clust_5="182.85014" pt_clust_6="52.92500"></scales>
<clustering>
<clus scale="   35.569">  2  4  1 -1</clus>
<clus scale="   52.925">  2  6  1 -1</clus>
<clus scale="  182.850">  1  5  2 -1</clus>
<clus scale="  182.850">  1  3  2 -1</clus>
</clustering>
</event>
<event>
 6    0  0.5563122E+002  0.1184945E+03  0.7546771E-02  0.1245601E+00
         21   -1    0    0  504  501  0.00000000000E+00  0.00000000000E+00  0.42857440489E+03  0.42857440489E+03  0.00000000000E+00 0. -1.
         21   -1    0    0  505  502 -0.00000000000E+00 -0.00000000000E+00 -0.63452872345E+03  0.63452872345E+03  0.00000000000E+00 0. -1.
         21    1    1    2  503  506 -0.27439023360E+02  0.42717570471E+02 -0.11185549883E+03  0.12283868873E+03  0.00000000000E+00 0. -1.
         21    1    1    2  504  503 -0.52778402173E+02  0.15114509989E+02 -0.16376884712E+03  0.17272591998E+03  0.00000000000E+00 0.  1.
         21    1    1    2  505  501  0.11230070842E+03 -0.77489968818E+00  0.40787696030E+03  0.42305515518E+03  0.00000000000E+00 0. -1.
         21    1    1    2  506  502 -0.32083282886E+02 -0.57057180772E+02 -0.33820693290E+03  0.34448336445E+03  0.00000000000E+00 0. -1.
<scales pt_clust_3="38.58970" pt_clust_4="38.58970" pt_clust_5="111.49297" pt_clust_6="65.45883"></scales>
<clustering>
<clus scale="   38.590">  3  4 -1 -1</clus>
<clus scale="   65.459">  2  6  1 -1</clus>
<clus scale="  111.493">  1  5  2 -1</clus>
<clus scale="  111.493">  1  3  2 -1</clus>
</clustering>
</event>
<event>
 6    0  0.5563122E+002  0.1730572E+03  0.7546771E-02  0.1174697E+00
         21   -1    0    0  506  501  0.00000000000E+00  0.00000000000E+00  0.74180034500E+02  0.74180034500E+02  0.00000000000E+00 0.  1.
         21   -1    0    0  505  502 -0.00000000000E+00 -0.00000000000E+00 -0.11733340504E+04  0.11733340504E+04  0.00000000000E+00 0. -1.
         21    1    1    2  503  501 -0.41251267577E+02  0.15587437705E+03 -0.12111225398E+03  0.20165977924E+03  0.00000000000E+00 0.  1.
         21    1    1    2  504  503  0.28562637956E+02 -0.87501546820E+02 -0.11479505375E+03  0.14714023701E+03  0.00000000000E+00 0.  1.
         21    1    1    2  505  504 -0.15447836380E+02 -0.90348760930E+02 -0.10399551077E+03  0.13862395359E+03  0.00000000000E+00 0.  1.
         21    1    1    2  506  502  0.28136466001E+02  0.21975930701E+02 -0.75925119745E+03  0.76009011511E+03  0.00000000000E+00 0. -1.
<scales pt_clust_3="167.21148" pt_clust_4="43.42414" pt_clust_5="43.42414" pt_clust_6="35.70157"></scales>
<clustering>
<clus scale="   35.702">  2  6  1 -1</clus>
<clus scale="   43.424">  4  5 -1 -1</clus>
<clus scale="  167.211">  1  3  2 -1</clus>
<clus scale="  167.211">  1  3  2 -1</clus>
</clustering>
</event>
<event>
 6    0  0.5563122E+002  0.7568355E+02  0.7546771E-02  0.1341767E+00
         21   -1    0    0  504  501  0.00000000000E+00  0.00000000000E+00  0.14699564863E+03  0.14699564863E+03  0.00000000000E+00 0. -1.
         21   -1    0    0  505  502 -0.00000000000E+00 -0.00000000000E+00 -0.44528217965E+03  0.44528217965E+03  0.00000000000E+00 0. -1.
         21    1    1    2  503  502  0.37368254093E+02  0.83984854607E+01 -0.29863228165E+03  0.30107832970E+03  0.00000000000E+00 0. -1.
         21    1    1    2  504  503 -0.13571952787E+03 -0.70080665500E+01 -0.55733090201E+02  0.14688458253E+03  0.00000000000E+00 0. -1.
         21    1    1    2  505  506  0.30183805892E+02 -0.43558464498E+01 -0.24218302338E+02  0.38943057206E+02  0.00000000000E+00 0. -1.
         21    1    1    2  506  501  0.68167467881E+02  0.29654275391E+01  0.80297143160E+02  0.10537185885E+03  0.00000000000E+00 0. -1.
<scales pt_clust_3="59.47719" pt_clust_4="14000.00000" pt_clust_5="30.49648" pt_clust_6="75.68355"></scales>
<clustering>
<clus scale="   30.496">  2  5  1 -1</clus>
<clus scale="   59.477">  2  3  1 -1</clus>
<clus scale="   75.684">  1  6  2 -1</clus>
<clus scale="   75.684">  1  3  2 -1</clus>
</clustering>
</event>
<event>
 6    0  0.5563122E+002  0.1565808E+03  0.7546771E-02  0.1192612E+00
         21   -1    0    0  503  501  0.00000000000E+00  0.00000000000E+00  0.79188844821E+03  0.79188844821E+03  0.00000000000E+00 0.  1.
         21   -1    0    0  504  502 -0.00000000000E+00 -0.00000000000E+00 -0.92854535068E+03  0.92854535068E+03  0.00000000000E+00 0. -1.
         21    1    1    2  503  506  0.27957305127E+02 -0.17131702288E+02  0.66194647293E+03  0.66275805477E+03  0.00000000000E+00 0.  1.
         21    1    1    2  504  505 -0.11852218484E+03  0.27156096727E+02 -0.67285289834E+03  0.68375140562E+03  0.00000000000E+00 0. -1.
         21    1    1    2  505  501  0.10181617100E+03 -0.82397686099E+02  0.81395281846E+02  0.15421122935E+03  0.00000000000E+00 0. -1.
         21    1    1    2  506  502 -0.11251291293E+02  0.72373291660E+02 -0.20714575890E+03  0.21971310915E+03  0.00000000000E+00 0.  1.
<scales pt_clust_3="32.78881" pt_clust_4="156.58079" pt_clust_5="14000.00000" pt_clust_6="72.22331"></scales>
<clustering>
<clus scale="   32.789">  1  3  2 -1</clus>
<clus scale="   72.223">  2  6  1 -1</clus>
<clus scale="  156.581">  2  4  1 -1</clus>
<clus scale="   32.789">  1  3  2 -1</clus>
</clustering>
</event>
<event>
 6    0  0.7209354E+002  0.6827039E+02  0.7546771E-02  0.1366075E+00
         21   -1    0    0  503  501  0.00000000000E+00  0.00000000000E+00  0.13477840574E+04  0.13477840574E+04  0.00000000000E+00 0.  1.
         21   -1    0    0  506  502 -0.00000000000E+00 -0.00000000000E+00 -0.29307053830E+03  0.29307053830E+03  0.00000000000E+00 0.  1.
         21    1    1    2  503  505 -0.56897196798E+02  0.53633213354E+02  0.93266613396E+03  0.93593799475E+03  0.00000000000E+00 0.  1.
         21    1    1    2  504  501  0.35521005674E+02  0.51358346701E+01  0.27444590458E+03  0.27678271836E+03  0.00000000000E+00 0. -1.
         21    1    1    2  505  502  0.37810398351E+02 -0.10548187510E+03  0.11241886655E+03  0.15872634864E+03  0.00000000000E+00 0.  1.
         21    1    1    2  506  504 -0.16434207227E+02  0.46712827072E+02 -0.26481738603E+03  0.26940753391E+03  0.00000000000E+00 0.  1.
<scales pt_clust_3="14000.00000" pt_clust_4="35.89037" pt_clust_5="68.27039" pt_clust_6="49.50460"></scales>
<clustering>
<clus scale="   35.890">  1  4  2 -1</clus>
<clus scale="   49.505">  2  6  1 -1</clus>
<clus scale="   68.270">  2  5  1 -1</clus>
<clus scale="   35.890">  1  3  2 -1</clus>
</clustering>
</event>
<event>
 6    0  0.5563122E+002  0.1666222E+03  0.7546771E-02  0.1181417E+00
         21   -1    0    0  506  501  0.00000000000E+00  0.00000000000E+00  0.39757330479E+03  0.39757330479E+03  0.00000000000E+00 0. -1.
         21   -1    0    0  503  502 -0.00000000000E+00 -0.00000000000E+00 -0.24084537303E+03  0.24084537303E+03  0.00000000000E+00 0. -1.
         21    1    1    2  503  501  0.17487063489E+03 -0.66288407277E+02  0.88836776557E+02  0.20704073212E+03  0.00000000000E+00 0. -1.
         21    1    1    2  504  505 -0.87916796128E+02 -0.66447269644E+02  0.98807184953E+02  0.14801169712E+03  0.00000000000E+00 0. -1.
         21    1    1    2  505  502 -0.11642469968E+03  0.11580927013E+03 -0.10975345517E+03  0.19751536311E+03  0.00000000000E+00 0. -1.
         21    1    1    2  506  504  0.29470860917E+02  0.16926406791E+02  0.78837425426E+02  0.85850885480E+02  0.00000000000E+00 0. -1.
<scales pt_clust_3="166.62217" pt_clust_4="97.01703" pt_clust_5="14000.00000" pt_clust_6="33.98580"></scales>
<clustering>
<clus scale="   33.986">  1  6  2 -1</clus>
<clus scale="   97.017">  1  4  2 -1</clus>
<clus scale="  166.622">  1  3  2 -1</clus>
<clus scale="   33.986">  1  3  2 -1</clus>
</clustering>
</event>
<event>
 6    0  0.5563122E+002  0.1251382E+03  0.7546771E-02  0.1234853E+00
         21   -1    0    0  502  501  0.00000000000E+00  0.00000000000E+00  0.67430830229E+02  0.67430830229E+02  0.00000000000E+00 0.  1.
         21   -1    0    0  506  502 -0.00000000000E+00 -0.00000000000E+00 -0.88219121779E+03  0.88219121779E+03  0.00000000000E+00 0. -1.
         21    1    1    2  503  501 -0.47704770823E+02 -0.31736934859E+01  0.39513381639E+02  0.62025195027E+02  0.00000000000E+00 0.  1.
         21    1    1    2  504  505  0.79884723808E+02  0.35121895703E+02 -0.38638300363E+03  0.39611480930E+03  0.00000000000E+00 0. -1.
         21    1    1    2  505  503 -0.87541361503E+02 -0.86638584725E+01 -0.23356291264E+03  0.24958002039E+03  0.00000000000E+00 0. -1.
         21    1    1    2  506  504  0.55361408517E+02 -0.23284343745E+02 -0.23432785293E+03  0.24190202330E+03  0.00000000000E+00 0. -1.
<scales pt_clust_3="47.81022" pt_clust_4="47.77037" pt_clust_5="110.94010" pt_clust_6="47.77037"></scales>
<clustering>
<clus scale="   47.810">  1  3  2 -1</clus>
<clus scale="   47.770">  4  6 -1 -1</clus>
<clus scale="  110.940">  1  5  2 -1</clus>
<clus scale="   47.810">  1  3  2 -1</clus>
</clustering>
</event>
<event>
 6    0  0.5563122E+002  0.1618939E+03  0.7546771E-02  0.1186575E+00
         21   -1    0    0  506  501  0.00000000000E+00  0.00000000000E+00  0.15375925629E+03  0.15375925629E+03  0.00000000000E+00 0.  1.
         21   -1    0    0  504  502 -0.00000000000E+00 -0.00000000000E+00 -0.17832001898E+03  0.17832001898E+03  0.00000000000E+00 0.  1.
         21    1    1    2  503  502 -0.20106534083E+02 -0.61213879360E+02  0.21563714318E+01  0.64467524203E+02  0.00000000000E+00 0. -1.
         21    1    1    2  504  505  0.63741116111E+02  0.87911554726E+02 -0.10587836548E+02  0.10910304130E+03  0.00000000000E+00 0.  1.
         21    1    1    2  505  501  0.21025769571E+02  0.35697649607E+02  0.35775638495E+02  0.54738482654E+02  0.00000000000E+00 0.  1.
         21    1    1    2  506  503 -0.64660351598E+02 -0.62395324972E+02 -0.51904936072E+02  0.10377022712E+03  0.00000000000E+00 0.  1.
<scales pt_clust_3="49.11636" pt_clust_4="37.79962" pt_clust_5="37.79962" pt_clust_6="160.71410"></scales>
<clustering>
<clus scale="   37.800">  4  5 -1 -1</clus>
<clus scale="   49.116">  3  6 -1 -1</clus>
<clus scale="  160.714">  2  3  1 -1</clus>
<clus scale="  161.894">  1  3  2 -1</clus>
</clustering>
</event>
<event>
 6    0  0.5563122E+002  0.9888960E+02  0.7546771E-02  0.1282648E+00
         21   -1    0    0  504  501  0.00000000000E+00  0.00000000000E+00  0.18057027952E+04  0.18057027952E+04  0.00000000000E+00 0.  1.
         21   -1    0    0  506  502 -0.00000000000E+00 -0.00000000000E+00 -0.28968589883E+02  0.28968589883E+02  0.00000000000E+00 0. -1.
         21    1    1    2  503  501  0.59995247182E+02  0.21083906381E+02  0.58350085083E+03  0.58695587884E+03  0.00000000000E+00 0.  1.
         21    1    1    2  504  505 -0.32741080516E+02 -0.93000146737E+01  0.23021561591E+03  0.23271806641E+03  0.00000000000E+00 0. -1.
         21    1    1    2  505  502 -0.39952264391E+02  0.87129721180E+02  0.88009786143E+03  0.88530221814E+03  0.00000000000E+00 0.  1.
         21    1    1    2  506  503  0.12698097726E+02 -0.98913612888E+02  0.82919877124E+02  0.12969522166E+03  0.00000000000E+00 0. -1.
<scales pt_clust_3="50.96857" pt_clust_4="34.03628" pt_clust_5="98.88960" pt_clust_6="14000.00000"></scales>
<clustering>
<clus scale="   34.036">  1  4  2 -1</clus>
<clus scale="   50.969">  1  3  2 -1</clus>
<clus scale="   98.890">  1  5  2 -1</clus>
<clus scale="   34.036">  1  3  2 -1</clus>
</clustering>
</event>
<event>
 6    0  0.5563122E+002  0.1299268E+03  0.7546771E-02  0.1227564E+00
         21   -1    0    0  505  501  0.00000000000E+00  0.00000000000E+00  0.34700831253E+03  0.34700831253E+03  0.00000000000E+00 0.  1.
         21   -1    0    0  503  502 -0.00000000000E+00 -0.00000000000E+00 -0.25425935659E+03  0.25425935659E+03  0.00000000000E+00 0. -1.
         21    1    1    2  503  506  0.61958143746E+01  0.12049751139E+03  0.28343286370E+02  0.12394103538E+03  0.00000000000E+00 0.  1.
         21    1    1    2  504  502 -0.25931331311E+02 -0.67709437761E+02 -0.13542799556E+03  0.15361557176E+03  0.00000000000E+00 0. -1.
         21    1    1    2  505  504 -0.12765975228E+02 -0.52639314767E+02 -0.48833648023E+02  0.72928682710E+02  0.00000000000E+00 0.  1.
         21    1    1    2  506  501  0.32501492164E+02 -0.14875886701E+00  0.24866731315E+03  0.25078237927E+03  0.00000000000E+00 0.  1.
<scales pt_clust_3="124.46818" pt_clust_4="32.20852" pt_clust_5="32.20852" pt_clust_6="32.50183"></scales>
<clustering>
<clus scale="   32.209">  4  5 -1 -1</clus>
<clus scale="   32.502">  1  6  2 -1</clus>
<clus scale="  124.468">  1  3  2 -1</clus>
<clus scale="   32.502">  1  3  2 -1</clus>
</clustering>
</event>
<event>
 6    0  0.5563122E+002  0.2648272E+03  0.7546771E-02  0.1104277E+00
         21   -1    0    0  503  501  0.00000000000E+00  0.00000000000E+00  0.10523295161E+04  0.10523295161E+04  0.00000000000E+00 0. -1.
         21   -1    0    0  504  502 -0.00000000000E+00 -0.00000000000E+00 -0.97706319052E+03  0.97706319052E+03  0.00000000000E+00 0. -1.
         21    1    1    2  503  502  0.14294707141E+03  0.15105856796E+03  0.50871253910E+03  0.54958257216E+03  0.00000000000E+00 0. -1.
         21    1    1    2  504  506 -0.16782186102E+03 -0.13346000683E+03 -0.73611688803E+03  0.76670973863E+03  0.00000000000E+00 0. -1.
         21    1    1    2  505  501  0.37784644976E+02  0.32512899811E+02  0.50337257959E+03  0.50583467846E+03  0.00000000000E+00 0. -1.
         21    1    1    2  506  505 -0.12909855364E+02 -0.50111460936E+02 -0.20070190510E+03  0.20726571736E+03  0.00000000000E+00 0. -1.
<scales pt_clust_3="255.92411" pt_clust_4="33.45023" pt_clust_5="49.84745" pt_clust_6="33.45023"></scales>
<clustering>
<clus scale="   33.450">  4  6 -1 -1</clus>
<clus scale="   49.847">  1  5  2 -1</clus>
<clus scale="  255.924">  1  3  2 -1</clus>
<clus scale="   49.847">  1  3  2 -1</clus>
</clustering>
</event>
<event>
 6    0  0.5563122E+002  0.1179560E+03  0.7546771E-02  0.1246508E+00
         21   -1    0    0  506  501  0.00000000000E+00  0.00000000000E+00  0.39382579176E+02  0.39382579176E+02  0.00000000000E+00 0.  1.
         21   -1    0    0  503  502 -0.00000000000E+00 -0.00000000000E+00 -0.69733555572E+03  0.69733555572E+03  0.00000000000E+00 0.  1.
         21    1    1    2  503  504  0.56986473908E+02 -0.85083647778E+01 -0.10334474260E+03  0.11832153778E+03  0.00000000000E+00 0.  1.
         21    1    1    2  504  505  0.77138029618E+02 -0.81164594408E+01 -0.31513853065E+03  0.32454344244E+03  0.00000000000E+00 0.  1.
         21    1    1    2  505  501 -0.47629763435E+02  0.24525333450E+02 -0.18917513476E+02  0.56815127052E+02  0.00000000000E+00 0.  1.
         21    1    1    2  506  502 -0.86494740090E+02 -0.79005092318E+01 -0.22055218982E+03  0.23703802763E+03  0.00000000000E+00 0.  1.
<scales pt_clust_3="45.07734" pt_clust_4="45.07734" pt_clust_5="53.57319" pt_clust_6="105.72722"></scales>
<clustering>
<clus scale="   45.077">  3  4 -1 -1</clus>
<clus scale="   53.573">  1  5  2 -1</clus>
<clus scale="  105.727">  2  6  1 -1</clus>
<clus scale="   53.573">  1  3  2 -1</clus>
</clustering>
</event>
<event>
 6    0  0.5563122E+002  0.1865339E+03  0.7546771E-02  0.1161625E+00
         21   -1    0    0  504  501  0.00000000000E+00  0.00000000000E+00  0.61736383165E+02  0.61736383165E+02  0.00000000000E+00 0.  1.
         21   -1    0    0  506  502 -0.00000000000E+00 -0.00000000000E+00 -0.76572023629E+03  0.76572023629E+03  0.00000000000E+00 0.  1.
         21    1    1    2  503  505  0.46185062902E+02 -0.44815101788E+02 -0.14576052978E+03  0.15933482176E+03  0.00000000000E+00 0.  1.
         21    1    1    2  504  503  0.41252124379E+02  0.31294966694E+01 -0.54948323084E+01  0.41733975335E+02  0.00000000000E+00 0.  1.
         21    1    1    2  505  502  0.10167286948E+03  0.25963562112E+02 -0.19433372997E+03  0.22085533172E+03  0.00000000000E+00 0.  1.
         21    1    1    2  506  501 -0.18911005676E+03  0.15722043007E+02 -0.35839476107E+03  0.40553249064E+03  0.00000000000E+00 0.  1.
<scales pt_clust_3="62.49923" pt_clust_4="41.37066" pt_clust_5="62.49923" pt_clust_6="167.72533"></scales>
<clustering>
<clus scale="   41.371">  1  4  2 -1</clus>
<clus scale="   62.499">  3  5 -1 -1</clus>
<clus scale="  167.725">  1  6  2 -1</clus>
<clus scale="   41.371">  1  3  2 -1</clus>
</clustering>
</event>
<event>
 6    0  0.5563122E+002  0.2015373E+03  0.7546771E-02  0.1148448E+00
         21   -1    0    0  506  501  0.00000000000E+00  0.00000000000E+00  0.35312943435E+03  0.35312943435E+03  0.00000000000E+00 0.  1.
         21   -1    0    0  505  502 -0.00000000000E+00 -0.00000000000E+00 -0.19358950392E+03  0.19358950392E+03  0.00000000000E+00 0.  1.
         21    1    1    2  503  501 -0.46787609493E+02  0.42161718997E+02  0.19797841902E+02  0.66020038585E+02  0.00000000000E+00 0.  1.
         21    1    1    2  504  502  0.15280667929E+03 -0.10978741232E+03  0.56737423895E+01  0.18824279134E+03  0.00000000000E+00 0.  1.
         21    1    1    2  505  503 -0.14206731982E+03  0.25499353087E+02 -0.32422693207E+01  0.14437400278E+03  0.00000000000E+00 0.  1.
         21    1    1    2  506  504  0.36048250028E+02  0.42126340232E+02  0.13731061546E+03  0.14808210557E+03  0.00000000000E+00 0.  1.
<scales pt_clust_3="40.43711" pt_clust_4="192.01538" pt_clust_5="40.43711" pt_clust_6="55.44461"></scales>
<clustering>
<clus scale="   40.437">  3  5 -1 -1</clus>
<clus scale="   55.445">  1  6  2 -1</clus>
<clus scale="  192.015">  2  4  1 -1</clus>
<clus scale="   55.445">  1  3  2 -1</clus>
</clustering>
</event>
<event>
 6    0  0.5563122E+002  0.3553189E+03  0.7546771E-02  0.1060453E+00
         21   -1    0    0  503  501  0.00000000000E+00  0.00000000000E+00  0.11232791443E+04  0.11232791443E+04  0.00000000000E+00 0.  1.
         21   -1    0    0  504  502 -0.00000000000E+00 -0.00000000000E+00 -0.20993982209E+04  0.20993982209E+04  0.00000000000E+00 0. -1.
         21    1    1    2  503  506 -0.45573583046E+02  0.74207625590E+01  0.39752976161E+02  0.60928796987E+02  0.00000000000E+00 0. -1.
         21    1    1    2  504  505  0.35396320950E+03 -0.16388778491E+02  0.57876143101E+03  0.67861869983E+03  0.00000000000E+00 0.  1.
         21    1    1    2  505  501  0.46962459790E+02  0.89827563905E+01  0.42742165952E+03  0.43008770916E+03  0.00000000000E+00 0.  1.
         21    1    1    2  506  502 -0.35535208624E+03 -0.14740458119E-01 -0.20220551432E+04  0.20530421592E+04  0.00000000000E+00 0. -1.
<scales pt_clust_3="46.17379" pt_clust_4="355.31888" pt_clust_5="31.13474" pt_clust_6="14000.00000"></scales>
<clustering>
<clus scale="   46.174">  1  3  2 -1</clus>
<clus scale="   31.135">  1  5  2 -1</clus>
<clus scale="  355.319">  1  4  2 -1</clus>
<clus scale="   46.174">  1  3  2 -1</clus>
</clustering>
</event>
<event>
 6    0  0.5563122E+002  0.8459389E+02  0.7546771E-02  0.1316498E+00
         21   -1    0    0  503  501  0.00000000000E+00  0.00000000000E+00  0.10455283920E+04  0.10455283920E+04  0.00000000000E+00 0. -1.
         21   -1    0    0  506  502 -0.00000000000E+00 -0.00000000000E+00 -0.14620742334E+03  0.14620742334E+03  0.00000000000E+00 0. -1.
         21    1    1    2  503  504 -0.11684845556E+03 -0.39430726175E+02 -0.54436712818E+02  0.13480244595E+03  0.00000000000E+00 0. -1.
         21    1    1    2  504  502  0.56541013341E+01  0.39238293519E+02  0.85625700343E+01  0.40557738420E+02  0.00000000000E+00 0. -1.
         21    1    1    2  505  501  0.54735757261E+02 -0.11808915397E+02  0.95601225526E+03  0.95765071180E+03  0.00000000000E+00 0. -1.
         21    1    1    2  506  505  0.56458596963E+02  0.12001348053E+02 -0.10817143839E+02  0.58724919131E+02  0.00000000000E+00 0. -1.
<scales pt_clust_3="84.59389" pt_clust_4="39.64357" pt_clust_5="55.97838" pt_clust_6="14000.00000"></scales>
<clustering>
<clus scale="   39.644">  2  4  1 -1</clus>
<clus scale="   55.978">  1  5  2 -1</clus>
<clus scale="   84.594">  2  3  1 -1</clus>
<clus scale="   55.978">  1  3  2 -1</clus>
</clustering>
</event>
<event>
 6    0  0.5563122E+002  0.9571221E+02  0.7546771E-02  0.1289580E+00
         21   -1    0    0  502  501  0.00000000000E+00  0.00000000000E+00  0.11469961087E+04  0.11469961087E+04  0.00000000000E+00 0. -1.
         21   -1    0    0  503  502 -0.00000000000E+00 -0.00000000000E+00 -0.21635573287E+02  0.21635573287E+02  0.00000000000E+00 0. -1.
         21    1    1    2  503  506 -0.75963557120E+01  0.79621064705E+02  0.17525170105E+03  0.19264053905E+03  0.00000000000E+00 0. -1.
         21    1    1    2  504  501 -0.79173742126E+02 -0.44334692112E+01  0.59488864760E+03  0.60015051457E+03  0.00000000000E+00 0. -1.
         21    1    1    2  505  504  0.37697077611E+02 -0.60740544483E+02  0.21572224427E+03  0.22725881738E+03  0.00000000000E+00 0. -1.
         21    1    1    2  506  505  0.49073020227E+02 -0.14447051010E+02  0.13949794251E+03  0.14858181101E+03  0.00000000000E+00 0.  1.
<scales pt_clust_3="85.25406" pt_clust_4="79.29777" pt_clust_5="36.80075" pt_clust_6="36.80075"></scales>
<clustering>
<clus scale="   36.801">  5  6 -1 -1</clus>
<clus scale="   79.298">  1  4  2 -1</clus>
<clus scale="   85.254">  2  3  1 -1</clus>
<clus scale="   79.298">  1  3  2 -1</clus>
</clustering>
</event>
<event>
 6    0  0.5563122E+002  0.1542488E+03  0.7546771E-02  0.1195347E+00
         21   -1    0    0  506  501  0.00000000000E+00  0.00000000000E+00  0.20958404294E+03  0.20958404294E+03  0.00000000000E+00 0.  1.
         21   -1    0    0  504  502 -0.00000000000E+00 -0.00000000000E+00 -0.31132481628E+03  0.31132481628E+03  0.00000000000E+00 0.  1.
         21    1    1    2  503  505  0.42374168491E+02 -0.38519460529E+02 -0.19577537697E+02  0.60519409920E+02  0.00000000000E+00 0.  1.
         21    1    1    2  504  503 -0.11316698755E+03  0.61820992597E+02 -0.12039834653E+03  0.17642098527E+03  0.00000000000E+00 0.  1.
         21    1    1    2  505  501  0.10751592334E+03  0.73187523178E+01 -0.94221222871E+02  0.14314634730E+03  0.00000000000E+00 0.  1.
         21    1    1    2  506  502 -0.36723104284E+02 -0.30620284386E+02  0.13245633376E+03  0.14082211672E+03  0.00000000000E+00 0.  1.
<scales pt_clust_3="55.18207" pt_clust_4="136.76125" pt_clust_5="55.18207" pt_clust_6="47.81410"></scales>
<clustering>
<clus scale="   47.814">  1  6  2 -1</clus>
<clus scale="   55.182">  3  5 -1 -1</clus>
<clus scale="  136.761">  2  4  1 -1</clus>
<clus scale="   47.814">  1  3  2 -1</clus>
</clustering>
</event>
<event>
 6    0  0.5563122E+002  0.9345394E+02  0.7546771E-02  0.1294697E+00
         21   -1    0    0  506  501  0.00000000000E+00  0.00000000000E+00  0.92083374873E+02  0.92083374873E+02  0.00000000000E+00 0. -1.
         21   -1    0    0  504  502 -0.00000000000E+00 -0.00000000000E+00 -0.10724308653E+04  0.10724308653E+04  0.00000000000E+00 0.  1.
         21    1    1    2  503  502  0.31060902520E+02  0.42893665439E+01 -0.85694454763E+03  0.85751800916E+03  0.00000000000E+00 0.  1.
         21    1    1    2  504  501 -0.84397964862E+02  0.35190587186E+02  0.52469495356E+01  0.91591071502E+02  0.00000000000E+00 0. -1.
         21    1    1    2  505  503 -0.59982052229E+01  0.53077460009E+02 -0.77552407222E+02  0.94167781607E+02  0.00000000000E+00 0. -1.
         21    1    1    2  506  505  0.59335267565E+02 -0.92557413739E+02 -0.51097485110E+02  0.12123737790E+03  0.00000000000E+00 0.  1.
<scales pt_clust_3="31.35567" pt_clust_4="93.45394" pt_clust_5="55.16071" pt_clust_6="14000.00000"></scales>
<clustering>
<clus scale="   31.356">  2  3  1 -1</clus>
<clus scale="   55.161">  2  5  1 -1</clus>
<clus scale="   93.454">  1  4  2 -1</clus>
<clus scale="   93.454">  1  3  2 -1</clus>
</clustering>
</event>
<event>
 6    0  0.5563122E+002  0.1289761E+03  0.7546771E-02  0.1228983E+00
         21   -1    0    0  506  501  0.00000000000E+00  0.00000000000E+00  0.56795178366E+03  0.56795178366E+03  0.00000000000E+00 0.  1.
         21   -1    0    0  503  502 -0.00000000000E+00 -0.00000000000E+00 -0.10064596579E+03  0.10064596579E+03  0.00000000000E+00 0. -1.
         21    1    1    2  503  505 -0.62464808314E+02  0.26411706496E+02  0.15422165187E+02  0.69550511837E+02  0.00000000000E+00 0. -1.
         21    1    1    2  504  501  0.21783629737E+02  0.30359217018E+02  0.39934231905E+03  0.40108664446E+03  0.00000000000E+00 0.  1.
         21    1    1    2  505  504 -0.67215161807E+02 -0.48929425298E+01  0.37979405397E+02  0.77357960790E+02  0.00000000000E+00 0. -1.
         21    1    1    2  506  502  0.10789634038E+03 -0.51877980984E+02  0.14561928237E+02  0.12060263236E+03  0.00000000000E+00 0. -1.
<scales pt_clust_3="36.20357" pt_clust_4="37.36587" pt_clust_5="36.20357" pt_clust_6="123.22508"></scales>
<clustering>
<clus scale="   37.366">  1  4  2 -1</clus>
<clus scale="   36.204">  3  5 -1 -1</clus>
<clus scale="  123.225">  2  6  1 -1</clus>
<clus scale="   37.366">  1  3  2 -1</clus>
</clustering>
</event>
<event>
 6    0  0.5563122E+002  0.2719983E+03  0.7546771E-02  0.1100141E+00
         21   -1    0    0  506  501  0.00000000000E+00  0.00000000000E+00  0.39946495950E+03  0.39946495950E+03  0.00000000000E+00 0.  1.
         21   -1    0    0  505  502 -0.00000000000E+00 -0.00000000000E+00 -0.72541082507E+03  0.72541082507E+03  0.00000000000E+00 0.  1.
         21    1    1    2  503  504 -0.73649304189E+02 -0.62830384709E+02 -0.23228697513E+03  0.25165276884E+03  0.00000000000E+00 0.  1.
         21    1    1    2  504  502 -0.33429921055E+02  0.38112320334E+02 -0.78861451670E+02  0.93750931422E+02  0.00000000000E+00 0.  1.
         21    1    1    2  505  501  0.17984172145E+03  0.19142502741E+03  0.31055114785E+03  0.40672914983E+03  0.00000000000E+00 0.  1.
         21    1    1    2  506  503 -0.72762496206E+02 -0.16670696304E+03 -0.32534858663E+03  0.37274293447E+03  0.00000000000E+00 0.  1.
<scales pt_clust_3="50.48457" pt_clust_4="50.69624" pt_clust_5="263.04809" pt_clust_6="50.48457"></scales>
<clustering>
<clus scale="   50.485">  3  6 -1 -1</clus>
<clus scale="   50.696">  2  4  1 -1</clus>
<clus scale="  263.048">  1  5  2 -1</clus>
<clus scale="  263.048">  1  3  2 -1</clus>
</clustering>
</event>
<event>
 6    0  0.5563122E+002  0.1377812E+03  0.7546771E-02  0.1216346E+00
         21   -1    0    0  504  501  0.00000000000E+00  0.00000000000E+00  0.81621894878E+03  0.81621894878E+03  0.00000000000E+00 0. -1.
         21   -1    0    0  505  502 -0.00000000000E+00 -0.00000000000E+00 -0.34814323270E+02  0.34814323270E+02  0.00000000000E+00 0. -1.
         21    1    1    2  503  502  0.51450463634E+02  0.74164768645E+02  0.13779737331E+03  0.16472910856E+03  0.00000000000E+00 0.  1.
         21    1    1    2  504  503  0.60743566721E+02  0.12146492043E+02  0.14178398209E+03  0.15472561437E+03  0.00000000000E+00 0. -1.
         21    1    1    2  505  506 -0.93144130092E+02 -0.58259917743E+02  0.20286826623E+03  0.23070669784E+03  0.00000000000E+00 0. -1.
         21    1    1    2  506  501 -0.19049900263E+02 -0.28051342945E+02  0.29895500389E+03  0.30087185128E+03  0.00000000000E+00 0. -1.
<scales pt_clust_3="51.52943" pt_clust_4="51.52943" pt_clust_5="123.02529" pt_clust_6="33.90836"></scales>
<clustering>
<clus scale="   33.908">  1  6  2 -1</clus>
<clus scale="   51.529">  3  4 -1 -1</clus>
<clus scale="  123.025">  2  5  1 -1</clus>
<clus scale="   33.908">  1  3  2 -1</clus>
</clustering>
</event>
<event>
 6    0  0.5563122E+002  0.1538106E+03  0.7546771E-02  0.1195867E+00
         21   -1    0    0  503  501  0.00000000000E+00  0.00000000000E+00  0.26220993411E+03  0.26220993411E+03  0.00000000000E+00 0. -1.
         21   -1    0    0  506  502 -0.00000000000E+00 -0.00000000000E+00 -0.57453484638E+03  0.57453484638E+03  0.00000000000E+00 0.  1.
         21    1    1    2  503  505  0.57212284096E+02  0.20703618643E+03 -0.64654818547E+02  0.22431556679E+03  0.00000000000E+00 0. -1.
         21    1    1    2  504  501  0.17570517180E+02  0.51799640781E+02  0.11466695030E+03  0.12704501309E+03  0.00000000000E+00 0. -1.
         21    1    1    2  505  502 -0.64328287141E+02 -0.12731680720E+03 -0.31398621988E+03  0.34486960463E+03  0.00000000000E+00 0.  1.
         21    1    1    2  506  504 -0.10454514135E+02 -0.13151902001E+03 -0.48350824151E+02  0.14051459599E+03  0.00000000000E+00 0.  1.
<scales pt_clust_3="153.81056" pt_clust_4="54.69850" pt_clust_5="14000.00000" pt_clust_6="114.72955"></scales>
<clustering>
<clus scale="   54.698">  1  4  2 -1</clus>
<clus scale="  114.730">  1  6  2 -1</clus>
<clus scale="  153.811">  1  3  2 -1</clus>
<clus scale="   54.698">  1  3  2 -1</clus>
</clustering>
</event>
<event>
 6    0  0.5563122E+002  0.1146947E+03  0.7546771E-02  0.1252115E+00
         21   -1    0    0  505  501  0.00000000000E+00  0.00000000000E+00  0.32379053139E+03  0.32379053139E+03  0.00000000000E+00 0.  1.
         21   -1    0    0  501  502 -0.00000000000E+00 -0.00000000000E+00 -0.76605374844E+02  0.76605374844E+02  0.00000000000E+00 0.  1.
         21    1    1    2  503  504  0.36834346386E+01  0.37469503090E+02  0.90042142432E+02  0.97596714936E+02  0.00000000000E+00 0. -1.
         21    1    1    2  504  506 -0.94313843411E+02 -0.87492943986E+02  0.48463048995E+02  0.13747284613E+03  0.00000000000E+00 0.  1.
         21    1    1    2  505  503  0.53079672846E+02  0.44537719176E+02  0.10682860431E+03  0.12733189230E+03  0.00000000000E+00 0.  1.
         21    1    1    2  506  502  0.37550735927E+02  0.54857217188E+01  0.18513608110E+01  0.37994452862E+02  0.00000000000E+00 0.  1.
<scales pt_clust_3="32.02568" pt_clust_4="106.14765" pt_clust_5="32.02568" pt_clust_6="37.94932"></scales>
<clustering>
<clus scale="   32.026">  3  5 -1 -1</clus>
<clus scale="   37.949">  2  6  1 -1</clus>
<clus scale="  106.148">  2  4  1 -1</clus>
<clus scale="  114.695">  1  3  2 -1</clus>
</clustering>
</event>
<event>
 6    0  0.5563122E+002  0.1057782E+03  0.7546771E-02  0.1268594E+00
         21   -1    0    0  503  501  0.00000000000E+00  0.00000000000E+00  0.18858007843E+03  0.18858007843E+03  0.00000000000E+00 0.  1.
         21   -1    0    0  506  502 -0.00000000000E+00 -0.00000000000E+00 -0.59196796053E+03  0.59196796053E+03  0.00000000000E+00 0. -1.
         21    1    1    2  503  502  0.37669182782E+02 -0.10672276495E+02  0.12360867078E+03  0.12966097450E+03  0.00000000000E+00 0.  1.
         21    1    1    2  504  501  0.36764749879E+00 -0.36065791415E+02  0.55195177107E+01  0.36487553369E+02  0.00000000000E+00 0.  1.
         21    1    1    2  505  504  0.60944679598E+02 -0.95608891725E+01  0.78300697346E+01  0.62185002734E+02  0.00000000000E+00 0. -1.
         21    1    1    2  506  505 -0.98981509879E+02  0.56298957082E+02 -0.54034614032E+03  0.55221450835E+03  0.00000000000E+00 0. -1.
<scales pt_clust_3="53.65074" pt_clust_4="36.06767" pt_clust_5="105.77819" pt_clust_6="14000.00000"></scales>
<clustering>
<clus scale="   36.068">  1  4  2 -1</clus>
<clus scale="   53.651">  1  3  2 -1</clus>
<clus scale="  105.778">  1  5  2 -1</clus>
<clus scale="   36.068">  1  3  2 -1</clus>
</clustering>
</event>
<event>
 6    0  0.5563122E+002  0.1535035E+03  0.7546771E-02  0.1196233E+00
         21   -1    0    0  504  501  0.00000000000E+00  0.00000000000E+00  0.65734565586E+03  0.65734565586E+03  0.00000000000E+00 0.  1.
         21   -1    0    0  503  502 -0.00000000000E+00 -0.00000000000E+00 -0.89105419584E+03  0.89105419584E+03  0.00000000000E+00 0. -1.
         21    1    1    2  503  506  0.47255611481E+02 -0.76298371793E+02 -0.22693501729E+02  0.92571752579E+02  0.00000000000E+00 0.  1.
         21    1    1    2  504  505  0.34306848397E+02  0.10444474527E+03  0.58117591655E+03  0.59148213045E+03  0.00000000000E+00 0.  1.
         21    1    1    2  505  502 -0.14858886148E+03  0.71482549868E+00 -0.77533952925E+03  0.78944952109E+03  0.00000000000E+00 0. -1.
         21    1    1    2  506  501  0.67026401597E+02 -0.28861198980E+02 -0.16851425545E+02  0.74896447583E+02  0.00000000000E+00 0.  1.
<scales pt_clust_3="43.83300" pt_clust_4="109.93482" pt_clust_5="145.60372" pt_clust_6="43.83300"></scales>
<clustering>
<clus scale="   43.833">  3  6 -1 -1</clus>
<clus scale="  109.935">  1  4  2 -1</clus>
<clus scale="  145.604">  2  5  1 -1</clus>
<clus scale="  109.935">  1  3  2 -1</clus>
</clustering>
</event>
<event>
 6    0  0.5563122E+002  0.1022436E+03  0.7546771E-02  0.1275648E+00
         21   -1    0    0  505  501  0.00000000000E+00  0.00000000000E+00  0.13949276586E+03  0.13949276586E+03  0.00000000000E+00 0. -1.
         21   -1    0    0  506  502 -0.00000000000E+00 -0.00000000000E+00 -0.83480011626E+03  0.83480011626E+03  0.00000000000E+00 0. -1.
         21    1    1    2  503  501 -0.29158041662E+02  0.91278767517E+01 -0.57349178480E+01  0.31086955629E+02  0.00000000000E+00 0. -1.
         21    1    1    2  504  502  0.74958246893E+02  0.43584735808E+02 -0.40427675858E+03  0.41347075532E+03  0.00000000000E+00 0. -1.
         21    1    1    2  505  504 -0.28135726379E+02 -0.97361709129E+02  0.99458634353E+02  0.14199627267E+03  0.00000000000E+00 0. -1.
         21    1    1    2  506  503 -0.17664478852E+02  0.44649096569E+02 -0.38475430833E+03  0.38773889851E+03  0.00000000000E+00 0. -1.
<scales pt_clust_3="30.55339" pt_clust_4="102.24358" pt_clust_5="14000.00000" pt_clust_6="48.24332"></scales>
<clustering>
<clus scale="   30.553">  1  3  2 -1</clus>
<clus scale="   48.243">  2  6  1 -1</clus>
<clus scale="  102.244">  2  4  1 -1</clus>
<clus scale="   30.553">  1  3  2 -1</clus>
</clustering>
</event>
<event>
 6    0  0.5563122E+002  0.1339449E+03  0.7546771E-02  0.1221717E+00
         21   -1    0    0  504  501  0.00000000000E+00  0.00000000000E+00  0.17440247252E+03  0.17440247252E+03  0.00000000000E+00 0. -1.
         21   -1    0    0  503  502 -0.00000000000E+00 -0.00000000000E+00 -0.13428393353E+04  0.13428393353E+04  0.00000000000E+00 0.  1.
         21    1    1    2  503  506  0.13545331266E+02  0.35124508590E+02 -0.22564546745E+03  0.22876425438E+03  0.00000000000E+00 0.  1.
         21    1    1    2  504  502  0.13592305112E+03 -0.61746852592E+02 -0.10168261117E+04  0.10277271482E+04  0.00000000000E+00 0.  1.
         21    1    1    2  505  501 -0.77385040699E+02 -0.16807258507E+02  0.13522127875E+03  0.15670265693E+03  0.00000000000E+00 0. -1.
         21    1    1    2  506  505 -0.72083341689E+02  0.43429602508E+02 -0.61186562405E+02  0.10404774838E+03  0.00000000000E+00 0. -1.
<scales pt_clust_3="37.64581" pt_clust_4="14000.00000" pt_clust_5="78.99057" pt_clust_6="133.94494"></scales>
<clustering>
<clus scale="   37.646">  2  3  1 -1</clus>
<clus scale="   78.991">  1  5  2 -1</clus>
<clus scale="  133.945">  1  6  2 -1</clus>
<clus scale="   78.991">  1  3  2 -1</clus>
</clustering>
</event>
<event>
 6    0  0.5563122E+002  0.1085843E+03  0.7546771E-02  0.1263214E+00
         21   -1    0    0  505  501  0.00000000000E+00  0.00000000000E+00  0.22299458987E+03  0.22299458987E+03  0.00000000000E+00 0. -1.
         21   -1    0    0  504  502 -0.00000000000E+00 -0.00000000000E+00 -0.16959228431E+03  0.16959228431E+03  0.00000000000E+00 0. -1.
         21    1    1    2  503  501 -0.84934311010E+02 -0.98387737314E+02 -0.18210500522E+02  0.13124635755E+03  0.00000000000E+00 0. -1.
         21    1    1    2  504  503  0.38023385820E+02 -0.34890038521E+02 -0.38635644845E+02  0.64465538932E+02  0.00000000000E+00 0. -1.
         21    1    1    2  505  506  0.45333811792E+02  0.93390401533E+02  0.11697117845E+03  0.15639430353E+03  0.00000000000E+00 0. -1.
         21    1    1    2  506  502  0.15771133983E+01  0.39887374302E+02 -0.67227275177E+01  0.40480674163E+02  0.00000000000E+00 0. -1.
<scales pt_clust_3="108.58432" pt_clust_4="43.83269" pt_clust_5="14000.00000" pt_clust_6="39.91854"></scales>
<clustering>
<clus scale="   39.919">  2  6  1 -1</clus>
<clus scale="   43.833">  2  4  1 -1</clus>
<clus scale="  108.584">  2  3  1 -1</clus>
<clus scale="  108.584">  1  3  2 -1</clus>
</clustering>
</event>
<event>
 6    0  0.5563122E+002  0.1379316E+03  0.7546771E-02  0.1216140E+00
         21   -1    0    0  505  501  0.00000000000E+00  0.00000000000E+00  0.82236331105E+03  0.82236331105E+03  0.00000000000E+00 0. -1.
         21   -1    0    0  503  502 -0.00000000000E+00 -0.00000000000E+00 -0.96499811058E+03  0.96499811058E+03  0.00000000000E+00 0. -1.
         21    1    1    2  503  501  0.48832007128E+02  0.63333354966E+01 -0.82746490944E+02  0.96289448135E+02  0.00000000000E+00 0. -1.
         21    1    1    2  504  502 -0.69794398323E+02 -0.23889500932E+02 -0.73490570387E+03  0.73859891678E+03  0.00000000000E+00 0. -1.
         21    1    1    2  505  506  0.48635230180E+02  0.13019269232E+03  0.78225725971E+03  0.79450735876E+03  0.00000000000E+00 0. -1.
         21    1    1    2  506  504 -0.27672838985E+02 -0.11263652688E+03 -0.10723986443E+03  0.15796569795E+03  0.00000000000E+00 0. -1.
<scales pt_clust_3="49.24100" pt_clust_4="34.17849" pt_clust_5="137.93158" pt_clust_6="14000.00000"></scales>
<clustering>
<clus scale="   49.241">  2  3  1 -1</clus>
<clus scale="   34.178">  2  4  1 -1</clus>
<clus scale="  137.932">  1  5  2 -1</clus>
<clus scale="  137.932">  1  3  2 -1</clus>
</clustering>
</event>
<event>
 6    0  0.5563122E+002  0.1767028E+03  0.7546771E-02  0.1171033E+00
         21   -1    0    0  502  501  0.00000000000E+00  0.00000000000E+00  0.25397619465E+03  0.25397619465E+03  0.00000000000E+00 0.  1.
         21   -1    0    0  506  502 -0.00000000000E+00 -0.00000000000E+00 -0.29612019743E+03  0.29612019743E+03  0.00000000000E+00 0.  1.
         21    1    1    2  503  504  0.94353214772E+02  0.10469397157E+03 -0.19070983151E+02  0.14222186618E+03  0.00000000000E+00 0.  1.
         21    1    1    2  504  501  0.57951040414E+02 -0.24611199599E+02  0.14239993124E+03  0.15569770277E+03  0.00000000000E+00 0.  1.
         21    1    1    2  505  503 -0.49612807290E+02  0.46837378052E+01 -0.16795650633E+02  0.52587659458E+02  0.00000000000E+00 0.  1.
         21    1    1    2  506  505 -0.10269144790E+03 -0.84766509775E+02 -0.14867730024E+03  0.19958916367E+03  0.00000000000E+00 0.  1.
<scales pt_clust_3="156.91352" pt_clust_4="62.96058" pt_clust_5="49.70681" pt_clust_6="49.70681"></scales>
<clustering>
<clus scale="   49.707">  5  6 -1 -1</clus>
<clus scale="   62.961">  1  4  2 -1</clus>
<clus scale="  156.914">  1  3  2 -1</clus>
<clus scale="   62.961">  1  3  2 -1</clus>
</clustering>
</event>
<event>
 6    0  0.6077786E+002  0.1220364E+03  0.7546771E-02  0.1239775E+00
         21   -1    0    0  506  501  0.00000000000E+00  0.00000000000E+00  0.61185483413E+03  0.61185483413E+03  0.00000000000E+00 0. -1.
         21   -1    0    0  504  502 -0.00000000000E+00 -0.00000000000E+00 -0.31147393187E+04  0.31147393187E+04  0.00000000000E+00 0.  1.
         21    1    1    2  503  505 -0.93182575246E+02 -0.75829740886E+02  0.37170639647E+03  0.39063894725E+03  0.00000000000E+00 0. -1.
         21    1    1    2  504  501  0.63717338503E+02  0.37571301077E+02 -0.15774281615E+03  0.17422484879E+03  0.00000000000E+00 0.  1.
         21    1    1    2  505  502  0.67713610550E+01  0.67451157646E+02 -0.29373588142E+04  0.29381409622E+04  0.00000000000E+00 0.  1.
         21    1    1    2  506  503  0.22693875689E+02 -0.29192717837E+02  0.22051074939E+03  0.22358939457E+03  0.00000000000E+00 0. -1.
<scales pt_clust_3="122.03636" pt_clust_4="14000.00000" pt_clust_5="67.76333" pt_clust_6="36.97603"></scales>
<clustering>
<clus scale="   36.976">  1  6  2 -1</clus>
<clus scale="   67.763">  2  5  1 -1</clus>
<clus scale="  122.036">  1  3  2 -1</clus>
<clus scale="   36.976">  1  3  2 -1</clus>
</clustering>
</event>
<event>
 6    0  0.5563122E+002  0.1526197E+03  0.7546771E-02  0.1197290E+00
         21   -1    0    0  504  501  0.00000000000E+00  0.00000000000E+00  0.24388115507E+03  0.24388115507E+03  0.00000000000E+00 0. -1.
         21   -1    0    0  503  502 -0.00000000000E+00 -0.00000000000E+00 -0.75588579258E+03  0.75588579258E+03  0.00000000000E+00 0. -1.
         21    1    1    2  503  505  0.12936138510E+03  0.51590038663E+02 -0.57635833008E+03  0.59294588682E+03  0.00000000000E+00 0. -1.
         21    1    1    2  504  502  0.28060761592E+02  0.13034724467E+03  0.88704650342E+02  0.16014470184E+03  0.00000000000E+00 0. -1.
         21    1    1    2  505  506 -0.63797729582E+02 -0.52326751337E+02 -0.26841721783E+02  0.86768180997E+02  0.00000000000E+00 0. -1.
         21    1    1    2  506  501 -0.93624417106E+02 -0.12961053200E+03  0.24907640141E+01  0.15990817799E+03  0.00000000000E+00 0. -1.
<scales pt_clust_3="144.63548" pt_clust_4="133.33346" pt_clust_5="34.99698" pt_clust_6="34.99698"></scales>
<clustering>
<clus scale="   34.997">  5  6 -1 -1</clus>
<clus scale="  133.333">  1  4  2 -1</clus>
<clus scale="  144.635">  2  3  1 -1</clus>
<clus scale="  133.333">  1  3  2 -1</clus>
</clustering>
</event>
<event>
 6    0  0.5563122E+002  0.6381920E+02  0.7546771E-02  0.1382469E+00
         21   -1    0    0  505  501  0.00000000000E+00  0.00000000000E+00  0.35657528764E+03  0.35657528764E+03  0.00000000000E+00 0.  1.
         21   -1    0    0  506  502 -0.00000000000E+00 -0.00000000000E+00 -0.99034263466E+02  0.99034263466E+02  0.00000000000E+00 0.  1.
         21    1    1    2  503  504 -0.14175721756E+02  0.92484510108E+02  0.11455688459E+03  0.14791083633E+03  0.00000000000E+00 0.  1.
         21    1    1    2  504  501 -0.15915542336E+02 -0.38823654219E+02  0.16708445954E+03  0.17227245059E+03  0.00000000000E+00 0.  1.
         21    1    1    2  505  502 -0.34543300107E+02 -0.38071373243E+02 -0.42210251922E+02  0.66515971091E+02  0.00000000000E+00 0.  1.
         21    1    1    2  506  503  0.64634564198E+02 -0.15589482647E+02  0.18109931973E+02  0.68910293095E+02  0.00000000000E+00 0.  1.
<scales pt_clust_3="14000.00000" pt_clust_4="41.95927" pt_clust_5="53.97992" pt_clust_6="63.81920"></scales>
<clustering>
<clus scale="   41.959">  1  4  2 -1</clus>
<clus scale="   53.980">  2  5  1 -1</clus>
<clus scale="   63.819">  2  6  1 -1</clus>
<clus scale="   41.959">  1  3  2 -1</clus>
</clustering>
</event>
<event>
 6    0  0.5563122E+002  0.6389434E+02  0.7546771E-02  0.1382179E+00
         21   -1    0    0  503  501  0.00000000000E+00  0.00000000000E+00  0.89434038491E+03  0.89434038491E+03  0.00000000000E+00 0.  1.
         21   -1    0    0  504  502 -0.00000000000E+00 -0.00000000000E+00 -0.26537451783E+03  0.26537451783E+03  0.00000000000E+00 0.  1.
         21    1    1    2  503  506 -0.23891221841E+02  0.81913679567E+02  0.48656888684E+03  0.49399384917E+03  0.00000000000E+00 0.  1.
         21    1    1    2  504  501  0.31308245363E+02 -0.32828026543E+02  0.26591653854E+03  0.26975820845E+03  0.00000000000E+00 0.  1.
         21    1    1    2  505  502  0.10778203909E+02  0.44678412519E+02 -0.24055133471E+03  0.24490258238E+03  0.00000000000E+00 0.  1.
         21    1    1    2  506  505 -0.18195227431E+02 -0.93764065543E+02  0.11703177641E+03  0.15106026274E+03  0.00000000000E+00 0.  1.
<scales pt_clust_3="14000.00000" pt_clust_4="45.36392" pt_clust_5="45.87496" pt_clust_6="63.89434"></scales>
<clustering>
<clus scale="   45.364">  1  4  2 -1</clus>
<clus scale="   45.875">  2  5  1 -1</clus>
<clus scale="   63.894">  2  6  1 -1</clus>
<clus scale="   45.364">  1  3  2 -1</clus>
</clustering>
</event>
<event>
 6    0  0.5563122E+002  0.1475642E+03  0.7546771E-02  0.1203498E+00
         21   -1    0    0  503  501  0.00000000000E+00  0.00000000000E+00  0.47026425441E+03  0.47026425441E+03  0.00000000000E+00 0. -1.
         21   -1    0    0  505  502 -0.00000000000E+00 -0.00000000000E+00 -0.77581989688E+02  0.77581989688E+02  0.00000000000E+00 0. -1.
         21    1    1    2  503  506 -0.39836973672E+02  0.58317671884E+02  0.15482716009E+03  0.17017457162E+03  0.00000000000E+00 0. -1.
         21    1    1    2  504  501  0.40957771164E+02 -0.85412203856E+02  0.69146685965E+02  0.11727765246E+03  0.00000000000E+00 0. -1.
         21    1    1    2  505  504 -0.28214348829E+02 -0.80644886643E+02  0.90981200338E+02  0.12480875785E+03  0.00000000000E+00 0. -1.
         21    1    1    2  506  502  0.27093551337E+02  0.10773941862E+03  0.77727218331E+02  0.13558526217E+03  0.00000000000E+00 0. -1.
<scales pt_clust_3="70.62532" pt_clust_4="68.66608" pt_clust_5="68.66608" pt_clust_6="128.63771"></scales>
<clustering>
<clus scale="   68.666">  4  5 -1 -1</clus>
<clus scale="   70.625">  1  3  2 -1</clus>
<clus scale="  128.638">  2  6  1 -1</clus>
<clus scale="   70.625">  1  3  2 -1</clus>
</clustering>
</event>
<event>
 6    0  0.5563122E+002  0.9584071E+02  0.7546771E-02  0.1289294E+00
         21   -1    0    0  504  501  0.00000000000E+00  0.00000000000E+00  0.89989106840E+02  0.89989106840E+02  0.00000000000E+00 0.  1.
         21   -1    0    0  503  502 -0.00000000000E+00 -0.00000000000E+00 -0.18851669555E+04  0.18851669555E+04  0.00000000000E+00 0.  1.
         21    1    1    2  503  505  0.20448055107E+02 -0.34913386974E+02 -0.61845278551E+02  0.73904709097E+02  0.00000000000E+00 0.  1.
         21    1    1    2  504  502 -0.53639882181E+02 -0.40010747408E+02 -0.16670131521E+04  0.16683557613E+04  0.00000000000E+00 0.  1.
         21    1    1    2  505  506  0.57320259653E+02 -0.10226512172E+02 -0.11715885218E+03  0.13082962341E+03  0.00000000000E+00 0.  1.
         21    1    1    2  506  501 -0.24128432580E+02  0.85150646554E+02  0.50839434188E+02  0.10206596855E+03  0.00000000000E+00 0.  1.
<scales pt_clust_3="35.25024" pt_clust_4="66.91858" pt_clust_5="35.25024" pt_clust_6="86.00753"></scales>
<clustering>
<clus scale="   35.250">  3  5 -1 -1</clus>
<clus scale="   66.919">  2  4  1 -1</clus>
<clus scale="   86.008">  1  6  2 -1</clus>
<clus scale="   86.008">  1  3  2 -1</clus>
</clustering>
</event>
<event>
 6    0  0.5563122E+002  0.1783094E+03  0.7546771E-02  0.1169449E+00
         21   -1    0    0  505  501  0.00000000000E+00  0.00000000000E+00  0.19837444371E+03  0.19837444371E+03  0.00000000000E+00 0.  1.
         21   -1    0    0  503  502 -0.00000000000E+00 -0.00000000000E+00 -0.83725369197E+03  0.83725369197E+03  0.00000000000E+00 0.  1.
         21    1    1    2  503  501 -0.40626376074E+02  0.13119069712E+02 -0.61825101395E+02  0.75132919453E+02  0.00000000000E+00 0.  1.
         21    1    1    2  504  502  0.25459663911E+02  0.12172504910E+03 -0.38003660935E+03  0.39986623577E+03  0.00000000000E+00 0.  1.
         21    1    1    2  505  506  0.90968371711E+02  0.13514299159E+03  0.66367324423E+02  0.17590763081E+03  0.00000000000E+00 0.  1.
         21    1    1    2  506  504 -0.75801659547E+02 -0.26998711041E+03 -0.26338486194E+03  0.38472134965E+03  0.00000000000E+00 0.  1.
<scales pt_clust_3="42.69207" pt_clust_4="128.47121" pt_clust_5="14000.00000" pt_clust_6="178.30938"></scales>
<clustering>
<clus scale="   42.692">  2  3  1 -1</clus>
<clus scale="  128.471">  2  4  1 -1</clus>
<clus scale="  178.309">  2  6  1 -1</clus>
<clus scale="  178.309">  1  3  2 -1</clus>
</clustering>
</event>
<event>
 6    0  0.5563122E+002  0.8776561E+02  0.7546771E-02  0.1308355E+00
         21   -1    0    0  505  501  0.00000000000E+00  0.00000000000E+00  0.10648297452E+04  0.10648297452E+04  0.00000000000E+00 0. -1.
         21   -1    0    0  506  502 -0.00000000000E+00 -0.00000000000E+00 -0.46783011305E+02  0.46783011305E+02  0.00000000000E+00 0. -1.
         21    1    1    2  503  502 -0.59104747098E+02 -0.71661286669E+02  0.11993303635E+03  0.15169919033E+03  0.00000000000E+00 0. -1.
         21    1    1    2  504  503 -0.20176039931E+01  0.94344588466E+02  0.12288120399E+03  0.15493470365E+03  0.00000000000E+00 0. -1.
         21    1    1    2  505  504  0.10491223563E+03 -0.30043386305E+02  0.19834082689E+03  0.22638079834E+03  0.00000000000E+00 0. -1.
         21    1    1    2  506  501 -0.43789884537E+02  0.73600845081E+01  0.57689166662E+03  0.57859806416E+03  0.00000000000E+00 0. -1.
<scales pt_clust_3="87.76561" pt_clust_4="14000.00000" pt_clust_5="89.91809" pt_clust_6="44.40411"></scales>
<clustering>
<clus scale="   44.404">  1  6  2 -1</clus>
<clus scale="   89.918">  1  5  2 -1</clus>
<clus scale="   87.766">  2  3  1 -1</clus>
<clus scale="   44.404">  1  3  2 -1</clus>
</clustering>
</event>
<event>
 6    0  0.5563122E+002  0.8804008E+02  0.7546771E-02  0.1307669E+00
         21   -1    0    0  504  501  0.00000000000E+00  0.00000000000E+00  0.68317179294E+03  0.68317179294E+03  0.00000000000E+00 0.  1.
         21   -1    0    0  503  502 -0.00000000000E+00 -0.00000000000E+00 -0.27979599646E+03  0.27979599646E+03  0.00000000000E+00 0.  1.
         21    1    1    2  503  501 -0.12318790908E+02 -0.51251915906E+02 -0.39700440604E+02  0.65989669477E+02  0.00000000000E+00 0.  1.
         21    1    1    2  504  505  0.64804394053E+02 -0.19011110690E+02  0.61262805130E+03  0.61633932299E+03  0.00000000000E+00 0.  1.
         21    1    1    2  505  506 -0.11202545986E+03  0.85880120445E+02 -0.56753244918E+02  0.15213819229E+03  0.00000000000E+00 0.  1.
         21    1    1    2  506  502  0.59539856718E+02 -0.15617093850E+02 -0.11279856930E+03  0.12850060465E+03  0.00000000000E+00 0.  1.
<scales pt_clust_3="52.71159" pt_clust_4="67.55810" pt_clust_5="14000.00000" pt_clust_6="88.04008"></scales>
<clustering>
<clus scale="   52.712">  2  3  1 -1</clus>
<clus scale="   67.558">  1  4  2 -1</clus>
<clus scale="   88.040">  2  6  1 -1</clus>
<clus scale="   67.558">  1  3  2 -1</clus>
</clustering>
</event>
<event>
 6    0  0.5563122E+002  0.2101805E+03  0.7546771E-02  0.1141423E+00
         21   -1    0    0  504  501  0.00000000000E+00  0.00000000000E+00  0.42922103631E+03  0.42922103631E+03  0.00000000000E+00 0.  1.
         21   -1    0    0  505  502 -0.00000000000E+00 -0.00000000000E+00 -0.37140612758E+03  0.37140612758E+03  0.00000000000E+00 0.  1.
         21    1    1    2  503  502 -0.28083649824E+02  0.16466444221E+03 -0.11485344157E+02  0.16743650452E+03  0.00000000000E+00 0.  1.
         21    1    1    2  504  506  0.79267785813E+02 -0.17770229700E+03  0.27565863432E+03  0.33741542778E+03  0.00000000000E+00 0.  1.
         21    1    1    2  505  501 -0.79192959210E+01 -0.73485348387E+02 -0.18138614985E+03  0.19586665625E+03  0.00000000000E+00 0.  1.
         21    1    1    2  506  503 -0.43264840068E+02  0.86523203178E+02 -0.24972231587E+02  0.99908575332E+02  0.00000000000E+00 0.  1.
<scales pt_clust_3="33.67708" pt_clust_4="205.46885" pt_clust_5="73.91084" pt_clust_6="33.67708"></scales>
<clustering>
<clus scale="   33.677">  3  6 -1 -1</clus>
<clus scale="   73.911">  2  5  1 -1</clus>
<clus scale="  205.469">  1  4  2 -1</clus>
<clus scale="  205.469">  1  3  2 -1</clus>
</clustering>
</event>
<event>
 6    0  0.5563122E+002  0.2439738E+03  0.7546771E-02  0.1117174E+00
         21   -1    0    0  506  501  0.00000000000E+00  0.00000000000E+00  0.47215509547E+03  0.47215509547E+03  0.00000000000E+00 0.  1.
         21   -1    0    0  504  502 -0.00000000000E+00 -0.00000000000E+00 -0.24007652928E+03  0.24007652928E+03  0.00000000000E+00 0.  1.
         21    1    1    2  503  502 -0.23255056792E+03  0.10503191352E+02 -0.11769960454E+03  0.26085106973E+03  0.00000000000E+00 0.  1.
         21    1    1    2  504  505  0.12804350403E+03  0.10563774911E+02  0.15230010730E+03  0.19925374513E+03  0.00000000000E+00 0.  1.
         21    1    1    2  505  501  0.10383053814E+03 -0.52728375787E+02  0.18389995290E+03  0.21767005982E+03  0.00000000000E+00 0.  1.
         21    1    1    2  506  503  0.67652575257E+00  0.31661409524E+02  0.13578110517E+02  0.34456750069E+02  0.00000000000E+00 0. -1.
<scales pt_clust_3="232.96274" pt_clust_4="66.88395" pt_clust_5="66.88395" pt_clust_6="31.66864"></scales>
<clustering>
<clus scale="   31.669">  1  6  2 -1</clus>
<clus scale="   66.884">  4  5 -1 -1</clus>
<clus scale="  232.963">  2  3  1 -1</clus>
<clus scale="   31.669">  1  3  2 -1</clus>
</clustering>
</event>
<event>
 6    0  0.5563122E+002  0.1126247E+03  0.7546771E-02  0.1255785E+00
         21   -1    0    0  505  501  0.00000000000E+00  0.00000000000E+00  0.13820032652E+03  0.13820032652E+03  0.00000000000E+00 0. -1.
         21   -1    0    0  506  502 -0.00000000000E+00 -0.00000000000E+00 -0.32335648557E+03  0.32335648557E+03  0.00000000000E+00 0.  1.
         21    1    1    2  503  504  0.11098216904E+03  0.32360680133E+02 -0.12295128719E+03  0.16876396086E+03  0.00000000000E+00 0.  1.
         21    1    1    2  504  502  0.31090377567E+02 -0.26874173980E+02 -0.77627927880E+02  0.87834662812E+02  0.00000000000E+00 0.  1.
         21    1    1    2  505  503 -0.35583096830E+02  0.24740749132E+01  0.74731311012E+02  0.82807286348E+02  0.00000000000E+00 0. -1.
         21    1    1    2  506  501 -0.10648944978E+03 -0.79605810667E+01 -0.59308255000E+02  0.12215090207E+03  0.00000000000E+00 0. -1.
<scales pt_clust_3="14000.00000" pt_clust_4="38.68850" pt_clust_5="35.66900" pt_clust_6="112.62465"></scales>
<clustering>
<clus scale="   35.669">  1  5  2 -1</clus>
<clus scale="   38.688">  2  4  1 -1</clus>
<clus scale="  112.625">  2  6  1 -1</clus>
<clus scale="   35.669">  1  3  2 -1</clus>
</clustering>
</event>
<event>
 6    0  0.5563122E+002  0.9070631E+02  0.7546771E-02  0.1301150E+00
         21   -1    0    0  506  501  0.00000000000E+00  0.00000000000E+00  0.36879371682E+03  0.36879371682E+03  0.00000000000E+00 0. -1.
         21   -1    0    0  505  502 -0.00000000000E+00 -0.00000000000E+00 -0.19172919740E+03  0.19172919740E+03  0.00000000000E+00 0. -1.
         21    1    1    2  503  501  0.11786390706E+03  0.14643584293E+02  0.18659276615E+03  0.22118588456E+03  0.00000000000E+00 0. -1.
         21    1    1    2  504  502 -0.29121598791E+01 -0.36527534714E+02 -0.12362365820E+03  0.12894010367E+03  0.00000000000E+00 0. -1.
         21    1    1    2  505  503 -0.76755158284E+02 -0.98868043572E+01 -0.87527170545E+01  0.77882689215E+02  0.00000000000E+00 0. -1.
         21    1    1    2  506  504 -0.38196588900E+02  0.31770754778E+02  0.12284812853E+03  0.13251423677E+03  0.00000000000E+00 0. -1.
<scales pt_clust_3="90.70631" pt_clust_4="36.64344" pt_clust_5="14000.00000" pt_clust_6="48.17377"></scales>
<clustering>
<clus scale="   36.643">  2  4  1 -1</clus>
<clus scale="   48.174">  1  6  2 -1</clus>
<clus scale="   90.706">  1  3  2 -1</clus>
<clus scale="   48.174">  1  3  2 -1</clus>
</clustering>
</event>
<event>
 6    0  0.5563122E+002  0.9151084E+02  0.7546771E-02  0.1299234E+00
         21   -1    0    0  506  501  0.00000000000E+00  0.00000000000E+00  0.19526644619E+03  0.19526644619E+03  0.00000000000E+00 0.  1.
         21   -1    0    0  504  502 -0.00000000000E+00 -0.00000000000E+00 -0.55241616511E+03  0.55241616511E+03  0.00000000000E+00 0.  1.
         21    1    1    2  503  505 -0.14649468276E+03 -0.30871281123E+02 -0.91139304386E+02  0.17527150618E+03  0.00000000000E+00 0.  1.
         21    1    1    2  504  501  0.30842408809E+02  0.33120082765E+02 -0.40463050255E+02  0.60707927814E+02  0.00000000000E+00 0.  1.
         21    1    1    2  505  502  0.35447142492E+02 -0.33183677065E+02 -0.35390396949E+03  0.35721936672E+03  0.00000000000E+00 0.  1.
         21    1    1    2  506  503  0.80205131459E+02  0.30934875422E+02  0.12835660522E+03  0.15448381059E+03  0.00000000000E+00 0.  1.
<scales pt_clust_3="91.51084" pt_clust_4="45.25698" pt_clust_5="58.11798" pt_clust_6="14000.00000"></scales>
<clustering>
<clus scale="   45.257">  2  4  1 -1</clus>
<clus scale="   58.118">  2  5  1 -1</clus>
<clus scale="   91.511">  2  3  1 -1</clus>
<clus scale="   91.511">  1  3  2 -1</clus>
</clustering>
</event>
<event>
 6    0  0.5563122E+002  0.1593967E+03  0.7546771E-02  0.1189380E+00
         21   -1    0    0  504  501  0.00000000000E+00  0.00000000000E+00  0.10056319307E+03  0.10056319307E+03  0.00000000000E+00 0. -1.
         21   -1    0    0  506  502 -0.00000000000E+00 -0.00000000000E+00 -0.62549726791E+03  0.62549726791E+03  0.00000000000E+00 0. -1.
         21    1    1    2  503  501 -0.52071557307E+02  0.10565119029E+03 -0.10586446229E+03  0.15836952189E+03  0.00000000000E+00 0. -1.
         21    1    1    2  504  505  0.56019592780E+02 -0.11332011996E+03 -0.14146234753E+02  0.12719968679E+03  0.00000000000E+00 0. -1.
         21    1    1    2  505  502  0.35092530765E+02 -0.45660303546E+02 -0.41190735668E+02  0.70802724102E+02  0.00000000000E+00 0. -1.
         21    1    1    2  506  503 -0.39040566238E+02  0.53329233213E+02 -0.36373264213E+03  0.36968852819E+03  0.00000000000E+00 0. -1.
<scales pt_clust_3="151.13144" pt_clust_4="34.19406" pt_clust_5="34.19406" pt_clust_6="66.09215"></scales>
<clustering>
<clus scale="   34.194">  4  5 -1 -1</clus>
<clus scale="   66.092">  2  6  1 -1</clus>
<clus scale="  151.131">  2  3  1 -1</clus>
<clus scale="  159.397">  1  3  2 -1</clus>
</clustering>
</event>
<event>
 6    0  0.5563122E+002  0.1188557E+03  0.7546771E-02  0.1244997E+00
         21   -1    0    0  505  501  0.00000000000E+00  0.00000000000E+00  0.15833722344E+03  0.15833722344E+03  0.00000000000E+00 0.  1.
         21   -1    0    0  504  502 -0.00000000000E+00 -0.00000000000E+00 -0.38412115698E+03  0.38412115698E+03  0.00000000000E+00 0.  1.
         21    1    1    2  503  501  0.11645911835E+03 -0.58173959128E+02 -0.11580410910E+03  0.17423411678E+03  0.00000000000E+00 0.  1.
         21    1    1    2  504  503 -0.24702518345E+02 -0.38932968744E+02 -0.16260672772E+03  0.16901756823E+03  0.00000000000E+00 0.  1.
         21    1    1    2  505  506  0.10219190046E+02  0.69795415534E+02  0.61066201427E+02  0.93300122355E+02  0.00000000000E+00 0.  1.
         21    1    1    2  506  502 -0.10197579005E+03  0.27311512338E+02 -0.84392981451E+01  0.10590657305E+03  0.00000000000E+00 0.  1.
<scales pt_clust_3="14000.00000" pt_clust_4="46.10846" pt_clust_5="67.44570" pt_clust_6="118.85568"></scales>
<clustering>
<clus scale="   46.108">  2  4  1 -1</clus>
<clus scale="   67.446">  1  5  2 -1</clus>
<clus scale="  118.856">  1  6  2 -1</clus>
<clus scale="   67.446">  1  3  2 -1</clus>
</clustering>
</event>
<event>
 6    0  0.5563122E+002  0.1061930E+03  0.7546771E-02  0.1267787E+00
         21   -1    0    0  504  501  0.00000000000E+00  0.00000000000E+00  0.83367345955E+03  0.83367345955E+03  0.00000000000E+00 0.  1.
         21   -1    0    0  503  502 -0.00000000000E+00 -0.00000000000E+00 -0.30412365681E+03  0.30412365681E+03  0.00000000000E+00 0.  1.
         21    1    1    2  503  505 -0.13573309696E+02 -0.30202061333E+02 -0.23492019649E+01  0.33195150169E+02  0.00000000000E+00 0.  1.
         21    1    1    2  504  506 -0.37020379643E+02  0.76617514018E+02 -0.76135638298E+02  0.11418137931E+03  0.00000000000E+00 0.  1.
         21    1    1    2  505  501  0.21995223204E+02 -0.10480314742E+03  0.78998152116E+03  0.79720655625E+03  0.00000000000E+00 0.  1.
         21    1    1    2  506  502  0.28598466134E+02  0.58387694731E+02 -0.18194687816E+03  0.19321403063E+03  0.00000000000E+00 0.  1.
<scales pt_clust_3="33.11192" pt_clust_4="14000.00000" pt_clust_5="106.19298" pt_clust_6="43.34251"></scales>
<clustering>
<clus scale="   33.112">  2  3  1 -1</clus>
<clus scale="   43.343">  2  6  1 -1</clus>
<clus scale="  106.193">  1  5  2 -1</clus>
<clus scale="  106.193">  1  3  2 -1</clus>
</clustering>
</event>
<event>
 6    0  0.5563122E+002  0.9377878E+02  0.7546771E-02  0.1293950E+00
         21   -1    0    0  505  501  0.00000000000E+00  0.00000000000E+00  0.22643059336E+03  0.22643059336E+03  0.00000000000E+00 0. -1.
         21   -1    0    0  506  502 -0.00000000000E+00 -0.00000000000E+00 -0.23444737475E+03  0.23444737475E+03  0.00000000000E+00 0. -1.
         21    1    1    2  503  501  0.67346130840E+02  0.80041131763E+01 -0.64152336786E+01  0.68122847782E+02  0.00000000000E+00 0. -1.
         21    1    1    2  504  502  0.26122542631E+02 -0.71829135550E+02  0.10264184399E+03  0.12797327879E+03  0.00000000000E+00 0. -1.
         21    1    1    2  505  504 -0.52860631547E+02 -0.22961408345E+02  0.54527239739E+02  0.79339098269E+02  0.00000000000E+00 0. -1.
         21    1    1    2  506  503 -0.40608041924E+02  0.86786430718E+02 -0.15877063143E+03  0.18544274327E+03  0.00000000000E+00 0. -1.
<scales pt_clust_3="57.23154" pt_clust_4="14000.00000" pt_clust_5="57.63222" pt_clust_6="93.77878"></scales>
<clustering>
<clus scale="   57.632">  1  5  2 -1</clus>
<clus scale="   57.232">  1  3  2 -1</clus>
<clus scale="   93.779">  2  6  1 -1</clus>
<clus scale="   57.632">  1  3  2 -1</clus>
</clustering>
</event>
<event>
 6    0  0.5563122E+002  0.1522568E+03  0.7546771E-02  0.1197727E+00
         21   -1    0    0  502  501  0.00000000000E+00  0.00000000000E+00  0.52441264710E+03  0.52441264710E+03  0.00000000000E+00 0.  1.
         21   -1    0    0  505  502 -0.00000000000E+00 -0.00000000000E+00 -0.30351629526E+03  0.30351629526E+03  0.00000000000E+00 0. -1.
         21    1    1    2  503  501 -0.32817125006E+02 -0.73314324461E+02  0.17979866677E+03  0.19692514932E+03  0.00000000000E+00 0.  1.
         21    1    1    2  504  506  0.39951137519E+02  0.93542177451E+02  0.73257626593E+02  0.12535115558E+03  0.00000000000E+00 0. -1.
         21    1    1    2  505  504  0.75052398024E+02  0.52900533753E+02 -0.24742079601E+03  0.26390979372E+03  0.00000000000E+00 0. -1.
         21    1    1    2  506  503 -0.82186410538E+02 -0.73128386743E+02  0.21526085449E+03  0.24174284374E+03  0.00000000000E+00 0.  1.
<scales pt_clust_3="35.08915" pt_clust_4="146.61459" pt_clust_5="91.82227" pt_clust_6="35.08915"></scales>
<clustering>
<clus scale="   35.089">  3  6 -1 -1</clus>
<clus scale="   91.822">  2  5  1 -1</clus>
<clus scale="  146.615">  2  4  1 -1</clus>
<clus scale="  152.257">  1  3  2 -1</clus>
</clustering>
</event>
<event>
 6    0  0.5563122E+002  0.2098488E+03  0.7546771E-02  0.1141686E+00
         21   -1    0    0  506  501  0.00000000000E+00  0.00000000000E+00  0.15314191458E+03  0.15314191458E+03  0.00000000000E+00 0.  1.
         21   -1    0    0  504  502 -0.00000000000E+00 -0.00000000000E+00 -0.59344319976E+03  0.59344319976E+03  0.00000000000E+00 0.  1.
         21    1    1    2  503  502 -0.67986168318E+02  0.69834163712E+02 -0.69658894909E+02  0.11979687452E+03  0.00000000000E+00 0.  1.
         21    1    1    2  504  505  0.34584451618E+02 -0.11161148529E+03 -0.20153213586E+03  0.23295581067E+03  0.00000000000E+00 0.  1.
         21    1    1    2  505  501  0.18408724921E+03 -0.21983321748E+02 -0.51774627007E+02  0.19248894451E+03  0.00000000000E+00 0.  1.
         21    1    1    2  506  503 -0.15068553251E+03  0.63760643326E+02 -0.11733562741E+03  0.20134348464E+03  0.00000000000E+00 0. -1.
<scales pt_clust_3="38.58415" pt_clust_4="116.84694" pt_clust_5="203.80684" pt_clust_6="38.58415"></scales>
<clustering>
<clus scale="   38.584">  3  6 -1 -1</clus>
<clus scale="  116.847">  2  4  1 -1</clus>
<clus scale="  203.807">  1  5  2 -1</clus>
<clus scale="  203.807">  1  3  2 -1</clus>
</clustering>
</event>
<event>
 6    0  0.5563122E+002  0.7663184E+02  0.7546771E-02  0.1338891E+00
         21   -1    0    0  506  501  0.00000000000E+00  0.00000000000E+00  0.23565432687E+02  0.23565432687E+02  0.00000000000E+00 0. -1.
         21   -1    0    0  503  502 -0.00000000000E+00 -0.00000000000E+00 -0.77293259300E+03  0.77293259300E+03  0.00000000000E+00 0. -1.
         21    1    1    2  503  505  0.28621563697E+02  0.15364656054E+02 -0.21248925498E+03  0.21495801927E+03  0.00000000000E+00 0. -1.
         21    1    1    2  504  501  0.64777878918E+02 -0.61625577973E+02 -0.21566007151E+03  0.23345910114E+03  0.00000000000E+00 0. -1.
         21    1    1    2  505  504 -0.14323405820E+02  0.52291356648E+02 -0.14635132623E+03  0.15607131903E+03  0.00000000000E+00 0. -1.
         21    1    1    2  506  502 -0.79076036795E+02 -0.60304347288E+01 -0.17486650759E+03  0.19200958626E+03  0.00000000000E+00 0. -1.
<scales pt_clust_3="32.48487" pt_clust_4="76.63184" pt_clust_5="56.82869" pt_clust_6="14000.00000"></scales>
<clustering>
<clus scale="   32.485">  2  3  1 -1</clus>
<clus scale="   56.829">  2  5  1 -1</clus>
<clus scale="   76.632">  2  4  1 -1</clus>
<clus scale="   76.632">  1  3  2 -1</clus>
</clustering>
</event>
<event>
 6    0  0.5563122E+002  0.8153432E+02  0.7546771E-02  0.1324753E+00
         21   -1    0    0  504  501  0.00000000000E+00  0.00000000000E+00  0.94863971335E+03  0.94863971335E+03  0.00000000000E+00 0. -1.
         21   -1    0    0  505  502 -0.00000000000E+00 -0.00000000000E+00 -0.93239742590E+02  0.93239742590E+02  0.00000000000E+00 0. -1.
         21    1    1    2  503  502 -0.50557358863E+02  0.94095513359E+02  0.18730095552E+03  0.21561924800E+03  0.00000000000E+00 0. -1.
         21    1    1    2  504  503  0.29058891053E+02  0.31072306064E+02  0.31454043412E+03  0.31740446129E+03  0.00000000000E+00 0. -1.
         21    1    1    2  505  506  0.21637494685E+02 -0.34371166773E+02 -0.67141050006E+02  0.78469604801E+02  0.00000000000E+00 0. -1.
         21    1    1    2  506  501 -0.13902687420E+00 -0.90796652650E+02  0.42069963113E+03  0.43038614185E+03  0.00000000000E+00 0. -1.
<scales pt_clust_3="14000.00000" pt_clust_4="41.90999" pt_clust_5="40.61475" pt_clust_6="81.53432"></scales>
<clustering>
<clus scale="   40.615">  2  5  1 -1</clus>
<clus scale="   41.910">  1  4  2 -1</clus>
<clus scale="   81.534">  1  6  2 -1</clus>
<clus scale="   41.910">  1  3  2 -1</clus>
</clustering>
</event>
<event>
 6    0  0.5563122E+002  0.7562223E+02  0.7546771E-02  0.1341955E+00
         21   -1    0    0  504  501  0.00000000000E+00  0.00000000000E+00  0.41233741024E+02  0.41233741024E+02  0.00000000000E+00 0. -1.
         21   -1    0    0  503  502 -0.00000000000E+00 -0.00000000000E+00 -0.12455739248E+04  0.12455739248E+04  0.00000000000E+00 0. -1.
         21    1    1    2  503  501 -0.54688870053E+02 -0.26275791975E+02 -0.17332090384E+03  0.18363394419E+03  0.00000000000E+00 0. -1.
         21    1    1    2  504  506  0.27527092426E+01 -0.75814841370E+02 -0.14463636836E+02  0.77231239603E+02  0.00000000000E+00 0. -1.
         21    1    1    2  505  502  0.25485228077E+01  0.30405751466E+02 -0.84675105797E+02  0.90004878937E+02  0.00000000000E+00 0. -1.
         21    1    1    2  506  505  0.49387638003E+02  0.71684881879E+02 -0.93188053728E+03  0.93593760307E+03  0.00000000000E+00 0. -1.
<scales pt_clust_3="58.43132" pt_clust_4="75.62223" pt_clust_5="30.51237" pt_clust_6="14000.00000"></scales>
<clustering>
<clus scale="   30.512">  2  5  1 -1</clus>
<clus scale="   58.431">  2  3  1 -1</clus>
<clus scale="   75.622">  1  4  2 -1</clus>
<clus scale="   75.622">  1  3  2 -1</clus>
</clustering>
</event>
<event>
 6    0  0.5563122E+002  0.1417972E+03  0.7546771E-02  0.1210931E+00
         21   -1    0    0  503  501  0.00000000000E+00  0.00000000000E+00  0.77282165525E+03  0.77282165525E+03  0.00000000000E+00 0. -1.
         21   -1    0    0  504  502 -0.00000000000E+00 -0.00000000000E+00 -0.97749950975E+02  0.97749950975E+02  0.00000000000E+00 0.  1.
         21    1    1    2  503  505 -0.50024973066E+01  0.87625804608E+02  0.37170233252E+03  0.38192398538E+03  0.00000000000E+00 0. -1.
         21    1    1    2  504  501 -0.17307166786E+02 -0.32795898991E+02  0.74101786212E+02  0.82862438611E+02  0.00000000000E+00 0.  1.
         21    1    1    2  505  506 -0.31035509321E+02  0.69823656430E+02  0.25636988467E+03  0.26751460446E+03  0.00000000000E+00 0. -1.
         21    1    1    2  506  502  0.53345173413E+02 -0.12465356205E+03 -0.27102299125E+02  0.13827057776E+03  0.00000000000E+00 0.  1.
<scales pt_clust_3="32.41207" pt_clust_4="37.08246" pt_clust_5="32.41207" pt_clust_6="137.47635"></scales>
<clustering>
<clus scale="   32.412">  3  5 -1 -1</clus>
<clus scale="   37.082">  1  4  2 -1</clus>
<clus scale="  137.476">  2  6  1 -1</clus>
<clus scale="   37.082">  1  3  2 -1</clus>
</clustering>
</event>
<event>
 6    0  0.5563122E+002  0.9389116E+02  0.7546771E-02  0.1293693E+00
         21   -1    0    0  505  501  0.00000000000E+00  0.00000000000E+00  0.56987457733E+03  0.56987457733E+03  0.00000000000E+00 0.  1.
         21   -1    0    0  503  502 -0.00000000000E+00 -0.00000000000E+00 -0.45163186424E+03  0.45163186424E+03  0.00000000000E+00 0. -1.
         21    1    1    2  503  506  0.12633345530E+03 -0.16879823810E+02 -0.26755950551E+03  0.29636659624E+03  0.00000000000E+00 0. -1.
         21    1    1    2  504  502 -0.33621449022E+02  0.75822365301E+02 -0.90676103415E+02  0.12288852121E+03  0.00000000000E+00 0.  1.
         21    1    1    2  505  504 -0.45796878882E+02 -0.21223037441E+02  0.52346120190E+03  0.52588915308E+03  0.00000000000E+00 0.  1.
         21    1    1    2  506  501 -0.46915127392E+02 -0.37719504050E+02 -0.46982879884E+02  0.76362171042E+02  0.00000000000E+00 0.  1.
<scales pt_clust_3="14000.00000" pt_clust_4="93.89116" pt_clust_5="50.47545" pt_clust_6="76.22191"></scales>
<clustering>
<clus scale="   50.475">  1  5  2 -1</clus>
<clus scale="   76.222">  1  6  2 -1</clus>
<clus scale="   93.891">  1  4  2 -1</clus>
<clus scale="   50.475">  1  3  2 -1</clus>
</clustering>
</event>
<event>
 6    0  0.5563122E+002  0.1170712E+03  0.7546771E-02  0.1248008E+00
         21   -1    0    0  503  501  0.00000000000E+00  0.00000000000E+00  0.13355194756E+04  0.13355194756E+04  0.00000000000E+00 0.  1.
         21   -1    0    0  505  502 -0.00000000000E+00 -0.00000000000E+00 -0.13006036699E+03  0.13006036699E+03  0.00000000000E+00 0.  1.
         21    1    1    2  503  504  0.26262500208E+02 -0.11531140790E+03  0.12509397304E+04  0.12565176675E+04  0.00000000000E+00 0.  1.
         21    1    1    2  504  506  0.44926938852E+02  0.93373547410E+02 -0.50400620301E+02  0.11522704421E+03  0.00000000000E+00 0.  1.
         21    1    1    2  505  501 -0.28286978451E+02  0.19661464192E+02  0.28604326557E+02  0.44776487377E+02  0.00000000000E+00 0.  1.
         21    1    1    2  506  502 -0.42902460609E+02  0.22763962972E+01 -0.23684328040E+02  0.49058643491E+02  0.00000000000E+00 0.  1.
<scales pt_clust_3="14000.00000" pt_clust_4="117.07121" pt_clust_5="34.44889" pt_clust_6="51.97856"></scales>
<clustering>
<clus scale="   34.449">  2  5  1 -1</clus>
<clus scale="   51.979">  2  6  1 -1</clus>
<clus scale="  117.071">  2  4  1 -1</clus>
<clus scale="  117.071">  1  3  2 -1</clus>
</clustering>
</event>
<event>
 6    0  0.5563122E+002  0.5960282E+02  0.7546771E-02  0.1399506E+00
         21   -1    0    0  505  501  0.00000000000E+00  0.00000000000E+00  0.10070016360E+04  0.10070016360E+04  0.00000000000E+00 0.  1.
         21   -1    0    0  504  502 -0.00000000000E+00 -0.00000000000E+00 -0.21348599493E+02  0.21348599493E+02  0.00000000000E+00 0.  1.
         21    1    1    2  503  502  0.23929553047E+02 -0.32593547938E+02  0.11175395005E+03  0.11884405004E+03  0.00000000000E+00 0.  1.
         21    1    1    2  504  506 -0.74880050066E+02  0.31535385394E+02  0.12219446740E+03  0.14674123583E+03  0.00000000000E+00 0.  1.
         21    1    1    2  505  503 -0.68594324743E+01 -0.51071078162E+02  0.28891134669E+03  0.29347073633E+03  0.00000000000E+00 0.  1.
         21    1    1    2  506  501  0.57809929493E+02  0.52129240707E+02  0.46279327237E+03  0.46929421330E+03  0.00000000000E+00 0.  1.
<scales pt_clust_3="40.43467" pt_clust_4="59.60282" pt_clust_5="55.37481" pt_clust_6="14000.00000"></scales>
<clustering>
<clus scale="   40.435">  2  3  1 -1</clus>
<clus scale="   55.375">  1  5  2 -1</clus>
<clus scale="   59.603">  2  4  1 -1</clus>
<clus scale="   55.375">  1  3  2 -1</clus>
</clustering>
</event>
<event>
 6    0  0.5563122E+002  0.2042314E+03  0.7546771E-02  0.1146217E+00
         21   -1    0    0  505  501  0.00000000000E+00  0.00000000000E+00  0.42724373894E+03  0.42724373894E+03  0.00000000000E+00 0.  1.
         21   -1    0    0  501  502 -0.00000000000E+00 -0.00000000000E+00 -0.42878351854E+03  0.42878351854E+03  0.00000000000E+00 0.  1.
         21    1    1    2  503  506 -0.11306884817E+03  0.10763361321E+03 -0.11982035035E+02  0.15656668957E+03  0.00000000000E+00 0.  1.
         21    1    1    2  504  503 -0.17018344562E+02  0.82059684045E+02 -0.28185752688E+02  0.88418620504E+02  0.00000000000E+00 0. -1.
         21    1    1    2  505  504 -0.38504430735E+02 -0.11234492752E+03  0.28144964921E+03  0.30547975214E+03  0.00000000000E+00 0.  1.
         21    1    1    2  506  502  0.16859162346E+03 -0.77348369732E+02 -0.24282164109E+03  0.30556219528E+03  0.00000000000E+00 0.  1.
<scales pt_clust_3="54.32910" pt_clust_4="54.32910" pt_clust_5="118.76015" pt_clust_6="190.29544"></scales>
<clustering>
<clus scale="   54.329">  3  4 -1 -1</clus>
<clus scale="  118.760">  1  5  2 -1</clus>
<clus scale="  190.295">  2  6  1 -1</clus>
<clus scale="  118.760">  1  3  2 -1</clus>
</clustering>
</event>
<event>
 6    0  0.5563122E+002  0.1273580E+03  0.7546771E-02  0.1231430E+00
         21   -1    0    0  505  501  0.00000000000E+00  0.00000000000E+00  0.21118334857E+04  0.21118334857E+04  0.00000000000E+00 0. -1.
         21   -1    0    0  504  502 -0.00000000000E+00 -0.00000000000E+00 -0.25639325955E+03  0.25639325955E+03  0.00000000000E+00 0. -1.
         21    1    1    2  503  502  0.71085448739E+01 -0.51388290767E+02 -0.10284945016E+02  0.52887313528E+02  0.00000000000E+00 0.  1.
         21    1    1    2  504  506 -0.32727119725E+02 -0.71054956798E+02 -0.18380259455E+03  0.19975801614E+03  0.00000000000E+00 0. -1.
         21    1    1    2  505  503  0.14639834484E+02 -0.11159321134E+03  0.16393197966E+04  0.16431788597E+04  0.00000000000E+00 0. -1.
         21    1    1    2  506  501  0.10978740367E+02  0.23403645890E+03  0.41020796913E+03  0.47240255585E+03  0.00000000000E+00 0. -1.
<scales pt_clust_3="51.87762" pt_clust_4="14000.00000" pt_clust_5="112.99467" pt_clust_6="127.35798"></scales>
<clustering>
<clus scale="   51.878">  2  3  1 -1</clus>
<clus scale="  112.995">  1  5  2 -1</clus>
<clus scale="  127.358">  1  6  2 -1</clus>
<clus scale="  112.995">  1  3  2 -1</clus>
</clustering>
</event>
<event>
 6    0  0.5563122E+002  0.7098674E+02  0.7546771E-02  0.1356769E+00
         21   -1    0    0  505  501  0.00000000000E+00  0.00000000000E+00  0.20881284448E+03  0.20881284448E+03  0.00000000000E+00 0. -1.
         21   -1    0    0  506  502 -0.00000000000E+00 -0.00000000000E+00 -0.26086027856E+03  0.26086027856E+03  0.00000000000E+00 0. -1.
         21    1    1    2  503  501  0.14185911438E+02  0.61406637046E+02 -0.48171481255E+02  0.79325322331E+02  0.00000000000E+00 0. -1.
         21    1    1    2  504  502 -0.15419944781E+02  0.46726519170E+02 -0.13976305511E+03  0.14817170399E+03  0.00000000000E+00 0. -1.
         21    1    1    2  505  504 -0.42084355211E+02 -0.59059984076E+02  0.15737643280E+03  0.17328160974E+03  0.00000000000E+00 0. -1.
         21    1    1    2  506  503  0.43318388554E+02 -0.49073172141E+02 -0.21489330517E+02  0.68894486985E+02  0.00000000000E+00 0. -1.
<scales pt_clust_3="70.98674" pt_clust_4="49.20510" pt_clust_5="14000.00000" pt_clust_6="48.54945"></scales>
<clustering>
<clus scale="   49.205">  2  4  1 -1</clus>
<clus scale="   48.549">  2  6  1 -1</clus>
<clus scale="   70.987">  2  3  1 -1</clus>
<clus scale="   70.987">  1  3  2 -1</clus>
</clustering>
</event>
<event>
 6    0  0.5563122E+002  0.1158845E+03  0.7546771E-02  0.1250045E+00
         21   -1    0    0  503  501  0.00000000000E+00  0.00000000000E+00  0.37991712662E+03  0.37991712662E+03  0.00000000000E+00 0.  1.
         21   -1    0    0  506  502 -0.00000000000E+00 -0.00000000000E+00 -0.16999429210E+03  0.16999429210E+03  0.00000000000E+00 0. -1.
         21    1    1    2  503  504 -0.33228345184E+02 -0.71201823791E+02  0.31401157603E+02  0.84615928369E+02  0.00000000000E+00 0. -1.
         21    1    1    2  504  502 -0.60466106537E+02 -0.87941891791E+02 -0.65669198564E+02  0.12530909788E+03  0.00000000000E+00 0. -1.
         21    1    1    2  505  501  0.37133154578E+02  0.10422367304E+01  0.13421940604E+03  0.13926523753E+03  0.00000000000E+00 0. -1.
         21    1    1    2  506  505  0.56561297143E+02  0.15810147885E+03  0.10997146944E+03  0.20072115494E+03  0.00000000000E+00 0.  1.
<scales pt_clust_3="75.02180" pt_clust_4="14000.00000" pt_clust_5="37.14778" pt_clust_6="115.88447"></scales>
<clustering>
<clus scale="   37.148">  1  5  2 -1</clus>
<clus scale="   75.022">  1  3  2 -1</clus>
<clus scale="  115.884">  1  6  2 -1</clus>
<clus scale="   37.148">  1  3  2 -1</clus>
</clustering>
</event>
<event>
 6    0  0.5563122E+002  0.1489669E+03  0.7546771E-02  0.1201748E+00
         21   -1    0    0  504  501  0.00000000000E+00  0.00000000000E+00  0.32465883642E+03  0.32465883642E+03  0.00000000000E+00 0.  1.
         21   -1    0    0  506  502 -0.00000000000E+00 -0.00000000000E+00 -0.42795975306E+03  0.42795975306E+03  0.00000000000E+00 0. -1.
         21    1    1    2  503  502 -0.10864610097E+03  0.47544659575E+02 -0.35692524317E+03  0.37611181731E+03  0.00000000000E+00 0. -1.
         21    1    1    2  504  503  0.13888185456E+03 -0.29992150497E+02  0.14315393495E+03  0.20169468934E+03  0.00000000000E+00 0.  1.
         21    1    1    2  505  501 -0.60946424622E+01 -0.49885051819E+02  0.12274566357E+03  0.13263544393E+03  0.00000000000E+00 0. -1.
         21    1    1    2  506  505 -0.24141111120E+02  0.32332542741E+02 -0.12275271980E+02  0.42176638894E+02  0.00000000000E+00 0.  1.
<scales pt_clust_3="148.96686" pt_clust_4="14000.00000" pt_clust_5="49.89726" pt_clust_6="40.35079"></scales>
<clustering>
<clus scale="   40.351">  2  6  1 -1</clus>
<clus scale="   49.897">  1  5  2 -1</clus>
<clus scale="  148.967">  2  3  1 -1</clus>
<clus scale="   49.897">  1  3  2 -1</clus>
</clustering>
</event>
<event>
 6    0  0.5563122E+002  0.1202059E+03  0.7546771E-02  0.1242758E+00
         21   -1    0    0  504  501  0.00000000000E+00  0.00000000000E+00  0.28048111176E+03  0.28048111176E+03  0.00000000000E+00 0.  1.
         21   -1    0    0  505  502 -0.00000000000E+00 -0.00000000000E+00 -0.43976457549E+03  0.43976457549E+03  0.00000000000E+00 0. -1.
         21    1    1    2  503  501  0.91648140856E+02 -0.71858197176E+02  0.24186979688E+03  0.26844735214E+03  0.00000000000E+00 0.  1.
         21    1    1    2  504  502 -0.61667052103E+02 -0.21172091253E+02 -0.29447647655E+03  0.30160815308E+03  0.00000000000E+00 0. -1.
         21    1    1    2  505  506  0.14834698154E+01  0.55901551505E+02 -0.46020049695E+02  0.72422573258E+02  0.00000000000E+00 0.  1.
         21    1    1    2  506  503 -0.31464558568E+02  0.37128736924E+02 -0.60656734372E+02  0.77767608785E+02  0.00000000000E+00 0. -1.
<scales pt_clust_3="113.25103" pt_clust_4="65.20033" pt_clust_5="37.59063" pt_clust_6="37.59063"></scales>
<clustering>
<clus scale="   37.591">  5  6 -1 -1</clus>
<clus scale="   65.200">  2  4  1 -1</clus>
<clus scale="  113.251">  1  3  2 -1</clus>
<clus scale="  113.251">  1  3  2 -1</clus>
</clustering>
</event>
<event>
 6    0  0.5563122E+002  0.1203927E+03  0.7546771E-02  0.1242451E+00
         21   -1    0    0  502  501  0.00000000000E+00  0.00000000000E+00  0.34548738187E+03  0.34548738187E+03  0.00000000000E+00 0. -1.
         21   -1    0    0  504  502 -0.00000000000E+00 -0.00000000000E+00 -0.88602697432E+02  0.88602697432E+02  0.00000000000E+00 0. -1.
         21    1    1    2  503  501 -0.22521346782E+02 -0.75838405667E+02  0.14339804141E+03  0.16377323687E+03  0.00000000000E+00 0. -1.
         21    1    1    2  504  506 -0.31661598454E+02  0.25499505415E+02 -0.16292063439E+02  0.43796266098E+02  0.00000000000E+00 0. -1.
         21    1    1    2  505  503  0.19514897835E+02 -0.40009980231E+02  0.12149659955E+03  0.12939495144E+03  0.00000000000E+00 0. -1.
         21    1    1    2  506  505  0.34668047401E+02  0.90348880483E+02  0.82821069110E+01  0.97125624888E+02  0.00000000000E+00 0. -1.
<scales pt_clust_3="36.35239" pt_clust_4="40.65319" pt_clust_5="36.35239" pt_clust_6="110.20827"></scales>
<clustering>
<clus scale="   36.352">  3  5 -1 -1</clus>
<clus scale="   40.653">  2  4  1 -1</clus>
<clus scale="  110.208">  2  6  1 -1</clus>
<clus scale="  120.393">  1  3  2 -1</clus>
</clustering>
</event>
<event>
 6    0  0.5563122E+002  0.1451419E+03  0.7546771E-02  0.1206573E+00
         21   -1    0    0  505  501  0.00000000000E+00  0.00000000000E+00  0.17182376176E+03  0.17182376176E+03  0.00000000000E+00 0.  1.
         21   -1    0    0  506  502 -0.00000000000E+00 -0.00000000000E+00 -0.67083497642E+03  0.67083497642E+03  0.00000000000E+00 0. -1.
         21    1    1    2  503  504 -0.72331834011E+02 -0.79494587921E+02 -0.36963042770E+03  0.38493887411E+03  0.00000000000E+00 0. -1.
         21    1    1    2  504  502  0.44329842000E+01 -0.37696608107E+02 -0.21762171536E+03  0.22090698632E+03  0.00000000000E+00 0. -1.
         21    1    1    2  505  503 -0.68299533909E+01  0.84495888411E+02  0.12197854244E+03  0.14854281618E+03  0.00000000000E+00 0.  1.
         21    1    1    2  506  501  0.74728803202E+02  0.32695307617E+02 -0.33737614046E+02  0.88270061571E+02  0.00000000000E+00 0.  1.
<scales pt_clust_3="36.82611" pt_clust_4="36.82611" pt_clust_5="131.24811" pt_clust_6="81.56824"></scales>
<clustering>
<clus scale="   36.826">  3  4 -1 -1</clus>
<clus scale="   81.568">  1  6  2 -1</clus>
<clus scale="  131.248">  1  5  2 -1</clus>
<clus scale="   81.568">  1  3  2 -1</clus>
</clustering>
</event>
<event>
 6    0  0.5563122E+002  0.1663319E+03  0.7546771E-02  0.1181728E+00
         21   -1    0    0  502  501  0.00000000000E+00  0.00000000000E+00  0.30571974376E+03  0.30571974376E+03  0.00000000000E+00 0.  1.
         21   -1    0    0  506  502 -0.00000000000E+00 -0.00000000000E+00 -0.18980794540E+03  0.18980794540E+03  0.00000000000E+00 0.  1.
         21    1    1    2  503  505  0.92891202011E+02 -0.13791801553E+03  0.95439897554E+02  0.19172618095E+03  0.00000000000E+00 0.  1.
         21    1    1    2  504  501 -0.47406507747E+02  0.76299057352E+02  0.88183420292E+02  0.12587787234E+03  0.00000000000E+00 0.  1.
         21    1    1    2  505  504 -0.62627903031E+02  0.17186936197E+02  0.28228818294E+02  0.70813213429E+02  0.00000000000E+00 0. -1.
         21    1    1    2  506  503  0.17143208767E+02  0.44432021978E+02 -0.95940337779E+02  0.10711042245E+03  0.00000000000E+00 0.  1.
<scales pt_clust_3="152.89845" pt_clust_4="53.72262" pt_clust_5="53.72262" pt_clust_6="47.62451"></scales>
<clustering>
<clus scale="   47.625">  2  6  1 -1</clus>
<clus scale="   53.723">  4  5 -1 -1</clus>
<clus scale="  152.898">  2  3  1 -1</clus>
<clus scale="  166.332">  1  3  2 -1</clus>
</clustering>
</event>
<event>
 6    0  0.5563122E+002  0.1089089E+03  0.7546771E-02  0.1262604E+00
         21   -1    0    0  505  501  0.00000000000E+00  0.00000000000E+00  0.95418129109E+03  0.95418129109E+03  0.00000000000E+00 0. -1.
         21   -1    0    0  504  502 -0.00000000000E+00 -0.00000000000E+00 -0.44434791970E+02  0.44434791970E+02  0.00000000000E+00 0. -1.
         21    1    1    2  503  501 -0.39612452306E+02  0.10787327062E+02  0.44920004507E+03  0.45107227059E+03  0.00000000000E+00 0. -1.
         21    1    1    2  504  503  0.42544006841E+02  0.35055151873E+02  0.12857553983E+03  0.13989469480E+03  0.00000000000E+00 0. -1.
         21    1    1    2  505  506 -0.10411939788E+03  0.69422582968E+01  0.23778920517E+03  0.25967816632E+03  0.00000000000E+00 0. -1.
         21    1    1    2  506  502  0.10118784335E+03 -0.52784737232E+02  0.94181709051E+02  0.14797095136E+03  0.00000000000E+00 0. -1.
<scales pt_clust_3="41.05500" pt_clust_4="49.62042" pt_clust_5="14000.00000" pt_clust_6="108.90893"></scales>
<clustering>
<clus scale="   41.055">  1  3  2 -1</clus>
<clus scale="   49.620">  1  4  2 -1</clus>
<clus scale="  108.909">  2  6  1 -1</clus>
<clus scale="   41.055">  1  3  2 -1</clus>
</clustering>
</event>
<event>
 6    0  0.5563122E+002  0.1621791E+03  0.7546771E-02  0.1186258E+00
         21   -1    0    0  504  501  0.00000000000E+00  0.00000000000E+00  0.16899586250E+04  0.16899586250E+04  0.00000000000E+00 0.  1.
         21   -1    0    0  503  502 -0.00000000000E+00 -0.00000000000E+00 -0.14844743017E+03  0.14844743017E+03  0.00000000000E+00 0. -1.
         21    1    1    2  503  506  0.56877446951E+02 -0.14060603727E+03  0.67592034763E+03  0.69272896433E+03  0.00000000000E+00 0.  1.
         21    1    1    2  504  505  0.14899925465E+02  0.12281619042E+03  0.46279705562E+03  0.47904795073E+03  0.00000000000E+00 0.  1.
         21    1    1    2  505  502 -0.64319278735E+02  0.13246694662E+03 -0.81899061485E+02  0.16849901435E+03  0.00000000000E+00 0. -1.
         21    1    1    2  506  501 -0.74580936815E+01 -0.11467709978E+03  0.48469285311E+03  0.49813012580E+03  0.00000000000E+00 0.  1.
<scales pt_clust_3="51.57419" pt_clust_4="123.71671" pt_clust_5="150.96835" pt_clust_6="51.57419"></scales>
<clustering>
<clus scale="   51.574">  3  6 -1 -1</clus>
<clus scale="  123.717">  1  4  2 -1</clus>
<clus scale="  150.968">  2  5  1 -1</clus>
<clus scale="  123.717">  1  3  2 -1</clus>
</clustering>
</event>
<event>
 6    0  0.5563122E+002  0.2230580E+03  0.7546771E-02  0.1131624E+00
         21   -1    0    0  506  501  0.00000000000E+00  0.00000000000E+00  0.28832693909E+04  0.28832693909E+04  0.00000000000E+00 0.  1.
         21   -1    0    0  503  502 -0.00000000000E+00 -0.00000000000E+00 -0.20935378088E+03  0.20935378088E+03  0.00000000000E+00 0. -1.
         21    1    1    2  503  505 -0.29680633482E+02 -0.58627391199E+02  0.18354735325E+02  0.68227613996E+02  0.00000000000E+00 0. -1.
         21    1    1    2  504  502 -0.12929199195E+03 -0.10056877794E+03 -0.12848489516E+03  0.20817988991E+03  0.00000000000E+00 0. -1.
         21    1    1    2  505  501 -0.36825752180E+02 -0.11082402875E+02  0.17394017837E+04  0.17398268652E+04  0.00000000000E+00 0.  1.
         21    1    1    2  506  504  0.19579837761E+03  0.17027857201E+03  0.10446439861E+04  0.10763888027E+04  0.00000000000E+00 0. -1.
<scales pt_clust_3="66.72456" pt_clust_4="223.05799" pt_clust_5="38.45719" pt_clust_6="14000.00000"></scales>
<clustering>
<clus scale="   38.457">  1  5  2 -1</clus>
<clus scale="   66.725">  2  3  1 -1</clus>
<clus scale="  223.058">  2  4  1 -1</clus>
<clus scale="   38.457">  1  3  2 -1</clus>
</clustering>
</event>
<event>
 6    0  0.5563122E+002  0.7900564E+02  0.7546771E-02  0.1331897E+00
         21   -1    0    0  505  501  0.00000000000E+00  0.00000000000E+00  0.65398318740E+03  0.65398318740E+03  0.00000000000E+00 0.  1.
         21   -1    0    0  503  502 -0.00000000000E+00 -0.00000000000E+00 -0.19381624170E+03  0.19381624170E+03  0.00000000000E+00 0. -1.
         21    1    1    2  503  506 -0.36617871495E+02 -0.12357058458E+02 -0.16500802464E+03  0.16947334187E+03  0.00000000000E+00 0. -1.
         21    1    1    2  504  501  0.65002860882E+02 -0.39445878173E+02  0.41491689704E+03  0.42182624465E+03  0.00000000000E+00 0.  1.
         21    1    1    2  505  502 -0.59777592891E+02  0.81114410261E+02  0.12111180728E+03  0.15754674870E+03  0.00000000000E+00 0.  1.
         21    1    1    2  506  504  0.31392603504E+02 -0.29311473630E+02  0.89146266024E+02  0.98953093874E+02  0.00000000000E+00 0.  1.
<scales pt_clust_3="38.64667" pt_clust_4="79.00564" pt_clust_5="14000.00000" pt_clust_6="40.06204"></scales>
<clustering>
<clus scale="   38.647">  2  3  1 -1</clus>
<clus scale="   40.062">  2  6  1 -1</clus>
<clus scale="   79.006">  1  4  2 -1</clus>
<clus scale="   79.006">  1  3  2 -1</clus>
</clustering>
</event>
<event>
 6    0  0.5563122E+002  0.7542257E+02  0.7546771E-02  0.1342567E+00
         21   -1    0    0  504  501  0.00000000000E+00  0.00000000000E+00  0.74647216814E+02  0.74647216814E+02  0.00000000000E+00 0.  1.
         21   -1    0    0  506  502 -0.00000000000E+00 -0.00000000000E+00 -0.36025103599E+03  0.36025103599E+03  0.00000000000E+00 0.  1.
         21    1    1    2  503  502  0.34280980034E+02 -0.32561251318E+02 -0.91307858741E+02  0.10282288533E+03  0.00000000000E+00 0.  1.
         21    1    1    2  504  503  0.42923327806E+02 -0.35168289881E+02 -0.19680367562E+02  0.58877309300E+02  0.00000000000E+00 0.  1.
         21    1    1    2  505  501 -0.10972879372E+03  0.37498923804E+02 -0.27017467335E+02  0.11906519642E+03  0.00000000000E+00 0.  1.
         21    1    1    2  506  505  0.32524485881E+02  0.30230617395E+02 -0.14759812554E+03  0.15413286175E+03  0.00000000000E+00 0.  1.
<scales pt_clust_3="52.72810" pt_clust_4="14000.00000" pt_clust_5="75.42257" pt_clust_6="44.40419"></scales>
<clustering>
<clus scale="   44.404">  2  6  1 -1</clus>
<clus scale="   52.728">  2  3  1 -1</clus>
<clus scale="   75.423">  2  5  1 -1</clus>
<clus scale="   75.423">  1  3  2 -1</clus>
</clustering>
</event>
<event>
 6    0  0.5563122E+002  0.1158916E+03  0.7546771E-02  0.1250033E+00
         21   -1    0    0  503  501  0.00000000000E+00  0.00000000000E+00  0.13385295803E+03  0.13385295803E+03  0.00000000000E+00 0. -1.
         21   -1    0    0  504  502 -0.00000000000E+00 -0.00000000000E+00 -0.12126708732E+04  0.12126708732E+04  0.00000000000E+00 0. -1.
         21    1    1    2  503  505  0.10525040773E+03 -0.74071396040E+02 -0.46726371784E+03  0.48466442210E+03  0.00000000000E+00 0. -1.
         21    1    1    2  504  506 -0.17697366183E+03 -0.13045888892E+02 -0.49644949425E+03  0.52721150646E+03  0.00000000000E+00 0. -1.
         21    1    1    2  505  502 -0.28701266244E+02  0.35162576594E+02 -0.19240210916E+03  0.19768343655E+03  0.00000000000E+00 0. -1.
         21    1    1    2  506  501  0.10042452035E+03  0.51954708339E+02  0.77297406056E+02  0.13696446615E+03  0.00000000000E+00 0. -1.
<scales pt_clust_3="108.41000" pt_clust_4="14000.00000" pt_clust_5="45.38909" pt_clust_6="115.89165"></scales>
<clustering>
<clus scale="   45.389">  2  5  1 -1</clus>
<clus scale="  108.410">  2  3  1 -1</clus>
<clus scale="  115.892">  1  6  2 -1</clus>
<clus scale="  115.892">  1  3  2 -1</clus>
</clustering>
</event>
<event>
 6    0  0.5563122E+002  0.9583525E+02  0.7546771E-02  0.1289306E+00
         21   -1    0    0  504  501  0.00000000000E+00  0.00000000000E+00  0.19865033540E+03  0.19865033540E+03  0.00000000000E+00 0.  1.
         21   -1    0    0  506  502 -0.00000000000E+00 -0.00000000000E+00 -0.10851077814E+03  0.10851077814E+03  0.00000000000E+00 0.  1.
         21    1    1    2  503  505  0.39406067720E+02  0.17244038566E+02  0.27437389861E+02  0.51019657011E+02  0.00000000000E+00 0.  1.
         21    1    1    2  504  503  0.77777567801E+02 -0.53188900653E+02  0.47339855609E+02  0.10544890296E+03  0.00000000000E+00 0.  1.
         21    1    1    2  505  502 -0.30456572579E+02 -0.95282818802E+01 -0.29061268416E+02  0.43161884699E+02  0.00000000000E+00 0.  1.
         21    1    1    2  506  501 -0.86727062942E+02  0.45473143967E+02  0.44423580205E+02  0.10753066887E+03  0.00000000000E+00 0.  1.
<scales pt_clust_3="37.85183" pt_clust_4="95.83525" pt_clust_5="31.91224" pt_clust_6="14000.00000"></scales>
<clustering>
<clus scale="   31.912">  2  5  1 -1</clus>
<clus scale="   37.852">  2  3  1 -1</clus>
<clus scale="   95.835">  1  4  2 -1</clus>
<clus scale="   95.835">  1  3  2 -1</clus>
</clustering>
</event>
<event>
 6    0  0.5563122E+002  0.1861528E+03  0.7546771E-02  0.1161978E+00
         21   -1    0    0  504  501  0.00000000000E+00  0.00000000000E+00  0.13702562120E+04  0.13702562120E+04  0.00000000000E+00 0. -1.
         21   -1    0    0  503  502 -0.00000000000E+00 -0.00000000000E+00 -0.34561487811E+03  0.34561487811E+03  0.00000000000E+00 0.  1.
         21    1    1    2  503  505 -0.12804869482E+02 -0.16232974022E+03  0.12699571777E+03  0.20650138395E+03  0.00000000000E+00 0. -1.
         21    1    1    2  504  502  0.66467379730E+01 -0.65771338869E+02 -0.27815056070E+03  0.28589820315E+03  0.00000000000E+00 0.  1.
         21    1    1    2  505  506  0.93209875131E+02  0.16892025479E+03  0.44347879191E+03  0.48362751387E+03  0.00000000000E+00 0. -1.
         21    1    1    2  506  501 -0.87051743622E+02  0.59180824298E+02  0.73231738494E+03  0.73984398917E+03  0.00000000000E+00 0. -1.
<scales pt_clust_3="14000.00000" pt_clust_4="66.10634" pt_clust_5="186.15280" pt_clust_6="102.79343"></scales>
<clustering>
<clus scale="   66.106">  2  4  1 -1</clus>
<clus scale="  102.793">  1  6  2 -1</clus>
<clus scale="  186.153">  1  5  2 -1</clus>
<clus scale="  102.793">  1  3  2 -1</clus>
</clustering>
</event>
<event>
 6    0  0.5563122E+002  0.1047756E+03  0.7546771E-02  0.1270562E+00
         21   -1    0    0  505  501  0.00000000000E+00  0.00000000000E+00  0.14934026902E+03  0.14934026902E+03  0.00000000000E+00 0.  1.
         21   -1    0    0  504  502 -0.00000000000E+00 -0.00000000000E+00 -0.33334420306E+03  0.33334420306E+03  0.00000000000E+00 0.  1.
         21    1    1    2  503  501  0.76139569470E+02  0.60442904136E+02  0.86434346968E+02  0.13008257007E+03  0.00000000000E+00 0.  1.
         21    1    1    2  504  503  0.40774763792E+02  0.13981841545E+02 -0.48158405779E+02  0.64632076421E+02  0.00000000000E+00 0.  1.
         21    1    1    2  505  506 -0.24034544872E+02  0.25713151182E+02 -0.11921056205E+02  0.37160961666E+02  0.00000000000E+00 0. -1.
         21    1    1    2  506  502 -0.92879788391E+02 -0.10013789686E+03 -0.21035881903E+03  0.25080886392E+03  0.00000000000E+00 0.  1.
<scales pt_clust_3="104.77555" pt_clust_4="42.28246" pt_clust_5="35.19695" pt_clust_6="14000.00000"></scales>
<clustering>
<clus scale="   35.197">  1  5  2 -1</clus>
<clus scale="   42.282">  2  4  1 -1</clus>
<clus scale="  104.776">  1  3  2 -1</clus>
<clus scale="   35.197">  1  3  2 -1</clus>
</clustering>
</event>
<event>
 6    0  0.5563122E+002  0.8412643E+02  0.7546771E-02  0.1317733E+00
         21   -1    0    0  504  501  0.00000000000E+00  0.00000000000E+00  0.43211542695E+03  0.43211542695E+03  0.00000000000E+00 0.  1.
         21   -1    0    0  505  502 -0.00000000000E+00 -0.00000000000E+00 -0.18426920911E+03  0.18426920911E+03  0.00000000000E+00 0. -1.
         21    1    1    2  503  501 -0.76299326369E+02  0.12767642850E+03 -0.81057695798E+02  0.16939069528E+03  0.00000000000E+00 0. -1.
         21    1    1    2  504  506  0.34258863271E+02 -0.74176908159E+02  0.34673857976E+03  0.35623521177E+03  0.00000000000E+00 0.  1.
         21    1    1    2  505  503  0.34550333886E+02  0.25131382121E+00 -0.42295094559E+01  0.34809157998E+02  0.00000000000E+00 0. -1.
         21    1    1    2  506  502  0.74901292109E+01 -0.53750834160E+02 -0.13605156669E+02  0.55949571012E+02  0.00000000000E+00 0.  1.
<scales pt_clust_3="84.12643" pt_clust_4="14000.00000" pt_clust_5="34.55125" pt_clust_6="55.69562"></scales>
<clustering>
<clus scale="   34.551">  2  5  1 -1</clus>
<clus scale="   55.696">  2  6  1 -1</clus>
<clus scale="   84.126">  2  3  1 -1</clus>
<clus scale="   84.126">  1  3  2 -1</clus>
</clustering>
</event>
<event>
 6    0  0.5563122E+002  0.1110298E+03  0.7546771E-02  0.1258675E+00
         21   -1    0    0  502  501  0.00000000000E+00  0.00000000000E+00  0.50234526630E+03  0.50234526630E+03  0.00000000000E+00 0. -1.
         21   -1    0    0  505  502 -0.00000000000E+00 -0.00000000000E+00 -0.70592277308E+02  0.70592277308E+02  0.00000000000E+00 0. -1.
         21    1    1    2  503  506  0.29170642358E+02 -0.30092921970E+02 -0.25631827447E+01  0.41989048978E+02  0.00000000000E+00 0. -1.
         21    1    1    2  504  501 -0.54637184045E+02  0.83031746301E+02  0.38780103123E+03  0.40033627440E+03  0.00000000000E+00 0. -1.
         21    1    1    2  505  503 -0.30204299781E+02  0.23485623218E+01 -0.12154279458E+02  0.32642640509E+02  0.00000000000E+00 0. -1.
         21    1    1    2  506  504  0.55670841468E+02 -0.55287386653E+02  0.58669419968E+02  0.97969579728E+02  0.00000000000E+00 0. -1.
<scales pt_clust_3="30.33311" pt_clust_4="101.85762" pt_clust_5="30.29547" pt_clust_6="30.33311"></scales>
<clustering>
<clus scale="   30.295">  2  5  1 -1</clus>
<clus scale="   30.333">  3  6 -1 -1</clus>
<clus scale="  101.858">  1  4  2 -1</clus>
<clus scale="  101.858">  1  3  2 -1</clus>
</clustering>
</event>
<event>
 6    0  0.5563122E+002  0.1221045E+03  0.7546771E-02  0.1239665E+00
         21   -1    0    0  504  501  0.00000000000E+00  0.00000000000E+00  0.10558272514E+03  0.10558272514E+03  0.00000000000E+00 0. -1.
         21   -1    0    0  506  502 -0.00000000000E+00 -0.00000000000E+00 -0.64693746712E+03  0.64693746712E+03  0.00000000000E+00 0.  1.
         21    1    1    2  503  505 -0.51631666519E+02  0.58793105518E+02 -0.70950058313E+02  0.10562371428E+03  0.00000000000E+00 0. -1.
         21    1    1    2  504  502 -0.88890772729E+02 -0.11492204971E+03 -0.35412998487E+03  0.38277499026E+03  0.00000000000E+00 0.  1.
         21    1    1    2  505  501  0.73290088916E+02  0.93232679511E+02  0.70971134103E+01  0.11880294054E+03  0.00000000000E+00 0. -1.
         21    1    1    2  506  503  0.67232350331E+02 -0.37103735322E+02 -0.12337181221E+03  0.14531854718E+03  0.00000000000E+00 0.  1.
<scales pt_clust_3="65.95583" pt_clust_4="14000.00000" pt_clust_5="122.10455" pt_clust_6="76.79112"></scales>
<clustering>
<clus scale="   76.791">  2  6  1 -1</clus>
<clus scale="   65.956">  2  3  1 -1</clus>
<clus scale="  122.105">  1  5  2 -1</clus>
<clus scale="  122.105">  1  3  2 -1</clus>
</clustering>
</event>
<event>
 6    0  0.5563122E+002  0.1052302E+03  0.7546771E-02  0.1269667E+00
         21   -1    0    0  506  501  0.00000000000E+00  0.00000000000E+00  0.15785258899E+04  0.15785258899E+04  0.00000000000E+00 0.  1.
         21   -1    0    0  504  502 -0.00000000000E+00 -0.00000000000E+00 -0.40894168108E+02  0.40894168108E+02  0.00000000000E+00 0. -1.
         21    1    1    2  503  502 -0.11394966220E+03  0.56951978675E+02  0.93426476474E+02  0.15797645362E+03  0.00000000000E+00 0. -1.
         21    1    1    2  504  501  0.79359259522E+01 -0.33095107246E+02  0.96619897915E+02  0.10243861439E+03  0.00000000000E+00 0. -1.
         21    1    1    2  505  503  0.94509308358E+02  0.25685275992E+02  0.47781283682E+03  0.48774670660E+03  0.00000000000E+00 0.  1.
         21    1    1    2  506  505  0.11504427894E+02 -0.49542147421E+02  0.86977251059E+03  0.87125828341E+03  0.00000000000E+00 0.  1.
<scales pt_clust_3="14000.00000" pt_clust_4="34.03329" pt_clust_5="105.23020" pt_clust_6="51.52595"></scales>
<clustering>
<clus scale="   34.033">  2  4  1 -1</clus>
<clus scale="   51.526">  1  6  2 -1</clus>
<clus scale="  105.230">  1  5  2 -1</clus>
<clus scale="   51.526">  1  3  2 -1</clus>
</clustering>
</event>
<event>
 6    0  0.5563122E+002  0.1015656E+03  0.7546771E-02  0.1277038E+00
         21   -1    0    0  506  501  0.00000000000E+00  0.00000000000E+00  0.38600147978E+03  0.38600147978E+03  0.00000000000E+00 0.  1.
         21   -1    0    0  505  502 -0.00000000000E+00 -0.00000000000E+00 -0.21863493433E+03  0.21863493433E+03  0.00000000000E+00 0.  1.
         21    1    1    2  503  501  0.12745338140E+02 -0.40567850410E+02  0.65688776302E+02  0.78250939056E+02  0.00000000000E+00 0. -1.
         21    1    1    2  504  503  0.51097701160E+02  0.38691020460E+02  0.31272320844E+02  0.71315693778E+02  0.00000000000E+00 0.  1.
         21    1    1    2  505  504  0.98038300089E+02  0.13829687675E+01 -0.15145900616E+03  0.18042519623E+03  0.00000000000E+00 0.  1.
         21    1    1    2  506  502 -0.16188133939E+03  0.49386118232E+00  0.22186445447E+03  0.27464458505E+03  0.00000000000E+00 0.  1.
<scales pt_clust_3="42.52287" pt_clust_4="62.09834" pt_clust_5="101.56563" pt_clust_6="14000.00000"></scales>
<clustering>
<clus scale="   42.523">  1  3  2 -1</clus>
<clus scale="   62.098">  1  4  2 -1</clus>
<clus scale="  101.566">  2  5  1 -1</clus>
<clus scale="   42.523">  1  3  2 -1</clus>
</clustering>
</event>
<event>
 6    0  0.5563122E+002  0.9658213E+02  0.7546771E-02  0.1287652E+00
         21   -1    0    0  506  501  0.00000000000E+00  0.00000000000E+00  0.42305048058E+02  0.42305048058E+02  0.00000000000E+00 0. -1.
         21   -1    0    0  504  502 -0.00000000000E+00 -0.00000000000E+00 -0.48124880424E+03  0.48124880424E+03  0.00000000000E+00 0. -1.
         21    1    1    2  503  502  0.74658985289E+02  0.64748692016E+02 -0.20431135758E+03  0.22695701804E+03  0.00000000000E+00 0. -1.
         21    1    1    2  504  501 -0.73331212011E+02 -0.57650289711E+02 -0.11086587797E+03  0.14488707829E+03  0.00000000000E+00 0. -1.
         21    1    1    2  505  503  0.30528391311E+02 -0.34127452962E+02 -0.69413293125E+02  0.83155703257E+02  0.00000000000E+00 0. -1.
         21    1    1    2  506  505 -0.31856164589E+02  0.27029050657E+02 -0.54353227511E+02  0.68554052707E+02  0.00000000000E+00 0. -1.
<scales pt_clust_3="96.58213" pt_clust_4="14000.00000" pt_clust_5="37.72860" pt_clust_6="41.77780"></scales>
<clustering>
<clus scale="   41.778">  1  6  2 -1</clus>
<clus scale="   37.729">  1  5  2 -1</clus>
<clus scale="   96.582">  2  3  1 -1</clus>
<clus scale="   41.778">  1  3  2 -1</clus>
</clustering>
</event>
<event>
 6    0  0.5563122E+002  0.1346392E+03  0.7546771E-02  0.1220730E+00
         21   -1    0    0  504  501  0.00000000000E+00  0.00000000000E+00  0.66857248998E+03  0.66857248998E+03  0.00000000000E+00 0. -1.
         21   -1    0    0  503  502 -0.00000000000E+00 -0.00000000000E+00 -0.28102353105E+03  0.28102353105E+03  0.00000000000E+00 0. -1.
         21    1    1    2  503  501 -0.25413260864E+02 -0.10854916331E+03 -0.12488727830E+01  0.11149131969E+03  0.00000000000E+00 0.  1.
         21    1    1    2  504  505  0.66401489018E+02 -0.12209534235E+02  0.58886481287E+03  0.59272253062E+03  0.00000000000E+00 0. -1.
         21    1    1    2  505  506 -0.24385142339E+02  0.68863809436E+02 -0.58171177891E+02  0.93384931087E+02  0.00000000000E+00 0.  1.
         21    1    1    2  506  502 -0.16603085815E+02  0.51894888108E+02 -0.14189580326E+03  0.15199723963E+03  0.00000000000E+00 0. -1.
<scales pt_clust_3="119.18391" pt_clust_4="67.51467" pt_clust_5="54.09114" pt_clust_6="54.09114"></scales>
<clustering>
<clus scale="   54.091">  5  6 -1 -1</clus>
<clus scale="   67.515">  1  4  2 -1</clus>
<clus scale="  119.184">  1  3  2 -1</clus>
<clus scale="   67.515">  1  3  2 -1</clus>
</clustering>
</event>
<event>
 6    0  0.5563122E+002  0.2091099E+03  0.7546771E-02  0.1142273E+00
         21   -1    0    0  504  501  0.00000000000E+00  0.00000000000E+00  0.89764186860E+03  0.89764186860E+03  0.00000000000E+00 0.  1.
         21   -1    0    0  506  502 -0.00000000000E+00 -0.00000000000E+00 -0.22417523311E+04  0.22417523311E+04  0.00000000000E+00 0. -1.
         21    1    1    2  503  502  0.30277046297E+01 -0.67707177814E+02 -0.17801536895E+04  0.17814434000E+04  0.00000000000E+00 0. -1.
         21    1    1    2  504  503 -0.13535397499E+02  0.20646226878E+03  0.87320459700E+03  0.89738294147E+03  0.00000000000E+00 0.  1.
         21    1    1    2  505  501  0.17495183508E+01 -0.76357409643E+02 -0.17500621963E+03  0.19094682959E+03  0.00000000000E+00 0.  1.
         21    1    1    2  506  505  0.87581745189E+01 -0.62397681322E+02 -0.26215515040E+03  0.26962102874E+03  0.00000000000E+00 0.  1.
<scales pt_clust_3="67.77484" pt_clust_4="205.12837" pt_clust_5="36.88671" pt_clust_6="36.88671"></scales>
<clustering>
<clus scale="   36.887">  5  6 -1 -1</clus>
<clus scale="   67.775">  2  3  1 -1</clus>
<clus scale="  205.128">  1  4  2 -1</clus>
<clus scale="  205.128">  1  3  2 -1</clus>
</clustering>
</event>
<event>
 6    0  0.5563122E+002  0.7471512E+02  0.7546771E-02  0.1344755E+00
         21   -1    0    0  506  501  0.00000000000E+00  0.00000000000E+00  0.56961384361E+03  0.56961384361E+03  0.00000000000E+00 0.  1.
         21   -1    0    0  505  502 -0.00000000000E+00 -0.00000000000E+00 -0.19804132530E+03  0.19804132530E+03  0.00000000000E+00 0.  1.
         21    1    1    2  503  504  0.11471728469E+03  0.66526212768E+01  0.41150694300E+03  0.42724966578E+03  0.00000000000E+00 0.  1.
         21    1    1    2  504  501 -0.30995739687E+02  0.28970563558E+02  0.54536192458E+02  0.69095772081E+02  0.00000000000E+00 0.  1.
         21    1    1    2  505  503 -0.73046942749E+02  0.11946137911E+02 -0.16771612665E+03  0.18332284417E+03  0.00000000000E+00 0.  1.
         21    1    1    2  506  502 -0.10674602256E+02 -0.47569322746E+02  0.73245509508E+02  0.87986886881E+02  0.00000000000E+00 0.  1.
<scales pt_clust_3="74.71512" pt_clust_4="42.42675" pt_clust_5="14000.00000" pt_clust_6="45.71260"></scales>
<clustering>
<clus scale="   42.427">  1  4  2 -1</clus>
<clus scale="   45.713">  1  6  2 -1</clus>
<clus scale="   74.715">  1  3  2 -1</clus>
<clus scale="   42.427">  1  3  2 -1</clus>
</clustering>
</event>
<event>
 6    0  0.5563122E+002  0.1692318E+03  0.7546771E-02  0.1178651E+00
         21   -1    0    0  503  501  0.00000000000E+00  0.00000000000E+00  0.67995817373E+03  0.67995817373E+03  0.00000000000E+00 0. -1.
         21   -1    0    0  504  502 -0.00000000000E+00 -0.00000000000E+00 -0.28828143002E+03  0.28828143002E+03  0.00000000000E+00 0. -1.
         21    1    1    2  503  506 -0.31065691198E+02 -0.84184376278E+02  0.43095230488E+03  0.44019538328E+03  0.00000000000E+00 0. -1.
         21    1    1    2  504  505  0.17310780191E+03 -0.68754360387E+02 -0.10467778344E+03  0.21366073926E+03  0.00000000000E+00 0. -1.
         21    1    1    2  505  501 -0.44373036092E+02  0.18877606483E+03  0.47939085291E+01  0.19398028391E+03  0.00000000000E+00 0. -1.
         21    1    1    2  506  502 -0.97669074621E+02 -0.35837328169E+02  0.60608313736E+02  0.12040319731E+03  0.00000000000E+00 0. -1.
<scales pt_clust_3="89.73342" pt_clust_4="14000.00000" pt_clust_5="169.23182" pt_clust_6="128.10107"></scales>
<clustering>
<clus scale="   89.733">  1  3  2 -1</clus>
<clus scale="  128.101">  1  6  2 -1</clus>
<clus scale="  169.232">  1  5  2 -1</clus>
<clus scale="   89.733">  1  3  2 -1</clus>
</clustering>
</event>
<event>
 6    0  0.5563122E+002  0.1029571E+03  0.7546771E-02  0.1274198E+00
         21   -1    0    0  505  501  0.00000000000E+00  0.00000000000E+00  0.35112338551E+03  0.35112338551E+03  0.00000000000E+00 0.  1.
         21   -1    0    0  506  502 -0.00000000000E+00 -0.00000000000E+00 -0.20469540299E+03  0.20469540299E+03  0.00000000000E+00 0.  1.
         21    1    1    2  503  504  0.45340603864E+02  0.18092321824E+02  0.19757736036E+02  0.52663750351E+02  0.00000000000E+00 0.  1.
         21    1    1    2  504  501  0.81835741229E+02 -0.13781806356E+00  0.12783333159E+03  0.15178428180E+03  0.00000000000E+00 0.  1.
         21    1    1    2  505  502 -0.71544335117E+02 -0.98818196794E+01  0.16276636096E+03  0.17807057732E+03  0.00000000000E+00 0.  1.
         21    1    1    2  506  503 -0.55632009976E+02 -0.80726840810E+01 -0.16392944607E+03  0.17330017903E+03  0.00000000000E+00 0.  1.
<scales pt_clust_3="45.82114" pt_clust_4="45.82114" pt_clust_5="84.14554" pt_clust_6="56.21467"></scales>
<clustering>
<clus scale="   45.821">  3  4 -1 -1</clus>
<clus scale="   56.215">  2  6  1 -1</clus>
<clus scale="   84.146">  1  5  2 -1</clus>
<clus scale="   84.146">  1  3  2 -1</clus>
</clustering>
</event>
<event>
 6    0  0.5563122E+002  0.6480694E+02  0.7546771E-02  0.1378699E+00
         21   -1    0    0  506  501  0.00000000000E+00  0.00000000000E+00  0.39922003113E+02  0.39922003113E+02  0.00000000000E+00 0.  1.
         21   -1    0    0  505  502 -0.00000000000E+00 -0.00000000000E+00 -0.85492356275E+03  0.85492356275E+03  0.00000000000E+00 0.  1.
         21    1    1    2  503  501 -0.64234408815E+02 -0.31339412169E+02 -0.58317412189E+02  0.92244992251E+02  0.00000000000E+00 0.  1.
         21    1    1    2  504  503 -0.19010711181E+02  0.88896295502E+02 -0.26125903444E+03  0.27662292307E+03  0.00000000000E+00 0.  1.
         21    1    1    2  505  504  0.28709413785E+02 -0.51564436661E+02 -0.45245840378E+03  0.45629127618E+03  0.00000000000E+00 0.  1.
         21    1    1    2  506  502  0.54535706212E+02 -0.59924466727E+01 -0.42966709229E+02  0.69686374358E+02  0.00000000000E+00 0.  1.
<scales pt_clust_3="45.84061" pt_clust_4="14000.00000" pt_clust_5="64.80694" pt_clust_6="54.86395"></scales>
<clustering>
<clus scale="   54.864">  1  6  2 -1</clus>
<clus scale="   45.841">  1  3  2 -1</clus>
<clus scale="   64.807">  2  5  1 -1</clus>
<clus scale="   54.864">  1  3  2 -1</clus>
</clustering>
</event>
<event>
 6    0  0.5563122E+002  0.1280645E+03  0.7546771E-02  0.1230356E+00
         21   -1    0    0  503  501  0.00000000000E+00  0.00000000000E+00  0.48192149990E+03  0.48192149990E+03  0.00000000000E+00 0. -1.
         21   -1    0    0  505  502 -0.00000000000E+00 -0.00000000000E+00 -0.13425862928E+03  0.13425862928E+03  0.00000000000E+00 0.  1.
         21    1    1    2  503  502 -0.10415478666E+03  0.74652239713E+02  0.13965734299E+03  0.18953983731E+03  0.00000000000E+00 0. -1.
         21    1    1    2  504  501  0.31627537087E+02  0.13490770357E+02  0.27942189353E+03  0.28152956606E+03  0.00000000000E+00 0. -1.
         21    1    1    2  505  506  0.25430380829E+02 -0.58554521863E+02 -0.14367151675E+02  0.65435092626E+02  0.00000000000E+00 0.  1.
         21    1    1    2  506  504  0.47096868741E+02 -0.29588488207E+02 -0.57049214213E+02  0.79675633176E+02  0.00000000000E+00 0.  1.
<scales pt_clust_3="116.07365" pt_clust_4="34.38462" pt_clust_5="50.93993" pt_clust_6="50.93993"></scales>
<clustering>
<clus scale="   34.385">  1  4  2 -1</clus>
<clus scale="   50.940">  5  6 -1 -1</clus>
<clus scale="  116.074">  1  3  2 -1</clus>
<clus scale="   34.385">  1  3  2 -1</clus>
</clustering>
</event>
<event>
 6    0  0.5563122E+002  0.2357733E+03  0.7546771E-02  0.1122641E+00
         21   -1    0    0  502  501  0.00000000000E+00  0.00000000000E+00  0.58543528998E+03  0.58543528998E+03  0.00000000000E+00 0. -1.
         21   -1    0    0  505  502 -0.00000000000E+00 -0.00000000000E+00 -0.12700396843E+03  0.12700396843E+03  0.00000000000E+00 0. -1.
         21    1    1    2  503  504 -0.75682622781E+02 -0.20714201083E+03  0.63241313802E+02  0.22942348575E+03  0.00000000000E+00 0. -1.
         21    1    1    2  504  506  0.85704329125E+02  0.56149233063E+02  0.15484517719E+03  0.18567443902E+03  0.00000000000E+00 0. -1.
         21    1    1    2  505  503 -0.30725649996E+02  0.20321848494E+02  0.24718902007E+02  0.44362903538E+02  0.00000000000E+00 0.  1.
         21    1    1    2  506  501  0.20703943652E+02  0.13067092927E+03  0.21562592855E+03  0.25297843011E+03  0.00000000000E+00 0. -1.
<scales pt_clust_3="215.97690" pt_clust_4="81.70022" pt_clust_5="36.83807" pt_clust_6="81.70022"></scales>
<clustering>
<clus scale="   36.838">  2  5  1 -1</clus>
<clus scale="   81.700">  4  6 -1 -1</clus>
<clus scale="  215.977">  2  3  1 -1</clus>
<clus scale="  235.773">  1  3  2 -1</clus>
</clustering>
</event>
<event>
 6    0  0.5563122E+002  0.1511594E+03  0.7546771E-02  0.1199056E+00
         21   -1    0    0  505  501  0.00000000000E+00  0.00000000000E+00  0.20014334144E+04  0.20014334144E+04  0.00000000000E+00 0.  1.
         21   -1    0    0  504  502 -0.00000000000E+00 -0.00000000000E+00 -0.47666447924E+02  0.47666447924E+02  0.00000000000E+00 0. -1.
         21    1    1    2  503  501 -0.25006367878E+02 -0.72117445959E+02  0.12647924277E+03  0.14772692137E+03  0.00000000000E+00 0. -1.
         21    1    1    2  504  506  0.25525216343E+02 -0.32126240832E+02 -0.84100089520E-01  0.41032171429E+02  0.00000000000E+00 0. -1.
         21    1    1    2  505  502  0.13321224905E+02  0.14641328486E+03  0.18043740638E+04  0.18103535752E+04  0.00000000000E+00 0.  1.
         21    1    1    2  506  503 -0.13840073369E+02 -0.42169598067E+02  0.22997759947E+02  0.49987194306E+02  0.00000000000E+00 0. -1.
<scales pt_clust_3="35.57797" pt_clust_4="41.03209" pt_clust_5="143.77848" pt_clust_6="35.57797"></scales>
<clustering>
<clus scale="   35.578">  3  6 -1 -1</clus>
<clus scale="   41.032">  2  4  1 -1</clus>
<clus scale="  143.778">  1  5  2 -1</clus>
<clus scale="  143.778">  1  3  2 -1</clus>
</clustering>
</event>
<event>
 6    0  0.5563122E+002  0.8032501E+02  0.7546771E-02  0.1328132E+00
         21   -1    0    0  506  501  0.00000000000E+00  0.00000000000E+00  0.91055328218E+02  0.91055328218E+02  0.00000000000E+00 0.  1.
         21   -1    0    0  504  502 -0.00000000000E+00 -0.00000000000E+00 -0.21611701639E+04  0.21611701639E+04  0.00000000000E+00 0.  1.
         21    1    1    2  503  501 -0.75725272117E+02 -0.25823973553E+02  0.66688062494E+02  0.10415609500E+03  0.00000000000E+00 0.  1.
         21    1    1    2  504  503 -0.44609497607E+02 -0.33318878150E+02 -0.52564044726E+03  0.52858115244E+03  0.00000000000E+00 0.  1.
         21    1    1    2  505  502  0.45658385674E+02 -0.57458338928E+01 -0.93447373790E+03  0.93560615090E+03  0.00000000000E+00 0.  1.
         21    1    1    2  506  505  0.74676384050E+02  0.64888685596E+02 -0.67668871304E+03  0.68388209379E+03  0.00000000000E+00 0.  1.
<scales pt_clust_3="80.32501" pt_clust_4="43.64522" pt_clust_5="46.01850" pt_clust_6="14000.00000"></scales>
<clustering>
<clus scale="   46.019">  2  5  1 -1</clus>
<clus scale="   43.645">  2  4  1 -1</clus>
<clus scale="   80.325">  1  3  2 -1</clus>
<clus scale="   80.325">  1  3  2 -1</clus>
</clustering>
</event>
<event>
 6    0  0.5563122E+002  0.9544315E+02  0.7546771E-02  0.1290181E+00
         21   -1    0    0  503  501  0.00000000000E+00  0.00000000000E+00  0.95888857993E+02  0.95888857993E+02  0.00000000000E+00 0.  1.
         21   -1    0    0  504  502 -0.00000000000E+00 -0.00000000000E+00 -0.19471260357E+04  0.19471260357E+04  0.00000000000E+00 0. -1.
         21    1    1    2  503  505 -0.33922988967E+02 -0.59564925927E+02 -0.37380987972E+03  0.38004286043E+03  0.00000000000E+00 0. -1.
         21    1    1    2  504  506  0.88003894650E+02  0.10097072818E+03 -0.10019708057E+04  0.10108834101E+04  0.00000000000E+00 0. -1.
         21    1    1    2  505  502  0.15787841641E+02 -0.49083084313E+02 -0.54838362793E+03  0.55080215004E+03  0.00000000000E+00 0. -1.
         21    1    1    2  506  501 -0.69868747324E+02  0.76772820599E+01  0.72927135658E+02  0.10128647307E+03  0.00000000000E+00 0.  1.
<scales pt_clust_3="14000.00000" pt_clust_4="95.44315" pt_clust_5="51.55972" pt_clust_6="70.07728"></scales>
<clustering>
<clus scale="   51.560">  2  5  1 -1</clus>
<clus scale="   70.077">  1  6  2 -1</clus>
<clus scale="   95.443">  2  4  1 -1</clus>
<clus scale="   70.077">  1  3  2 -1</clus>
</clustering>
</event>
<event>
 6    0  0.5563122E+002  0.1930991E+03  0.7546771E-02  0.1155695E+00
         21   -1    0    0  503  501  0.00000000000E+00  0.00000000000E+00  0.47359354543E+03  0.47359354543E+03  0.00000000000E+00 0. -1.
         21   -1    0    0  504  502 -0.00000000000E+00 -0.00000000000E+00 -0.92523724378E+03  0.92523724378E+03  0.00000000000E+00 0.  1.
         21    1    1    2  503  506 -0.59131706020E+01 -0.13995378258E+03 -0.28302060309E+02  0.14290917907E+03  0.00000000000E+00 0. -1.
         21    1    1    2  504  505 -0.23672989282E+02 -0.22807370555E+02 -0.45631090449E+02  0.56238625417E+02  0.00000000000E+00 0.  1.
         21    1    1    2  505  501 -0.13834870466E+03 -0.18658761054E+02  0.37885221297E+03  0.40375427269E+03  0.00000000000E+00 0. -1.
         21    1    1    2  506  502  0.16793486454E+03  0.18141991419E+03 -0.75656276055E+03  0.79592871204E+03  0.00000000000E+00 0.  1.
<scales pt_clust_3="14000.00000" pt_clust_4="32.87228" pt_clust_5="139.97906" pt_clust_6="193.09915"></scales>
<clustering>
<clus scale="   32.872">  2  4  1 -1</clus>
<clus scale="  139.979">  1  5  2 -1</clus>
<clus scale="  193.099">  2  6  1 -1</clus>
<clus scale="  139.979">  1  3  2 -1</clus>
</clustering>
</event>
<event>
 6    0  0.5563122E+002  0.1461097E+03  0.7546771E-02  0.1205336E+00
         21   -1    0    0  503  501  0.00000000000E+00  0.00000000000E+00  0.10837808820E+03  0.10837808820E+03  0.00000000000E+00 0.  1.
         21   -1    0    0  506  502 -0.00000000000E+00 -0.00000000000E+00 -0.39746448455E+03  0.39746448455E+03  0.00000000000E+00 0.  1.
         21    1    1    2  503  502  0.29718925984E+02  0.20278754606E+02 -0.37616717183E+02  0.52052472195E+02  0.00000000000E+00 0.  1.
         21    1    1    2  504  505 -0.39961352646E+02  0.89422901006E+02 -0.20849507224E+03  0.23035529097E+03  0.00000000000E+00 0.  1.
         21    1    1    2  505  501  0.55003769502E+02 -0.12213037691E+03  0.29684185141E+02  0.13719473194E+03  0.00000000000E+00 0.  1.
         21    1    1    2  506  504 -0.44761342841E+02  0.12428721301E+02 -0.72658792067E+02  0.86240077637E+02  0.00000000000E+00 0. -1.
<scales pt_clust_3="35.97836" pt_clust_4="38.11314" pt_clust_5="133.09626" pt_clust_6="38.11314"></scales>
<clustering>
<clus scale="   35.978">  2  3  1 -1</clus>
<clus scale="   38.113">  4  6 -1 -1</clus>
<clus scale="  133.096">  1  5  2 -1</clus>
<clus scale="  133.096">  1  3  2 -1</clus>
</clustering>
</event>
<event>
 6    0  0.5563122E+002  0.1565816E+03  0.7546771E-02  0.1192611E+00
         21   -1    0    0  505  501  0.00000000000E+00  0.00000000000E+00  0.28695401712E+03  0.28695401712E+03  0.00000000000E+00 0.  1.
         21   -1    0    0  503  502 -0.00000000000E+00 -0.00000000000E+00 -0.14301121416E+03  0.14301121416E+03  0.00000000000E+00 0.  1.
         21    1    1    2  503  506  0.99387574680E+02  0.10716588906E+03 -0.37929132878E+02  0.15100012219E+03  0.00000000000E+00 0.  1.
         21    1    1    2  504  502 -0.60750891161E+02 -0.66131984282E+02  0.10225130521E+03  0.13608614749E+03  0.00000000000E+00 0.  1.
         21    1    1    2  505  504 -0.18350237379E+02 -0.75759636588E+02  0.58447719843E+02  0.97428895625E+02  0.00000000000E+00 0.  1.
         21    1    1    2  506  501 -0.20286446140E+02  0.34725731806E+02  0.21172910786E+02  0.45450065980E+02  0.00000000000E+00 0.  1.
<scales pt_clust_3="149.00648" pt_clust_4="43.23918" pt_clust_5="43.23918" pt_clust_6="40.21712"></scales>
<clustering>
<clus scale="   40.217">  1  6  2 -1</clus>
<clus scale="   43.239">  4  5 -1 -1</clus>
<clus scale="  149.006">  2  3  1 -1</clus>
<clus scale="   40.217">  1  3  2 -1</clus>
</clustering>
</event>
<event>
 6    0  0.5563122E+002  0.1536404E+03  0.7546771E-02  0.1196070E+00
         21   -1    0    0  505  501  0.00000000000E+00  0.00000000000E+00  0.25548272083E+04  0.25548272083E+04  0.00000000000E+00 0. -1.
         21   -1    0    0  504  502 -0.00000000000E+00 -0.00000000000E+00 -0.71252071712E+02  0.71252071712E+02  0.00000000000E+00 0. -1.
         21    1    1    2  503  502  0.43276095842E+01 -0.33006626649E+02  0.65421038487E+02  0.73403527736E+02  0.00000000000E+00 0.  1.
         21    1    1    2  504  506  0.52010906828E+02  0.17752307849E+03  0.70412615858E+02  0.19793310561E+03  0.00000000000E+00 0. -1.
         21    1    1    2  505  503 -0.22992222595E+02 -0.19747626124E+02  0.10830652841E+04  0.10834892804E+04  0.00000000000E+00 0. -1.
         21    1    1    2  506  501 -0.33346293818E+02 -0.12476882572E+03  0.12646761981E+04  0.12712533663E+04  0.00000000000E+00 0. -1.
<scales pt_clust_3="34.09271" pt_clust_4="153.64039" pt_clust_5="30.30860" pt_clust_6="14000.00000"></scales>
<clustering>
<clus scale="   30.309">  1  5  2 -1</clus>
<clus scale="   34.093">  2  3  1 -1</clus>
<clus scale="  153.640">  2  4  1 -1</clus>
<clus scale="   30.309">  1  3  2 -1</clus>
</clustering>
</event>
<event>
 6    0  0.5563122E+002  0.1061905E+03  0.7546771E-02  0.1267792E+00
         21   -1    0    0  504  501  0.00000000000E+00  0.00000000000E+00  0.20787180948E+03  0.20787180948E+03  0.00000000000E+00 0.  1.
         21   -1    0    0  503  502 -0.00000000000E+00 -0.00000000000E+00 -0.39639324287E+03  0.39639324287E+03  0.00000000000E+00 0. -1.
         21    1    1    2  503  506  0.34704286199E+01 -0.45188881388E+02 -0.25767592868E+03  0.26163134961E+03  0.00000000000E+00 0. -1.
         21    1    1    2  504  505  0.76590949753E+02 -0.21615065608E+01 -0.29645400117E+02  0.82156530128E+02  0.00000000000E+00 0. -1.
         21    1    1    2  505  502  0.36142740877E+02  0.79732779662E+02 -0.21467222643E+02  0.90135761597E+02  0.00000000000E+00 0. -1.
         21    1    1    2  506  501 -0.11620411925E+03 -0.32382391713E+02  0.12026711805E+03  0.17034141102E+03  0.00000000000E+00 0.  1.
<scales pt_clust_3="45.32195" pt_clust_4="14000.00000" pt_clust_5="71.88439" pt_clust_6="106.19045"></scales>
<clustering>
<clus scale="   45.322">  2  3  1 -1</clus>
<clus scale="   71.884">  2  5  1 -1</clus>
<clus scale="  106.190">  1  6  2 -1</clus>
<clus scale="  106.190">  1  3  2 -1</clus>
</clustering>
</event>
<event>
 6    0  0.5563122E+002  0.1073609E+03  0.7546771E-02  0.1265537E+00
         21   -1    0    0  506  501  0.00000000000E+00  0.00000000000E+00  0.15572136352E+03  0.15572136352E+03  0.00000000000E+00 0. -1.
         21   -1    0    0  503  502 -0.00000000000E+00 -0.00000000000E+00 -0.32792430069E+03  0.32792430069E+03  0.00000000000E+00 0. -1.
         21    1    1    2  503  501 -0.25385840757E+02 -0.72642621502E+02 -0.84213647951E+02  0.11407598288E+03  0.00000000000E+00 0. -1.
         21    1    1    2  504  505  0.37562996137E+02  0.52302608743E+02 -0.76941220097E+02  0.10033191372E+03  0.00000000000E+00 0. -1.
         21    1    1    2  505  502  0.10788387805E+02  0.75954912573E+02 -0.12136454819E+03  0.14357886896E+03  0.00000000000E+00 0. -1.
         21    1    1    2  506  504 -0.22965543185E+02 -0.55614899814E+02  0.11031647907E+03  0.12565889865E+03  0.00000000000E+00 0. -1.
<scales pt_clust_3="100.73187" pt_clust_4="34.02726" pt_clust_5="34.02726" pt_clust_6="60.17004"></scales>
<clustering>
<clus scale="   34.027">  4  5 -1 -1</clus>
<clus scale="   60.170">  1  6  2 -1</clus>
<clus scale="  100.732">  2  3  1 -1</clus>
<clus scale="   60.170">  1  3  2 -1</clus>
</clustering>
</event>
<event>
 6    0  0.5563122E+002  0.6986197E+02  0.7546771E-02  0.1360563E+00
         21   -1    0    0  506  501  0.00000000000E+00  0.00000000000E+00  0.37068682291E+03  0.37068682291E+03  0.00000000000E+00 0. -1.
         21   -1    0    0  505  502 -0.00000000000E+00 -0.00000000000E+00 -0.69591410038E+02  0.69591410038E+02  0.00000000000E+00 0. -1.
         21    1    1    2  503  504  0.16880073057E+02 -0.85678796954E+02  0.16706822928E+02  0.88909566675E+02  0.00000000000E+00 0. -1.
         21    1    1    2  504  502  0.14384034452E+02  0.45945201161E+02  0.14905206294E+02  0.50398681843E+02  0.00000000000E+00 0. -1.
         21    1    1    2  505  501 -0.43192313047E+02 -0.27289159315E+02  0.51253156487E+02  0.72368226262E+02  0.00000000000E+00 0. -1.
         21    1    1    2  506  503  0.11928205538E+02  0.67022755108E+02  0.21823022716E+03  0.22860175816E+03  0.00000000000E+00 0. -1.
<scales pt_clust_3="14000.00000" pt_clust_4="48.14418" pt_clust_5="44.07625" pt_clust_6="69.86197"></scales>
<clustering>
<clus scale="   48.144">  2  4  1 -1</clus>
<clus scale="   44.076">  2  5  1 -1</clus>
<clus scale="   69.862">  1  6  2 -1</clus>
<clus scale="   69.862">  1  3  2 -1</clus>
</clustering>
</event>
<event>
 6    0  0.5563122E+002  0.1048991E+03  0.7546771E-02  0.1270319E+00
         21   -1    0    0  503  501  0.00000000000E+00  0.00000000000E+00  0.66841613576E+02  0.66841613576E+02  0.00000000000E+00 0. -1.
         21   -1    0    0  501  502 -0.00000000000E+00 -0.00000000000E+00 -0.81904052392E+03  0.81904052392E+03  0.00000000000E+00 0.  1.
         21    1    1    2  503  504  0.47980191253E+02 -0.22405966503E+02  0.29400656570E+02  0.60568347298E+02  0.00000000000E+00 0. -1.
         21    1    1    2  504  506  0.83344107321E+02  0.28167038297E+01 -0.21370484141E+03  0.22939906993E+03  0.00000000000E+00 0.  1.
         21    1    1    2  505  502 -0.46590465482E+01  0.41508981131E+02 -0.68411819418E+02  0.80155344584E+02  0.00000000000E+00 0.  1.
         21    1    1    2  506  505 -0.12666525203E+03 -0.21919718458E+02 -0.49948290609E+03  0.51575937568E+03  0.00000000000E+00 0.  1.
<scales pt_clust_3="52.50346" pt_clust_4="104.89912" pt_clust_5="41.76963" pt_clust_6="14000.00000"></scales>
<clustering>
<clus scale="   41.770">  2  5  1 -1</clus>
<clus scale="   52.503">  1  3  2 -1</clus>
<clus scale="  104.899">  1  4  2 -1</clus>
<clus scale="   52.503">  1  3  2 -1</clus>
</clustering>
</event>
<event>
 6    0  0.5563122E+002  0.8040428E+02  0.7546771E-02  0.1327908E+00
         21   -1    0    0  504  501  0.00000000000E+00  0.00000000000E+00  0.13833740501E+04  0.13833740501E+04  0.00000000000E+00 0.  1.
         21   -1    0    0  503  502 -0.00000000000E+00 -0.00000000000E+00 -0.67944110262E+02  0.67944110262E+02  0.00000000000E+00 0.  1.
         21    1    1    2  503  506  0.16358183500E+02 -0.33377346806E+02 -0.45422752468E+02  0.58692962858E+02  0.00000000000E+00 0.  1.
         21    1    1    2  504  502 -0.15128120312E+02 -0.28484731290E+02  0.61356215586E+02  0.69316845946E+02  0.00000000000E+00 0.  1.
         21    1    1    2  505  501 -0.32831521546E+02 -0.65658005786E+02  0.89513129070E+03  0.89813635386E+03  0.00000000000E+00 0.  1.
         21    1    1    2  506  505  0.31601458358E+02  0.12752008388E+03  0.40436518603E+03  0.42517199771E+03  0.00000000000E+00 0.  1.
<scales pt_clust_3="56.70458" pt_clust_4="32.25275" pt_clust_5="14000.00000" pt_clust_6="80.40428"></scales>
<clustering>
<clus scale="   32.253">  2  4  1 -1</clus>
<clus scale="   56.705">  2  3  1 -1</clus>
<clus scale="   80.404">  2  6  1 -1</clus>
<clus scale="   80.404">  1  3  2 -1</clus>
</clustering>
</event>
<event>
 6    0  0.5563122E+002  0.1279575E+03  0.7546771E-02  0.1230518E+00
         21   -1    0    0  506  501  0.00000000000E+00  0.00000000000E+00  0.24427885753E+04  0.24427885753E+04  0.00000000000E+00 0. -1.
         21   -1    0    0  505  502 -0.00000000000E+00 -0.00000000000E+00 -0.18726038482E+02  0.18726038482E+02  0.00000000000E+00 0. -1.
         21    1    1    2  503  502  0.87509689279E+01  0.55669414609E+02  0.22705261789E+03  0.23394134836E+03  0.00000000000E+00 0. -1.
         21    1    1    2  504  501  0.64679499059E+02 -0.98462790530E+02  0.17564818347E+04  0.17604280145E+04  0.00000000000E+00 0. -1.
         21    1    1    2  505  504 -0.33344374684E+02 -0.23482819930E+02  0.33400371777E+02  0.52715035709E+02  0.00000000000E+00 0. -1.
         21    1    1    2  506  503 -0.40086093303E+02  0.66276195851E+02  0.40712771242E+03  0.41443021515E+03  0.00000000000E+00 0. -1.
<scales pt_clust_3="37.57007" pt_clust_4="118.42615" pt_clust_5="40.78345" pt_clust_6="37.57007"></scales>
<clustering>
<clus scale="   40.783">  2  5  1 -1</clus>
<clus scale="   37.570">  3  6 -1 -1</clus>
<clus scale="  118.426">  1  4  2 -1</clus>
<clus scale="  118.426">  1  3  2 -1</clus>
</clustering>
</event>
<event>
 6    0  0.5563122E+002  0.3802438E+03  0.7546771E-02  0.1050844E+00
         21   -1    0    0  503  501  0.00000000000E+00  0.00000000000E+00  0.21163880201E+03  0.21163880201E+03  0.00000000000E+00 0. -1.
         21   -1    0    0  505  502 -0.00000000000E+00 -0.00000000000E+00 -0.10872599520E+04  0.10872599520E+04  0.00000000000E+00 0. -1.
         21    1    1    2  503  502  0.13649196521E+03 -0.34467004658E+03 -0.63912396778E+02  0.37618119576E+03  0.00000000000E+00 0. -1.
         21    1    1    2  504  501 -0.82495081564E+02  0.19943724439E+03 -0.35963784207E+03  0.41942821839E+03  0.00000000000E+00 0. -1.
         21    1    1    2  505  506  0.41196232604E+02 -0.61257243321E+00 -0.47842691717E+02  0.63138165768E+02  0.00000000000E+00 0. -1.
         21    1    1    2  506  504 -0.95193116245E+02  0.14584537463E+03 -0.40422821941E+03  0.44015117408E+03  0.00000000000E+00 0. -1.
<scales pt_clust_3="374.15665" pt_clust_4="60.10622" pt_clust_5="41.20079" pt_clust_6="60.10622"></scales>
<clustering>
<clus scale="   41.201">  2  5  1 -1</clus>
<clus scale="   60.106">  4  6 -1 -1</clus>
<clus scale="  374.157">  1  3  2 -1</clus>
<clus scale="  374.157">  1  3  2 -1</clus>
</clustering>
</event>
<event>
 6    0  0.5563122E+002  0.1265462E+03  0.7546771E-02  0.1232672E+00
         21   -1    0    0  505  501  0.00000000000E+00  0.00000000000E+00  0.84598671377E+03  0.84598671377E+03  0.00000000000E+00 0. -1.
         21   -1    0    0  506  502 -0.00000000000E+00 -0.00000000000E+00 -0.77775858000E+02  0.77775858000E+02  0.00000000000E+00 0. -1.
         21    1    1    2  503  502 -0.59763119938E+02  0.34466425347E+02  0.35680854800E+02  0.77670382902E+02  0.00000000000E+00 0. -1.
         21    1    1    2  504  503 -0.21696679256E+02  0.95195951537E+02  0.88252823348E+02  0.13161145812E+03  0.00000000000E+00 0. -1.
         21    1    1    2  505  504 -0.13024390855E+02 -0.10233711935E+03  0.59609676701E+03  0.60495774761E+03  0.00000000000E+00 0. -1.
         21    1    1    2  506  501  0.94484190049E+02 -0.27325257533E+02  0.48180410611E+02  0.10952298314E+03  0.00000000000E+00 0. -1.
<scales pt_clust_3="59.38697" pt_clust_4="59.38697" pt_clust_5="104.98880" pt_clust_6="98.35615"></scales>
<clustering>
<clus scale="   59.387">  3  4 -1 -1</clus>
<clus scale="   98.356">  2  6  1 -1</clus>
<clus scale="  104.989">  1  5  2 -1</clus>
<clus scale="  104.989">  1  3  2 -1</clus>
</clustering>
</event>
<event>
 6    0  0.5563122E+002  0.1394815E+03  0.7546771E-02  0.1214028E+00
         21   -1    0    0  505  501  0.00000000000E+00  0.00000000000E+00  0.59151280844E+03  0.59151280844E+03  0.00000000000E+00 0.  1.
         21   -1    0    0  506  502 -0.00000000000E+00 -0.00000000000E+00 -0.13888750027E+03  0.13888750027E+03  0.00000000000E+00 0. -1.
         21    1    1    2  503  501 -0.13482925394E+03  0.50295307150E+02  0.46275018631E+03  0.48460941032E+03  0.00000000000E+00 0.  1.
         21    1    1    2  504  502  0.42593236436E+02  0.20724920847E+02  0.21989515872E+02  0.52223030767E+02  0.00000000000E+00 0. -1.
         21    1    1    2  505  504  0.63104224279E+02 -0.18733963058E+02  0.56421862442E+02  0.86697929936E+02  0.00000000000E+00 0. -1.
         21    1    1    2  506  503  0.29131793227E+02 -0.52286264939E+02 -0.88536256445E+02  0.10686993770E+03  0.00000000000E+00 0. -1.
<scales pt_clust_3="132.21319" pt_clust_4="37.69643" pt_clust_5="37.69643" pt_clust_6="59.85411"></scales>
<clustering>
<clus scale="   37.696">  4  5 -1 -1</clus>
<clus scale="   59.854">  2  6  1 -1</clus>
<clus scale="  132.213">  1  3  2 -1</clus>
<clus scale="  132.213">  1  3  2 -1</clus>
</clustering>
</event>
<event>
 6    0  0.5563122E+002  0.1126047E+03  0.7546771E-02  0.1255821E+00
         21   -1    0    0  504  501  0.00000000000E+00  0.00000000000E+00  0.98282536834E+03  0.98282536834E+03  0.00000000000E+00 0. -1.
         21   -1    0    0  503  502 -0.00000000000E+00 -0.00000000000E+00 -0.12687287911E+03  0.12687287911E+03  0.00000000000E+00 0. -1.
         21    1    1    2  503  505 -0.66034677780E+02  0.37552572454E+02 -0.76203456286E+01  0.76346866569E+02  0.00000000000E+00 0. -1.
         21    1    1    2  504  506  0.72569718154E+02 -0.57949487426E+02  0.87182620902E+03  0.87675848774E+03  0.00000000000E+00 0. -1.
         21    1    1    2  505  501  0.11030570165E+02 -0.30945797404E+02  0.60596402156E+02  0.68929237697E+02  0.00000000000E+00 0.  1.
         21    1    1    2  506  502 -0.17565610539E+02  0.51342712377E+02 -0.68849776319E+02  0.87663655451E+02  0.00000000000E+00 0. -1.
<scales pt_clust_3="14000.00000" pt_clust_4="112.60465" pt_clust_5="32.85294" pt_clust_6="53.92780"></scales>
<clustering>
<clus scale="   32.853">  1  5  2 -1</clus>
<clus scale="   53.928">  2  6  1 -1</clus>
<clus scale="  112.605">  1  4  2 -1</clus>
<clus scale="   32.853">  1  3  2 -1</clus>
</clustering>
</event>
<event>
 6    0  0.5563122E+002  0.2124529E+03  0.7546771E-02  0.1139638E+00
         21   -1    0    0  502  501  0.00000000000E+00  0.00000000000E+00  0.46985144703E+03  0.46985144703E+03  0.00000000000E+00 0.  1.
         21   -1    0    0  503  502 -0.00000000000E+00 -0.00000000000E+00 -0.74361159552E+03  0.74361159552E+03  0.00000000000E+00 0.  1.
         21    1    1    2  503  506 -0.13325455465E+02 -0.67651326749E+02 -0.34326228083E+03  0.35011892724E+03  0.00000000000E+00 0.  1.
         21    1    1    2  504  501  0.13383223534E+03  0.66809669629E+02  0.19390044667E+03  0.24489177689E+03  0.00000000000E+00 0.  1.
         21    1    1    2  505  504  0.24657142800E+01 -0.22227805040E+03  0.13074681746E+03  0.25789211254E+03  0.00000000000E+00 0.  1.
         21    1    1    2  506  505 -0.12297249415E+03  0.22311970752E+03 -0.25514513180E+03  0.36056022587E+03  0.00000000000E+00 0.  1.
<scales pt_clust_3="68.95121" pt_clust_4="146.91654" pt_clust_5="212.45293" pt_clust_6="14000.00000"></scales>
<clustering>
<clus scale="   68.951">  2  3  1 -1</clus>
<clus scale="  146.917">  1  4  2 -1</clus>
<clus scale="  212.453">  1  5  2 -1</clus>
<clus scale="  146.917">  1  3  2 -1</clus>
</clustering>
</event>
<event>
 6    0  0.5563122E+002  0.1460220E+03  0.7546771E-02  0.1205448E+00
         21   -1    0    0  504  501  0.00000000000E+00  0.00000000000E+00  0.23308263562E+03  0.23308263562E+03  0.00000000000E+00 0.  1.
         21   -1    0    0  505  502 -0.00000000000E+00 -0.00000000000E+00 -0.32758165334E+03  0.32758165334E+03  0.00000000000E+00 0. -1.
         21    1    1    2  503  502 -0.40216602403E+02  0.24262302457E+02  0.24109384314E+02  0.52794856202E+02  0.00000000000E+00 0.  1.
         21    1    1    2  504  503 -0.53985266907E+02  0.37514448720E+02  0.10008290054E+03  0.11974276549E+03  0.00000000000E+00 0.  1.
         21    1    1    2  505  506  0.48433819559E+02 -0.13851850246E+03 -0.25294853378E+03  0.29243148110E+03  0.00000000000E+00 0. -1.
         21    1    1    2  506  501  0.45768049751E+02  0.76741751278E+02  0.34257231205E+02  0.95695186175E+02  0.00000000000E+00 0.  1.
<scales pt_clust_3="34.38799" pt_clust_4="34.38799" pt_clust_5="140.24002" pt_clust_6="89.35329"></scales>
<clustering>
<clus scale="   34.388">  3  4 -1 -1</clus>
<clus scale="   89.353">  1  6  2 -1</clus>
<clus scale="  140.240">  2  5  1 -1</clus>
<clus scale="   89.353">  1  3  2 -1</clus>
</clustering>
</event>
<event>
 6    0  0.5563122E+002  0.2234546E+03  0.7546771E-02  0.1131333E+00
         21   -1    0    0  503  501  0.00000000000E+00  0.00000000000E+00  0.16091962183E+03  0.16091962183E+03  0.00000000000E+00 0. -1.
         21   -1    0    0  504  502 -0.00000000000E+00 -0.00000000000E+00 -0.14106184826E+04  0.14106184826E+04  0.00000000000E+00 0. -1.
         21    1    1    2  503  506  0.22850250026E+02 -0.31522091965E+02  0.76549727032E+02  0.85881528380E+02  0.00000000000E+00 0. -1.
         21    1    1    2  504  501 -0.15016276272E+03  0.23873337746E+03 -0.89235413348E+03  0.93586237255E+03  0.00000000000E+00 0. -1.
         21    1    1    2  505  502  0.33635861724E+02 -0.48069640850E+02 -0.33542144834E+03  0.34051374359E+03  0.00000000000E+00 0. -1.
         21    1    1    2  506  505  0.93676650972E+02 -0.15914164465E+03 -0.98473006019E+02  0.20928045994E+03  0.00000000000E+00 0. -1.
<scales pt_clust_3="38.93297" pt_clust_4="14000.00000" pt_clust_5="59.91263" pt_clust_6="223.45459"></scales>
<clustering>
<clus scale="   38.933">  1  3  2 -1</clus>
<clus scale="   59.913">  2  5  1 -1</clus>
<clus scale="  223.455">  1  6  2 -1</clus>
<clus scale="   38.933">  1  3  2 -1</clus>
</clustering>
</event>
<event>
 6    0  0.5563122E+002  0.2149469E+03  0.7546771E-02  0.1137707E+00
         21   -1    0    0  504  501  0.00000000000E+00  0.00000000000E+00  0.15851493102E+03  0.15851493102E+03  0.00000000000E+00 0. -1.
         21   -1    0    0  506  502 -0.00000000000E+00 -0.00000000000E+00 -0.13948901278E+04  0.13948901278E+04  0.00000000000E+00 0. -1.
         21    1    1    2  503  502 -0.86962497967E+02  0.19167452340E+03 -0.12583819266E+04  0.12758631087E+04  0.00000000000E+00 0. -1.
         21    1    1    2  504  505  0.87990803765E+01 -0.74935679888E+02  0.59555207832E+02  0.96122852203E+02  0.00000000000E+00 0. -1.
         21    1    1    2  505  503  0.27888517484E+02 -0.10064477595E+03  0.16656219247E+02  0.10575712729E+03  0.00000000000E+00 0. -1.
         21    1    1    2  506  501  0.50274900107E+02 -0.16094067561E+02 -0.54204697248E+02  0.75661970601E+02  0.00000000000E+00 0.  1.
<scales pt_clust_3="208.39697" pt_clust_4="44.75772" pt_clust_5="44.75772" pt_clust_6="52.78811"></scales>
<clustering>
<clus scale="   44.758">  4  5 -1 -1</clus>
<clus scale="   52.788">  1  6  2 -1</clus>
<clus scale="  208.397">  2  3  1 -1</clus>
<clus scale="   52.788">  1  3  2 -1</clus>
</clustering>
</event>
<event>
 6    0  0.5563122E+002  0.1223216E+03  0.7546771E-02  0.1239316E+00
         21   -1    0    0  506  501  0.00000000000E+00  0.00000000000E+00  0.35722377090E+03  0.35722377090E+03  0.00000000000E+00 0. -1.
         21   -1    0    0  505  502 -0.00000000000E+00 -0.00000000000E+00 -0.37279499060E+03  0.37279499060E+03  0.00000000000E+00 0.  1.
         21    1    1    2  503  502 -0.63479057674E+01  0.39530301029E+02  0.79667887364E+01  0.40821689453E+02  0.00000000000E+00 0.  1.
         21    1    1    2  504  501  0.88874153564E+02 -0.68929510743E+02 -0.76994612805E+02  0.13630136839E+03  0.00000000000E+00 0.  1.
         21    1    1    2  505  504  0.33871629929E+02 -0.13538776732E+02 -0.23556434397E+03  0.23837186483E+03  0.00000000000E+00 0.  1.
         21    1    1    2  506  503 -0.11639787773E+03  0.42937986446E+02  0.28902094834E+03  0.31452383884E+03  0.00000000000E+00 0. -1.
<scales pt_clust_3="37.95969" pt_clust_4="14000.00000" pt_clust_5="36.47720" pt_clust_6="122.32158"></scales>
<clustering>
<clus scale="   36.477">  2  5  1 -1</clus>
<clus scale="   37.960">  2  3  1 -1</clus>
<clus scale="  122.322">  1  6  2 -1</clus>
<clus scale="  122.322">  1  3  2 -1</clus>
</clustering>
</event>
<event>
 6    0  0.5563122E+002  0.1119764E+03  0.7546771E-02  0.1256953E+00
         21   -1    0    0  505  501  0.00000000000E+00  0.00000000000E+00  0.17633871627E+03  0.17633871627E+03  0.00000000000E+00 0.  1.
         21   -1    0    0  503  502 -0.00000000000E+00 -0.00000000000E+00 -0.23427990255E+03  0.23427990255E+03  0.00000000000E+00 0.  1.
         21    1    1    2  503  506  0.51164812637E+02  0.60095039874E+02 -0.25665781758E+02  0.82993880635E+02  0.00000000000E+00 0.  1.
         21    1    1    2  504  502 -0.70431939731E+02  0.78844382241E+01 -0.12313372815E+03  0.14207300064E+03  0.00000000000E+00 0.  1.
         21    1    1    2  505  504 -0.39054130690E+02 -0.85106272967E+02  0.81325478626E+02  0.12402474066E+03  0.00000000000E+00 0.  1.
         21    1    1    2  506  501  0.58321257784E+02  0.17126794869E+02  0.95328450127E+01  0.61526996888E+02  0.00000000000E+00 0.  1.
<scales pt_clust_3="45.39378" pt_clust_4="70.87187" pt_clust_5="99.31319" pt_clust_6="45.39378"></scales>
<clustering>
<clus scale="   45.394">  3  6 -1 -1</clus>
<clus scale="   70.872">  2  4  1 -1</clus>
<clus scale="   99.313">  1  5  2 -1</clus>
<clus scale="   99.313">  1  3  2 -1</clus>
</clustering>
</event>
<event>
 6    0  0.5563122E+002  0.9163030E+02  0.7546771E-02  0.1298951E+00
         21   -1    0    0  505  501  0.00000000000E+00  0.00000000000E+00  0.72052059320E+02  0.72052059320E+02  0.00000000000E+00 0.  1.
         21   -1    0    0  503  502 -0.00000000000E+00 -0.00000000000E+00 -0.18048324859E+04  0.18048324859E+04  0.00000000000E+00 0.  1.
         21    1    1    2  503  501  0.50773415576E+01 -0.41256730994E+02  0.11710759410E+02  0.43186098870E+02  0.00000000000E+00 0.  1.
         21    1    1    2  504  502 -0.95396800152E+00 -0.49237928441E+02 -0.15515596085E+04  0.15523409749E+04  0.00000000000E+00 0.  1.
         21    1    1    2  505  506  0.75885685080E+02  0.97612779693E+02 -0.10445044416E+03  0.16185421602E+03  0.00000000000E+00 0.  1.
         21    1    1    2  506  504 -0.80009058636E+02 -0.71181202571E+01 -0.88481133334E+02  0.11950325542E+03  0.00000000000E+00 0.  1.
<scales pt_clust_3="41.56798" pt_clust_4="49.60763" pt_clust_5="14000.00000" pt_clust_6="91.63030"></scales>
<clustering>
<clus scale="   41.568">  1  3  2 -1</clus>
<clus scale="   49.608">  2  4  1 -1</clus>
<clus scale="   91.630">  2  6  1 -1</clus>
<clus scale="   41.568">  1  3  2 -1</clus>
</clustering>
</event>
<event>
 6    0  0.5563122E+002  0.1478148E+03  0.7546771E-02  0.1203184E+00
         21   -1    0    0  505  501  0.00000000000E+00  0.00000000000E+00  0.25521460615E+03  0.25521460615E+03  0.00000000000E+00 0.  1.
         21   -1    0    0  504  502 -0.00000000000E+00 -0.00000000000E+00 -0.20549872173E+04  0.20549872173E+04  0.00000000000E+00 0. -1.
         21    1    1    2  503  506 -0.14700577963E+02 -0.90894014648E+02 -0.91102958578E+03  0.91567064770E+03  0.00000000000E+00 0.  1.
         21    1    1    2  504  501  0.34822927670E+02  0.13552139450E+03  0.22862093978E+03  0.26804144971E+03  0.00000000000E+00 0.  1.
         21    1    1    2  505  503 -0.25960666699E+02 -0.87653330337E+02 -0.55758352712E+03  0.56502783316E+03  0.00000000000E+00 0. -1.
         21    1    1    2  506  502  0.58383169928E+01  0.43025950484E+02 -0.55978043803E+03  0.56146189289E+03  0.00000000000E+00 0. -1.
<scales pt_clust_3="42.85666" pt_clust_4="140.49268" pt_clust_5="42.85666" pt_clust_6="43.42025"></scales>
<clustering>
<clus scale="   43.420">  2  6  1 -1</clus>
<clus scale="   42.857">  3  5 -1 -1</clus>
<clus scale="  140.493">  1  4  2 -1</clus>
<clus scale="  140.493">  1  3  2 -1</clus>
</clustering>
</event>
<event>
 6    0  0.5563122E+002  0.8175772E+02  0.7546771E-02  0.1324136E+00
         21   -1    0    0  503  501  0.00000000000E+00  0.00000000000E+00  0.27922618500E+03  0.27922618500E+03  0.00000000000E+00 0. -1.
         21   -1    0    0  505  502 -0.00000000000E+00 -0.00000000000E+00 -0.93170355367E+02  0.93170355367E+02  0.00000000000E+00 0.  1.
         21    1    1    2  503  504  0.24733933473E+02 -0.21689099229E+02  0.31163269984E+02  0.45313727352E+02  0.00000000000E+00 0. -1.
         21    1    1    2  504  502 -0.11858286987E+02 -0.79740096727E+02  0.40733067830E+01  0.80719847772E+02  0.00000000000E+00 0.  1.
         21    1    1    2  505  506 -0.60597706839E+02  0.79397006133E+02  0.15348116603E+02  0.10105212190E+03  0.00000000000E+00 0.  1.
         21    1    1    2  506  501  0.47722060352E+02  0.22032189822E+02  0.13547113626E+03  0.14531084334E+03  0.00000000000E+00 0. -1.
<scales pt_clust_3="32.89657" pt_clust_4="81.75772" pt_clust_5="14000.00000" pt_clust_6="62.83777"></scales>
<clustering>
<clus scale="   32.897">  1  3  2 -1</clus>
<clus scale="   62.838">  1  6  2 -1</clus>
<clus scale="   81.758">  2  4  1 -1</clus>
<clus scale="   32.897">  1  3  2 -1</clus>
</clustering>
</event>
<event>
 6    0  0.5563122E+002  0.1033323E+03  0.7546771E-02  0.1273441E+00
         21   -1    0    0  506  501  0.00000000000E+00  0.00000000000E+00  0.10451361971E+04  0.10451361971E+04  0.00000000000E+00 0.  1.
         21   -1    0    0  505  502 -0.00000000000E+00 -0.00000000000E+00 -0.16233287988E+03  0.16233287988E+03  0.00000000000E+00 0.  1.
         21    1    1    2  503  501 -0.28041465535E+02 -0.35407831640E+02  0.36059301718E+03  0.36341073508E+03  0.00000000000E+00 0. -1.
         21    1    1    2  504  503  0.20575907853E+02 -0.10106507707E+03  0.60835200972E+03  0.61703296955E+03  0.00000000000E+00 0.  1.
         21    1    1    2  505  504  0.11125145235E+02  0.10287506717E+03 -0.13346154302E+03  0.16887578798E+03  0.00000000000E+00 0.  1.
         21    1    1    2  506  502 -0.36595875531E+01  0.33597841540E+02  0.47319833385E+02  0.58149584425E+02  0.00000000000E+00 0. -1.
<scales pt_clust_3="37.40318" pt_clust_4="103.33233" pt_clust_5="14000.00000" pt_clust_6="33.79656"></scales>
<clustering>
<clus scale="   33.797">  1  6  2 -1</clus>
<clus scale="   37.403">  1  3  2 -1</clus>
<clus scale="  103.332">  1  4  2 -1</clus>
<clus scale="   33.797">  1  3  2 -1</clus>
</clustering>
</event>
<event>
 6    0  0.5563122E+002  0.8036868E+02  0.7546771E-02  0.1328008E+00
         21   -1    0    0  503  501  0.00000000000E+00  0.00000000000E+00  0.57884487625E+03  0.57884487625E+03  0.00000000000E+00 0.  1.
         21   -1    0    0  504  502 -0.00000000000E+00 -0.00000000000E+00 -0.28214641704E+03  0.28214641704E+03  0.00000000000E+00 0. -1.
         21    1    1    2  503  506  0.44157091904E+02 -0.29082330941E+02  0.90015576990E+02  0.10439556906E+03  0.00000000000E+00 0.  1.
         21    1    1    2  504  505 -0.58216891410E+02 -0.69914128016E+02  0.27489838292E+03  0.28956227771E+03  0.00000000000E+00 0.  1.
         21    1    1    2  505  501 -0.30769406179E+02  0.32555121460E+02  0.19075465891E+03  0.19594369647E+03  0.00000000000E+00 0.  1.
         21    1    1    2  506  502  0.44829205685E+02  0.66441337497E+02 -0.25897015961E+03  0.27108975005E+03  0.00000000000E+00 0. -1.
<scales pt_clust_3="41.95874" pt_clust_4="14000.00000" pt_clust_5="44.79500" pt_clust_6="80.36868"></scales>
<clustering>
<clus scale="   44.795">  1  5  2 -1</clus>
<clus scale="   41.959">  1  3  2 -1</clus>
<clus scale="   80.369">  2  6  1 -1</clus>
<clus scale="   44.795">  1  3  2 -1</clus>
</clustering>
</event>
<event>
 6    0  0.5563122E+002  0.1232981E+03  0.7546771E-02  0.1237753E+00
         21   -1    0    0  506  501  0.00000000000E+00  0.00000000000E+00  0.46221608042E+03  0.46221608042E+03  0.00000000000E+00 0.  1.
         21   -1    0    0  503  502 -0.00000000000E+00 -0.00000000000E+00 -0.18841996991E+03  0.18841996991E+03  0.00000000000E+00 0.  1.
         21    1    1    2  503  505 -0.84437247268E+02 -0.74417035670E+02  0.89124136405E+02  0.14356411674E+03  0.00000000000E+00 0. -1.
         21    1    1    2  504  501  0.62414706430E+02 -0.20950804595E+02  0.19077070391E+03  0.20181177682E+03  0.00000000000E+00 0.  1.
         21    1    1    2  505  504  0.50147415795E+02  0.34038166503E+02  0.13548401028E+03  0.14842263012E+03  0.00000000000E+00 0.  1.
         21    1    1    2  506  502 -0.28124874957E+02  0.61329673762E+02 -0.14158274009E+03  0.15683752666E+03  0.00000000000E+00 0.  1.
<scales pt_clust_3="108.72874" pt_clust_4="55.78536" pt_clust_5="55.78536" pt_clust_6="67.47101"></scales>
<clustering>
<clus scale="   55.785">  4  5 -1 -1</clus>
<clus scale="   67.471">  2  6  1 -1</clus>
<clus scale="  108.729">  2  3  1 -1</clus>
<clus scale="  123.298">  1  3  2 -1</clus>
</clustering>
</event>
<event>
 6    0  0.5563122E+002  0.9436704E+02  0.7546771E-02  0.1292608E+00
         21   -1    0    0  503  501  0.00000000000E+00  0.00000000000E+00  0.12017351778E+04  0.12017351778E+04  0.00000000000E+00 0.  1.
         21   -1    0    0  506  502 -0.00000000000E+00 -0.00000000000E+00 -0.42002385608E+03  0.42002385608E+03  0.00000000000E+00 0.  1.
         21    1    1    2  503  502  0.71894289757E-01 -0.39920424556E+02 -0.57960091749E+02  0.70377678997E+02  0.00000000000E+00 0.  1.
         21    1    1    2  504  501 -0.86946436831E+02 -0.34318093100E+02  0.11369813410E+04  0.11408172440E+04  0.00000000000E+00 0.  1.
         21    1    1    2  505  504  0.11424683771E+03  0.10250436330E+03 -0.51912268440E+02  0.16203199696E+03  0.00000000000E+00 0. -1.
         21    1    1    2  506  505 -0.27372295173E+02 -0.28265845644E+02 -0.24539765910E+03  0.24853211395E+03  0.00000000000E+00 0.  1.
<scales pt_clust_3="51.39879" pt_clust_4="94.36704" pt_clust_5="14000.00000" pt_clust_6="39.34718"></scales>
<clustering>
<clus scale="   39.347">  2  6  1 -1</clus>
<clus scale="   51.399">  2  3  1 -1</clus>
<clus scale="   94.367">  1  4  2 -1</clus>
<clus scale="   94.367">  1  3  2 -1</clus>
</clustering>
</event>
<event>
 6    0  0.5563122E+002  0.5822078E+02  0.7546771E-02  0.1405454E+00
         21   -1    0    0  506  501  0.00000000000E+00  0.00000000000E+00  0.84392065089E+03  0.84392065089E+03  0.00000000000E+00 0. -1.
         21   -1    0    0  505  502 -0.00000000000E+00 -0.00000000000E+00 -0.30891308413E+03  0.30891308413E+03  0.00000000000E+00 0.  1.
         21    1    1    2  503  501 -0.56363097201E+02  0.11389912991E+02  0.76198388699E+03  0.76415049099E+03  0.00000000000E+00 0. -1.
         21    1    1    2  504  502  0.13831803878E+02  0.39357931349E+02 -0.22680436214E+03  0.23060915906E+03  0.00000000000E+00 0.  1.
         21    1    1    2  505  503  0.92302009576E+02 -0.44130289094E+02 -0.19723556530E+02  0.10419290796E+03  0.00000000000E+00 0. -1.
         21    1    1    2  506  504 -0.49770716253E+02 -0.66175552468E+01  0.19551598438E+02  0.53881177003E+02  0.00000000000E+00 0. -1.
<scales pt_clust_3="14000.00000" pt_clust_4="41.71769" pt_clust_5="58.22078" pt_clust_6="46.84540"></scales>
<clustering>
<clus scale="   41.718">  2  4  1 -1</clus>
<clus scale="   46.845">  2  6  1 -1</clus>
<clus scale="   58.221">  2  5  1 -1</clus>
<clus scale="   58.221">  1  3  2 -1</clus>
</clustering>
</event>
<event>
 6    0  0.5563122E+002  0.2103486E+03  0.7546771E-02  0.1141290E+00
         21   -1    0    0  503  501  0.00000000000E+00  0.00000000000E+00  0.85996969066E+03  0.85996969066E+03  0.00000000000E+00 0. -1.
         21   -1    0    0  504  502 -0.00000000000E+00 -0.00000000000E+00 -0.29329698089E+03  0.29329698089E+03  0.00000000000E+00 0. -1.
         21    1    1    2  503  502 -0.11937708363E+03 -0.14856134043E+03 -0.25068917490E+02  0.19222333519E+03  0.00000000000E+00 0.  1.
         21    1    1    2  504  506 -0.59166038835E+02  0.25834924652E+02 -0.15372109159E+03  0.16672803448E+03  0.00000000000E+00 0. -1.
         21    1    1    2  505  501 -0.21959042451E+02  0.33240704250E+02  0.23913414867E+03  0.24242995901E+03  0.00000000000E+00 0.  1.
         21    1    1    2  506  505  0.20050216492E+03  0.89485711530E+02  0.50632857018E+03  0.55188534288E+03  0.00000000000E+00 0. -1.
<scales pt_clust_3="14000.00000" pt_clust_4="64.91202" pt_clust_5="39.83898" pt_clust_6="210.34860"></scales>
<clustering>
<clus scale="   39.839">  1  5  2 -1</clus>
<clus scale="   64.912">  2  4  1 -1</clus>
<clus scale="  210.349">  1  6  2 -1</clus>
<clus scale="   39.839">  1  3  2 -1</clus>
</clustering>
</event>
<event>
 6    0  0.5563122E+002  0.8535265E+02  0.7546771E-02  0.1314513E+00
         21   -1    0    0  506  501  0.00000000000E+00  0.00000000000E+00  0.33845710308E+03  0.33845710308E+03  0.00000000000E+00 0.  1.
         21   -1    0    0  504  502 -0.00000000000E+00 -0.00000000000E+00 -0.69637859557E+03  0.69637859557E+03  0.00000000000E+00 0.  1.
         21    1    1    2  503  505  0.61909581795E+02 -0.12732412374E+02 -0.41477014820E+02  0.75599294979E+02  0.00000000000E+00 0. -1.
         21    1    1    2  504  501 -0.69448115252E+02  0.19527989258E+02 -0.56065080840E+03  0.56527313047E+03  0.00000000000E+00 0.  1.
         21    1    1    2  505  502  0.43191863628E+02 -0.45311065573E+02 -0.59135741214E+02  0.86114259190E+02  0.00000000000E+00 0. -1.
         21    1    1    2  506  503 -0.35653330171E+02  0.38515488689E+02  0.30334207194E+03  0.30784901401E+03  0.00000000000E+00 0.  1.
<scales pt_clust_3="39.96891" pt_clust_4="75.31326" pt_clust_5="39.96891" pt_clust_6="52.48431"></scales>
<clustering>
<clus scale="   39.969">  3  5 -1 -1</clus>
<clus scale="   52.484">  1  6  2 -1</clus>
<clus scale="   75.313">  2  4  1 -1</clus>
<clus scale="   52.484">  1  3  2 -1</clus>
</clustering>
</event>
<event>
 6    0  0.5563122E+002  0.7244443E+02  0.7546771E-02  0.1351973E+00
         21   -1    0    0  506  501  0.00000000000E+00  0.00000000000E+00  0.30534266884E+03  0.30534266884E+03  0.00000000000E+00 0.  1.
         21   -1    0    0  503  502 -0.00000000000E+00 -0.00000000000E+00 -0.48631821180E+03  0.48631821180E+03  0.00000000000E+00 0. -1.
         21    1    1    2  503  505  0.22391053788E+02  0.32349031224E+02 -0.12346625251E+03  0.12958292565E+03  0.00000000000E+00 0. -1.
         21    1    1    2  504  502 -0.62351832855E+02 -0.71718937933E+02 -0.25140612763E+03  0.26876829823E+03  0.00000000000E+00 0. -1.
         21    1    1    2  505  501  0.81004458652E+02  0.29291290820E+02 -0.79168581135E+02  0.11699301808E+03  0.00000000000E+00 0. -1.
         21    1    1    2  506  504 -0.41043679586E+02  0.10078615889E+02  0.27306541833E+03  0.27631663869E+03  0.00000000000E+00 0.  1.
<scales pt_clust_3="39.34233" pt_clust_4="72.44443" pt_clust_5="14000.00000" pt_clust_6="42.19995"></scales>
<clustering>
<clus scale="   39.342">  2  3  1 -1</clus>
<clus scale="   42.200">  1  6  2 -1</clus>
<clus scale="   72.444">  2  4  1 -1</clus>
<clus scale="   42.200">  1  3  2 -1</clus>
</clustering>
</event>
<event>
 6    0  0.5563122E+002  0.1180149E+03  0.7546771E-02  0.1246408E+00
         21   -1    0    0  503  501  0.00000000000E+00  0.00000000000E+00  0.98820924289E+02  0.98820924289E+02  0.00000000000E+00 0.  1.
         21   -1    0    0  505  502 -0.00000000000E+00 -0.00000000000E+00 -0.96458903932E+03  0.96458903932E+03  0.00000000000E+00 0.  1.
         21    1    1    2  503  504 -0.44007639533E+02  0.73515984051E+01 -0.23233521255E+01  0.44677917380E+02  0.00000000000E+00 0.  1.
         21    1    1    2  504  506 -0.13405804909E+02  0.52833878358E+02 -0.25507041302E+02  0.60180922755E+02  0.00000000000E+00 0.  1.
         21    1    1    2  505  501  0.89283924146E+02 -0.82754629267E+02 -0.20528798503E+01  0.12175451569E+03  0.00000000000E+00 0.  1.
         21    1    1    2  506  502 -0.31870479704E+02  0.22569152504E+02 -0.83588484175E+03  0.83679660778E+03  0.00000000000E+00 0.  1.
<scales pt_clust_3="50.98322" pt_clust_4="50.98322" pt_clust_5="103.07889" pt_clust_6="39.05245"></scales>
<clustering>
<clus scale="   39.052">  2  6  1 -1</clus>
<clus scale="   50.983">  3  4 -1 -1</clus>
<clus scale="  103.079">  2  5  1 -1</clus>
<clus scale="  118.015">  1  3  2 -1</clus>
</clustering>
</event>
<event>
 6    0  0.5563122E+002  0.2973446E+03  0.7546771E-02  0.1086576E+00
         21   -1    0    0  503  501  0.00000000000E+00  0.00000000000E+00  0.36163755079E+03  0.36163755079E+03  0.00000000000E+00 0. -1.
         21   -1    0    0  505  502 -0.00000000000E+00 -0.00000000000E+00 -0.98476488844E+03  0.98476488844E+03  0.00000000000E+00 0. -1.
         21    1    1    2  503  504 -0.50601471976E+02  0.27668064224E+03  0.14538965175E+03  0.31662412667E+03  0.00000000000E+00 0. -1.
         21    1    1    2  504  502  0.64641921562E+02 -0.30876200522E+03 -0.94515892855E+02  0.32931111109E+03  0.00000000000E+00 0. -1.
         21    1    1    2  505  506 -0.41722176908E+02  0.12879285502E+02 -0.66384561951E+03  0.66528010836E+03  0.00000000000E+00 0. -1.
         21    1    1    2  506  501  0.27681727321E+02  0.19202077475E+02 -0.10155477033E+02  0.35187093097E+02  0.00000000000E+00 0. -1.
<scales pt_clust_3="297.34458" pt_clust_4="14000.00000" pt_clust_5="43.62214" pt_clust_6="33.68973"></scales>
<clustering>
<clus scale="   33.690">  1  6  2 -1</clus>
<clus scale="   43.622">  2  5  1 -1</clus>
<clus scale="  297.345">  1  3  2 -1</clus>
<clus scale="   33.690">  1  3  2 -1</clus>
</clustering>
</event>
<event>
 6    0  0.5563122E+002  0.1368268E+03  0.7546771E-02  0.1217664E+00
         21   -1    0    0  504  501  0.00000000000E+00  0.00000000000E+00  0.17237107818E+04  0.17237107818E+04  0.00000000000E+00 0.  1.
         21   -1    0    0  505  502 -0.00000000000E+00 -0.00000000000E+00 -0.71988121501E+02  0.71988121501E+02  0.00000000000E+00 0.  1.
         21    1    1    2  503  506  0.15347426842E+02 -0.24033797740E+03  0.70083936824E+03  0.74106255267E+03  0.00000000000E+00 0.  1.
         21    1    1    2  504  502 -0.42356730680E+02  0.54449396097E+02  0.14029936807E+03  0.15634174763E+03  0.00000000000E+00 0.  1.
         21    1    1    2  505  503  0.49770636880E+02  0.72477467752E+02  0.89693932032E+01  0.88377314067E+02  0.00000000000E+00 0.  1.
         21    1    1    2  506  501 -0.22761333042E+02  0.11341111355E+03  0.80161453081E+03  0.80991728896E+03  0.00000000000E+00 0.  1.
<scales pt_clust_3="136.82681" pt_clust_4="68.98427" pt_clust_5="108.83686" pt_clust_6="14000.00000"></scales>
<clustering>
<clus scale="   68.984">  2  4  1 -1</clus>
<clus scale="  108.837">  2  5  1 -1</clus>
<clus scale="  136.827">  2  3  1 -1</clus>
<clus scale="  136.827">  1  3  2 -1</clus>
</clustering>
</event>
<event>
 6    0  0.5563122E+002  0.7979404E+02  0.7546771E-02  0.1329637E+00
         21   -1    0    0  506  501  0.00000000000E+00  0.00000000000E+00  0.18320039834E+03  0.18320039834E+03  0.00000000000E+00 0.  1.
         21   -1    0    0  505  502 -0.00000000000E+00 -0.00000000000E+00 -0.81925846316E+03  0.81925846316E+03  0.00000000000E+00 0. -1.
         21    1    1    2  503  502 -0.29599288365E+02 -0.49935219506E+02 -0.74745710701E+03  0.74970779030E+03  0.00000000000E+00 0. -1.
         21    1    1    2  504  503 -0.69443030168E+02  0.37737376557E+02  0.10685926595E+02  0.79753577070E+02  0.00000000000E+00 0.  1.
         21    1    1    2  505  501  0.30495169510E+02  0.41023420548E+02  0.43817118548E+01  0.51303760054E+02  0.00000000000E+00 0.  1.
         21    1    1    2  506  504  0.68547149023E+02 -0.28825577598E+02  0.96331403743E+02  0.12169373406E+03  0.00000000000E+00 0.  1.
<scales pt_clust_3="57.68039" pt_clust_4="79.79404" pt_clust_5="51.11630" pt_clust_6="14000.00000"></scales>
<clustering>
<clus scale="   51.116">  1  5  2 -1</clus>
<clus scale="   57.680">  2  3  1 -1</clus>
<clus scale="   79.794">  2  4  1 -1</clus>
<clus scale="   51.116">  1  3  2 -1</clus>
</clustering>
</event>
<event>
 6    0  0.5563122E+002  0.1838477E+03  0.7546771E-02  0.1164130E+00
         21   -1    0    0  504  501  0.00000000000E+00  0.00000000000E+00  0.40260644561E+03  0.40260644561E+03  0.00000000000E+00 0. -1.
         21   -1    0    0  503  502 -0.00000000000E+00 -0.00000000000E+00 -0.34925698832E+03  0.34925698832E+03  0.00000000000E+00 0. -1.
         21    1    1    2  503  506 -0.16286819343E+03 -0.84097405393E+02 -0.24862722839E+03  0.30889143840E+03  0.00000000000E+00 0. -1.
         21    1    1    2  504  505  0.67791415351E+02  0.23500317955E+02  0.12682706396E+01  0.71760361270E+02  0.00000000000E+00 0. -1.
         21    1    1    2  505  502  0.99483143200E+02  0.19230922354E+02  0.42839686100E+02  0.11000892173E+03  0.00000000000E+00 0. -1.
         21    1    1    2  506  501 -0.44063651231E+01  0.41366165083E+02  0.25786872894E+03  0.26120271253E+03  0.00000000000E+00 0. -1.
<scales pt_clust_3="180.31124" pt_clust_4="30.19803" pt_clust_5="30.19803" pt_clust_6="41.60019"></scales>
<clustering>
<clus scale="   30.198">  4  5 -1 -1</clus>
<clus scale="   41.600">  1  6  2 -1</clus>
<clus scale="  180.311">  2  3  1 -1</clus>
<clus scale="   41.600">  1  3  2 -1</clus>
</clustering>
</event>
<event>
 6    0  0.5563122E+002  0.1447430E+03  0.7546771E-02  0.1207086E+00
         21   -1    0    0  503  501  0.00000000000E+00  0.00000000000E+00  0.25478859827E+04  0.25478859827E+04  0.00000000000E+00 0. -1.
         21   -1    0    0  505  502 -0.00000000000E+00 -0.00000000000E+00 -0.15672439155E+02  0.15672439155E+02  0.00000000000E+00 0.  1.
         21    1    1    2  503  506  0.91559682139E+02  0.31020188184E+02  0.27603182616E+03  0.29247050539E+03  0.00000000000E+00 0.  1.
         21    1    1    2  504  501 -0.51500916026E+02  0.16853351989E+01  0.10861849898E+04  0.10874065554E+04  0.00000000000E+00 0. -1.
         21    1    1    2  505  504 -0.84561125797E+02 -0.17120993943E+02  0.10661010854E+04  0.10695864793E+04  0.00000000000E+00 0. -1.
         21    1    1    2  506  502  0.44502359684E+02 -0.15584529439E+02  0.10389564226E+03  0.11409488182E+03  0.00000000000E+00 0.  1.
<scales pt_clust_3="32.75315" pt_clust_4="30.25320" pt_clust_5="142.42051" pt_clust_6="32.75315"></scales>
<clustering>
<clus scale="   30.253">  4  5 -1 -1</clus>
<clus scale="   32.753">  3  6 -1 -1</clus>
<clus scale="  142.421">  1  4  2 -1</clus>
<clus scale="  142.421">  1  3  2 -1</clus>
</clustering>
</event>
<event>
 6    0  0.5563122E+002  0.1621245E+03  0.7546771E-02  0.1186319E+00
         21   -1    0    0  505  501  0.00000000000E+00  0.00000000000E+00  0.36086943699E+04  0.36086943699E+04  0.00000000000E+00 0. -1.
         21   -1    0    0  504  502 -0.00000000000E+00 -0.00000000000E+00 -0.10741754504E+03  0.10741754504E+03  0.00000000000E+00 0.  1.
         21    1    1    2  503  502 -0.34438591083E+02 -0.60217848306E+02  0.55199464408E+02  0.88652054017E+02  0.00000000000E+00 0.  1.
         21    1    1    2  504  506  0.10835957609E+02  0.10279918452E+03  0.43950576068E+02  0.11232427811E+03  0.00000000000E+00 0.  1.
         21    1    1    2  505  503  0.70776306670E+02 -0.15583355563E+03  0.76881194986E+02  0.18762755872E+03  0.00000000000E+00 0.  1.
         21    1    1    2  506  501 -0.47173673196E+02  0.11325221942E+03  0.33252455894E+04  0.33275080241E+04  0.00000000000E+00 0. -1.
<scales pt_clust_3="66.42591" pt_clust_4="103.36871" pt_clust_5="66.42591" pt_clust_6="124.08812"></scales>
<clustering>
<clus scale="   66.426">  3  5 -1 -1</clus>
<clus scale="  103.369">  2  4  1 -1</clus>
<clus scale="  124.088">  1  6  2 -1</clus>
<clus scale="  124.088">  1  3  2 -1</clus>
</clustering>
</event>
<event>
 6    0  0.5563122E+002  0.2591306E+03  0.7546771E-02  0.1107667E+00
         21   -1    0    0  503  501  0.00000000000E+00  0.00000000000E+00  0.72147949889E+02  0.72147949889E+02  0.00000000000E+00 0. -1.
         21   -1    0    0  505  502 -0.00000000000E+00 -0.00000000000E+00 -0.14186873468E+04  0.14186873468E+04  0.00000000000E+00 0. -1.
         21    1    1    2  503  502 -0.46090713235E+02 -0.57352906719E+02 -0.14443901655E+03  0.16209978179E+03  0.00000000000E+00 0. -1.
         21    1    1    2  504  501 -0.20611031555E+03  0.90571968957E+02 -0.23710813056E+03  0.32696331494E+03  0.00000000000E+00 0. -1.
         21    1    1    2  505  506  0.17702245043E+03 -0.59528488485E+02 -0.73587573155E+03  0.75920595439E+03  0.00000000000E+00 0. -1.
         21    1    1    2  506  504  0.75178578354E+02  0.26309426247E+02 -0.22911651825E+03  0.24256624556E+03  0.00000000000E+00 0. -1.
<scales pt_clust_3="73.57792" pt_clust_4="243.96723" pt_clust_5="57.03853" pt_clust_6="57.03853"></scales>
<clustering>
<clus scale="   57.039">  5  6 -1 -1</clus>
<clus scale="   73.578">  1  3  2 -1</clus>
<clus scale="  243.967">  1  4  2 -1</clus>
<clus scale="   73.578">  1  3  2 -1</clus>
</clustering>
</event>
<event>
 6    0  0.5563122E+002  0.1158976E+03  0.7546771E-02  0.1250022E+00
         21   -1    0    0  505  501  0.00000000000E+00  0.00000000000E+00  0.19592616912E+03  0.19592616912E+03  0.00000000000E+00 0.  1.
         21   -1    0    0  503  502 -0.00000000000E+00 -0.00000000000E+00 -0.33943710279E+03  0.33943710279E+03  0.00000000000E+00 0.  1.
         21    1    1    2  503  504 -0.96850042396E+01  0.29327765298E+02 -0.33726824337E+02  0.45731999785E+02  0.00000000000E+00 0. -1.
         21    1    1    2  504  501  0.10660895860E+03  0.50595272251E+02  0.15006141790E+03  0.19090254260E+03  0.00000000000E+00 0.  1.
         21    1    1    2  505  506 -0.93183235786E+02 -0.31936038892E+02 -0.16008000003E+03  0.18795912434E+03  0.00000000000E+00 0.  1.
         21    1    1    2  506  502 -0.37407185749E+01 -0.47986998657E+02 -0.99765527196E+02  0.11076960518E+03  0.00000000000E+00 0.  1.
<scales pt_clust_3="30.88555" pt_clust_4="14000.00000" pt_clust_5="115.89757" pt_clust_6="38.35695"></scales>
<clustering>
<clus scale="   30.886">  2  3  1 -1</clus>
<clus scale="   38.357">  2  6  1 -1</clus>
<clus scale="  115.898">  2  5  1 -1</clus>
<clus scale="  115.898">  1  3  2 -1</clus>
</clustering>
</event>
<event>
 6    0  0.5563122E+002  0.1573099E+03  0.7546771E-02  0.1191768E+00
         21   -1    0    0  504  501  0.00000000000E+00  0.00000000000E+00  0.31679184816E+03  0.31679184816E+03  0.00000000000E+00 0.  1.
         21   -1    0    0  506  502 -0.00000000000E+00 -0.00000000000E+00 -0.46706171047E+03  0.46706171047E+03  0.00000000000E+00 0. -1.
         21    1    1    2  503  502  0.77671333630E+02 -0.13040095229E+03 -0.34560276847E+03  0.37746326709E+03  0.00000000000E+00 0. -1.
         21    1    1    2  504  505 -0.28186484487E+02  0.44908768437E+02  0.16929819913E+03  0.17740675189E+03  0.00000000000E+00 0.  1.
         21    1    1    2  505  503 -0.10452010946E+03  0.63109345339E+02  0.82230549217E+02  0.14720430012E+03  0.00000000000E+00 0.  1.
         21    1    1    2  506  501  0.55035260317E+02  0.22382838515E+02 -0.56195842181E+02  0.81779239520E+02  0.00000000000E+00 0.  1.
<scales pt_clust_3="14000.00000" pt_clust_4="53.02146" pt_clust_5="157.30986" pt_clust_6="58.77784"></scales>
<clustering>
<clus scale="   53.021">  1  4  2 -1</clus>
<clus scale="   58.778">  2  6  1 -1</clus>
<clus scale="  157.310">  1  5  2 -1</clus>
<clus scale="   53.021">  1  3  2 -1</clus>
</clustering>
</event>
<event>
 6    0  0.5563122E+002  0.1003126E+03  0.7546771E-02  0.1279640E+00
         21   -1    0    0  505  501  0.00000000000E+00  0.00000000000E+00  0.14183880114E+03  0.14183880114E+03  0.00000000000E+00 0. -1.
         21   -1    0    0  504  502 -0.00000000000E+00 -0.00000000000E+00 -0.15424821507E+04  0.15424821507E+04  0.00000000000E+00 0.  1.
         21    1    1    2  503  506 -0.12323978816E+03 -0.58204596450E+02 -0.10418420976E+04  0.10507191713E+04  0.00000000000E+00 0.  1.
         21    1    1    2  504  503 -0.69762628331E+01  0.46743389879E+02 -0.37215692317E+03  0.37514582258E+03  0.00000000000E+00 0.  1.
         21    1    1    2  505  502  0.32329573417E+02 -0.76954096175E+01 -0.10122649897E+03  0.10654212660E+03  0.00000000000E+00 0. -1.
         21    1    1    2  506  501  0.97886477573E+02  0.19156616188E+02  0.11458217023E+03  0.15191383140E+03  0.00000000000E+00 0. -1.
<scales pt_clust_3="14000.00000" pt_clust_4="44.76719" pt_clust_5="33.23282" pt_clust_6="100.31263"></scales>
<clustering>
<clus scale="   33.233">  2  5  1 -1</clus>
<clus scale="   44.767">  2  4  1 -1</clus>
<clus scale="  100.313">  1  6  2 -1</clus>
<clus scale="  100.313">  1  3  2 -1</clus>
</clustering>
</event>
<event>
 6    0  0.5563122E+002  0.8602600E+02  0.7546771E-02  0.1312771E+00
         21   -1    0    0  503  501  0.00000000000E+00  0.00000000000E+00  0.11656270375E+04  0.11656270375E+04  0.00000000000E+00 0. -1.
         21   -1    0    0  506  502 -0.00000000000E+00 -0.00000000000E+00 -0.37947349019E+02  0.37947349019E+02  0.00000000000E+00 0. -1.
         21    1    1    2  503  505  0.27003950334E+02  0.72268268656E+02  0.58957506696E+03  0.59460127444E+03  0.00000000000E+00 0. -1.
         21    1    1    2  504  501 -0.69302311347E+02 -0.11427425606E+03  0.33094698032E+03  0.35691360263E+03  0.00000000000E+00 0. -1.
         21    1    1    2  505  502  0.16224847120E+02  0.79881003728E+02  0.18251652886E+03  0.19989122974E+03  0.00000000000E+00 0. -1.
         21    1    1    2  506  504  0.26073513893E+02 -0.37875016322E+02  0.24641112304E+02  0.52168279670E+02  0.00000000000E+00 0. -1.
<scales pt_clust_3="14000.00000" pt_clust_4="86.02600" pt_clust_5="71.04461" pt_clust_6="45.98201"></scales>
<clustering>
<clus scale="   45.982">  2  6  1 -1</clus>
<clus scale="   71.045">  2  5  1 -1</clus>
<clus scale="   86.026">  2  4  1 -1</clus>
<clus scale="   86.026">  1  3  2 -1</clus>
</clustering>
</event>
<event>
 6    0  0.5563122E+002  0.1752064E+03  0.7546771E-02  0.1172525E+00
         21   -1    0    0  505  501  0.00000000000E+00  0.00000000000E+00  0.34069477411E+03  0.34069477411E+03  0.00000000000E+00 0.  1.
         21   -1    0    0  503  502 -0.00000000000E+00 -0.00000000000E+00 -0.21878022605E+03  0.21878022605E+03  0.00000000000E+00 0.  1.
         21    1    1    2  503  504  0.13691213261E+03  0.10554640788E+03  0.18191291616E+02  0.17382721123E+03  0.00000000000E+00 0.  1.
         21    1    1    2  504  501 -0.49674328992E+02  0.26129973096E+02  0.18639000799E+03  0.19465751857E+03  0.00000000000E+00 0.  1.
         21    1    1    2  505  506 -0.34250788910E+02 -0.31783181749E+02  0.62496184413E+01  0.47141753401E+02  0.00000000000E+00 0. -1.
         21    1    1    2  506  502 -0.52987014706E+02 -0.99893199229E+02 -0.88916369995E+02  0.14384851696E+03  0.00000000000E+00 0.  1.
<scales pt_clust_3="161.25412" pt_clust_4="56.12766" pt_clust_5="44.04344" pt_clust_6="44.04344"></scales>
<clustering>
<clus scale="   44.043">  5  6 -1 -1</clus>
<clus scale="   56.128">  1  4  2 -1</clus>
<clus scale="  161.254">  1  3  2 -1</clus>
<clus scale="   56.128">  1  3  2 -1</clus>
</clustering>
</event>
<event>
 6    0  0.5563122E+002  0.9852820E+02  0.7546771E-02  0.1283422E+00
         21   -1    0    0  505  501  0.00000000000E+00  0.00000000000E+00  0.80536422665E+03  0.80536422665E+03  0.00000000000E+00 0.  1.
         21   -1    0    0  503  502 -0.00000000000E+00 -0.00000000000E+00 -0.74894635481E+02  0.74894635481E+02  0.00000000000E+00 0.  1.
         21    1    1    2  503  506  0.30170781211E+02 -0.60035889755E+02 -0.14237275491E+02  0.68682487659E+02  0.00000000000E+00 0.  1.
         21    1    1    2  504  502 -0.12450520748E+03  0.72733071978E+02  0.17166888850E+03  0.22419155588E+03  0.00000000000E+00 0.  1.
         21    1    1    2  505  504  0.67682031619E+02 -0.29433952468E+02  0.52362311020E+03  0.52879899442E+03  0.00000000000E+00 0.  1.
         21    1    1    2  506  501  0.26652394650E+02  0.16736770245E+02  0.49414867965E+02  0.58585824180E+02  0.00000000000E+00 0.  1.
<scales pt_clust_3="67.09204" pt_clust_4="98.52820" pt_clust_5="14000.00000" pt_clust_6="31.47173"></scales>
<clustering>
<clus scale="   31.472">  1  6  2 -1</clus>
<clus scale="   67.092">  2  3  1 -1</clus>
<clus scale="   98.528">  2  4  1 -1</clus>
<clus scale="   31.472">  1  3  2 -1</clus>
</clustering>
</event>
<event>
 6    0  0.5563122E+002  0.1210518E+03  0.7546771E-02  0.1241372E+00
         21   -1    0    0  506  501  0.00000000000E+00  0.00000000000E+00  0.35036564832E+03  0.35036564832E+03  0.00000000000E+00 0.  1.
         21   -1    0    0  505  502 -0.00000000000E+00 -0.00000000000E+00 -0.12908140886E+04  0.12908140886E+04  0.00000000000E+00 0.  1.
         21    1    1    2  503  502 -0.12031211136E+02 -0.69717365827E+02 -0.12051976467E+04  0.12072723922E+04  0.00000000000E+00 0.  1.
         21    1    1    2  504  503 -0.78156916377E+02 -0.83925883491E+02  0.49456355480E+02  0.12489190764E+03  0.00000000000E+00 0.  1.
         21    1    1    2  505  501  0.10964923089E+03  0.71332745033E+02  0.93734145199E+02  0.16092670482E+03  0.00000000000E+00 0.  1.
         21    1    1    2  506  504 -0.19461103380E+02  0.82310504285E+02  0.12155870583E+03  0.14808873226E+03  0.00000000000E+00 0.  1.
<scales pt_clust_3="70.74787" pt_clust_4="121.05181" pt_clust_5="14000.00000" pt_clust_6="74.50047"></scales>
<clustering>
<clus scale="   70.748">  2  3  1 -1</clus>
<clus scale="   74.500">  1  6  2 -1</clus>
<clus scale="  121.052">  1  4  2 -1</clus>
<clus scale="   74.500">  1  3  2 -1</clus>
</clustering>
</event>
<event>
 6    0  0.5563122E+002  0.7787750E+02  0.7546771E-02  0.1335185E+00
         21   -1    0    0  504  501  0.00000000000E+00  0.00000000000E+00  0.10947358345E+04  0.10947358345E+04  0.00000000000E+00 0.  1.
         21   -1    0    0  505  502 -0.00000000000E+00 -0.00000000000E+00 -0.88985897668E+03  0.88985897668E+03  0.00000000000E+00 0. -1.
         21    1    1    2  503  502  0.47283685964E+02 -0.10288894513E+02 -0.87535047617E+03  0.87668698202E+03  0.00000000000E+00 0. -1.
         21    1    1    2  504  506 -0.12405909042E+03  0.22363219010E+02  0.65338881773E+03  0.66543799006E+03  0.00000000000E+00 0.  1.
         21    1    1    2  505  501  0.39957209024E+02  0.25021973030E+02  0.90000694728E+02  0.10160119457E+03  0.00000000000E+00 0.  1.
         21    1    1    2  506  503  0.36818195435E+02 -0.37096297527E+02  0.33683782158E+03  0.34086864457E+03  0.00000000000E+00 0.  1.
<scales pt_clust_3="48.41273" pt_clust_4="77.87750" pt_clust_5="47.14528" pt_clust_6="14000.00000"></scales>
<clustering>
<clus scale="   47.145">  1  5  2 -1</clus>
<clus scale="   48.413">  2  3  1 -1</clus>
<clus scale="   77.878">  1  4  2 -1</clus>
<clus scale="   47.145">  1  3  2 -1</clus>
</clustering>
</event>
<event>
 6    0  0.5563122E+002  0.1568944E+03  0.7546771E-02  0.1192248E+00
         21   -1    0    0  506  501  0.00000000000E+00  0.00000000000E+00  0.83896073772E+03  0.83896073772E+03  0.00000000000E+00 0. -1.
         21   -1    0    0  504  502 -0.00000000000E+00 -0.00000000000E+00 -0.45492285186E+03  0.45492285186E+03  0.00000000000E+00 0. -1.
         21    1    1    2  503  501 -0.16639199851E+02 -0.28492574589E+02  0.46686932593E+03  0.46803382065E+03  0.00000000000E+00 0. -1.
         21    1    1    2  504  503 -0.69089416785E+02  0.13329929226E+03 -0.42718268130E+03  0.45279917406E+03  0.00000000000E+00 0. -1.
         21    1    1    2  505  502  0.47198403518E+02 -0.82794481842E+02  0.19173895377E+03  0.21411782250E+03  0.00000000000E+00 0. -1.
         21    1    1    2  506  505  0.38530213119E+02 -0.22012235824E+02  0.15261228746E+03  0.15893277237E+03  0.00000000000E+00 0. -1.
<scales pt_clust_3="32.99530" pt_clust_4="149.53503" pt_clust_5="32.40413" pt_clust_6="32.40413"></scales>
<clustering>
<clus scale="   32.404">  5  6 -1 -1</clus>
<clus scale="   32.995">  1  3  2 -1</clus>
<clus scale="  149.535">  2  4  1 -1</clus>
<clus scale="   32.995">  1  3  2 -1</clus>
</clustering>
</event>
<event>
 6    0  0.5563122E+002  0.1652829E+03  0.7546771E-02  0.1182858E+00
         21   -1    0    0  503  501  0.00000000000E+00  0.00000000000E+00  0.10218196624E+04  0.10218196624E+04  0.00000000000E+00 0. -1.
         21   -1    0    0  505  502 -0.00000000000E+00 -0.00000000000E+00 -0.65187037850E+02  0.65187037850E+02  0.00000000000E+00 0. -1.
         21    1    1    2  503  506  0.45277314431E+02 -0.51984779323E+02  0.54679436933E+03  0.55112297613E+03  0.00000000000E+00 0. -1.
         21    1    1    2  504  501 -0.10794069154E+03 -0.82119590953E+01  0.20026781349E+03  0.22765286355E+03  0.00000000000E+00 0. -1.
         21    1    1    2  505  504 -0.38189796825E+02 -0.51962857657E+02  0.10995475670E+03  0.12747018349E+03  0.00000000000E+00 0. -1.
         21    1    1    2  506  502  0.10085317393E+03  0.11215959608E+03  0.99615685075E+02  0.18076067713E+03  0.00000000000E+00 0. -1.
<scales pt_clust_3="68.93803" pt_clust_4="54.02322" pt_clust_5="54.02322" pt_clust_6="149.73055"></scales>
<clustering>
<clus scale="   54.023">  4  5 -1 -1</clus>
<clus scale="   68.938">  1  3  2 -1</clus>
<clus scale="  149.731">  2  6  1 -1</clus>
<clus scale="   68.938">  1  3  2 -1</clus>
</clustering>
</event>
<event>
 6    0  0.5563122E+002  0.1054570E+03  0.7546771E-02  0.1269222E+00
         21   -1    0    0  504  501  0.00000000000E+00  0.00000000000E+00  0.79473020290E+03  0.79473020290E+03  0.00000000000E+00 0.  1.
         21   -1    0    0  505  502 -0.00000000000E+00 -0.00000000000E+00 -0.10515671909E+04  0.10515671909E+04  0.00000000000E+00 0.  1.
         21    1    1    2  503  502  0.76029437648E+02  0.37374885868E+02 -0.22804753193E+03  0.24327563442E+03  0.00000000000E+00 0. -1.
         21    1    1    2  504  503  0.63633759263E+02  0.56974157522E+02  0.77487682718E+03  0.77957001433E+03  0.00000000000E+00 0.  1.
         21    1    1    2  505  506 -0.93644238105E+02 -0.37273354202E+02 -0.36320898075E+03  0.37693409233E+03  0.00000000000E+00 0.  1.
         21    1    1    2  506  501 -0.46018958806E+02 -0.57075689188E+02 -0.44045730249E+03  0.44651765271E+03  0.00000000000E+00 0.  1.
<scales pt_clust_3="84.71929" pt_clust_4="85.64722" pt_clust_5="52.47703" pt_clust_6="52.47703"></scales>
<clustering>
<clus scale="   52.477">  5  6 -1 -1</clus>
<clus scale="   84.719">  2  3  1 -1</clus>
<clus scale="   85.647">  1  4  2 -1</clus>
<clus scale="   85.647">  1  3  2 -1</clus>
</clustering>
</event>
<event>
 6    0  0.5563122E+002  0.1084136E+03  0.7546771E-02  0.1263536E+00
         21   -1    0    0  504  501  0.00000000000E+00  0.00000000000E+00  0.10798542971E+04  0.10798542971E+04  0.00000000000E+00 0. -1.
         21   -1    0    0  503  502 -0.00000000000E+00 -0.00000000000E+00 -0.14781564359E+03  0.14781564359E+03  0.00000000000E+00 0.  1.
         21    1    1    2  503  506 -0.66641825318E+01  0.34136256481E+02 -0.12001518157E+03  0.12495334787E+03  0.00000000000E+00 0.  1.
         21    1    1    2  504  505 -0.44379071256E+02 -0.40880469051E+02  0.42564846211E+03  0.42990385904E+03  0.00000000000E+00 0. -1.
         21    1    1    2  505  502  0.11713819600E+03  0.81796490951E+02  0.41599134832E+03  0.43984181790E+03  0.00000000000E+00 0.  1.
         21    1    1    2  506  501 -0.66094942217E+02 -0.75052278381E+02  0.21041402465E+03  0.23297091588E+03  0.00000000000E+00 0. -1.
<scales pt_clust_3="34.78067" pt_clust_4="58.86002" pt_clust_5="14000.00000" pt_clust_6="108.41362"></scales>
<clustering>
<clus scale="   34.781">  2  3  1 -1</clus>
<clus scale="   58.860">  1  4  2 -1</clus>
<clus scale="  108.414">  2  6  1 -1</clus>
<clus scale="   58.860">  1  3  2 -1</clus>
</clustering>
</event>
<event>
 6    0  0.5563122E+002  0.7743153E+02  0.7546771E-02  0.1336503E+00
         21   -1    0    0  505  501  0.00000000000E+00  0.00000000000E+00  0.98626209797E+02  0.98626209797E+02  0.00000000000E+00 0. -1.
         21   -1    0    0  506  502 -0.00000000000E+00 -0.00000000000E+00 -0.55520709261E+03  0.55520709261E+03  0.00000000000E+00 0. -1.
         21    1    1    2  503  502 -0.31671382880E+01 -0.74344734439E+02 -0.37013440001E+03  0.37754025531E+03  0.00000000000E+00 0. -1.
         21    1    1    2  504  501 -0.12061992794E+02  0.53233194112E+02  0.13948602955E+02  0.56336738900E+02  0.00000000000E+00 0.  1.
         21    1    1    2  505  503 -0.34552701745E+02 -0.72718618369E+02 -0.11260635089E+02  0.81293840836E+02  0.00000000000E+00 0. -1.
         21    1    1    2  506  504  0.49781832827E+02  0.93830158696E+02 -0.89134450672E+02  0.13866246737E+03  0.00000000000E+00 0. -1.
<scales pt_clust_3="77.43153" pt_clust_4="54.58264" pt_clust_5="59.81360" pt_clust_6="14000.00000"></scales>
<clustering>
<clus scale="   54.583">  1  4  2 -1</clus>
<clus scale="   59.814">  1  5  2 -1</clus>
<clus scale="   77.432">  2  3  1 -1</clus>
<clus scale="   54.583">  1  3  2 -1</clus>
</clustering>
</event>
<event>
 6    0  0.5563122E+002  0.1181671E+03  0.7546771E-02  0.1246152E+00
         21   -1    0    0  504  501  0.00000000000E+00  0.00000000000E+00  0.14507584833E+03  0.14507584833E+03  0.00000000000E+00 0.  1.
         21   -1    0    0  503  502 -0.00000000000E+00 -0.00000000000E+00 -0.43484062786E+03  0.43484062786E+03  0.00000000000E+00 0. -1.
         21    1    1    2  503  506 -0.27433170976E+01 -0.30259836503E+02 -0.18211773446E+03  0.18463491733E+03  0.00000000000E+00 0. -1.
         21    1    1    2  504  505  0.38473539232E+02  0.56457953210E+02  0.52732839225E+02  0.86304496027E+02  0.00000000000E+00 0.  1.
         21    1    1    2  505  502  0.64998802041E+02  0.88547794685E+02 -0.83823366926E+02  0.13817348897E+03  0.00000000000E+00 0.  1.
         21    1    1    2  506  501 -0.10072902417E+03 -0.11474591139E+03 -0.76556517371E+02  0.17080357386E+03  0.00000000000E+00 0. -1.
<scales pt_clust_3="30.38393" pt_clust_4="66.55566" pt_clust_5="14000.00000" pt_clust_6="118.16707"></scales>
<clustering>
<clus scale="   30.384">  2  3  1 -1</clus>
<clus scale="   66.556">  1  4  2 -1</clus>
<clus scale="  118.167">  1  6  2 -1</clus>
<clus scale="   66.556">  1  3  2 -1</clus>
</clustering>
</event>
<event>
 6    0  0.5563122E+002  0.2479359E+03  0.7546771E-02  0.1114616E+00
         21   -1    0    0  506  501  0.00000000000E+00  0.00000000000E+00  0.87349568493E+03  0.87349568493E+03  0.00000000000E+00 0. -1.
         21   -1    0    0  501  502 -0.00000000000E+00 -0.00000000000E+00 -0.12900493465E+04  0.12900493465E+04  0.00000000000E+00 0.  1.
         21    1    1    2  503  505  0.12738781311E+03  0.11936601695E+03 -0.30948397537E+03  0.35532552954E+03  0.00000000000E+00 0. -1.
         21    1    1    2  504  503  0.32762580504E+02  0.45110954656E+02 -0.33906669341E+02  0.65253713588E+02  0.00000000000E+00 0. -1.
         21    1    1    2  505  502  0.49187511663E+02 -0.56203037378E+02 -0.88983634795E+03  0.89296523944E+03  0.00000000000E+00 0.  1.
         21    1    1    2  506  504 -0.20933790528E+03 -0.10827393423E+03  0.81667333107E+03  0.85000054888E+03  0.00000000000E+00 0. -1.
<scales pt_clust_3="44.74471" pt_clust_4="44.74471" pt_clust_5="74.68730" pt_clust_6="234.95376"></scales>
<clustering>
<clus scale="   44.745">  3  4 -1 -1</clus>
<clus scale="   74.687">  2  5  1 -1</clus>
<clus scale="  234.954">  1  6  2 -1</clus>
<clus scale="  234.954">  1  3  2 -1</clus>
</clustering>
</event>
<event>
 6    0  0.5563122E+002  0.1275332E+03  0.7546771E-02  0.1231163E+00
         21   -1    0    0  503  501  0.00000000000E+00  0.00000000000E+00  0.69781694392E+03  0.69781694392E+03  0.00000000000E+00 0. -1.
         21   -1    0    0  506  502 -0.00000000000E+00 -0.00000000000E+00 -0.12875174994E+03  0.12875174994E+03  0.00000000000E+00 0. -1.
         21    1    1    2  503  505  0.69332922751E+02 -0.83978093687E+02  0.55542696038E+03  0.56600219320E+03  0.00000000000E+00 0. -1.
         21    1    1    2  504  501 -0.10912554849E+03  0.11698612993E+02  0.48739577821E+01  0.10985899300E+03  0.00000000000E+00 0. -1.
         21    1    1    2  505  502  0.79227358432E+02  0.29822905503E+02  0.28764139269E+02  0.89407805725E+02  0.00000000000E+00 0. -1.
         21    1    1    2  506  504 -0.39434732695E+02  0.42456575191E+02 -0.19999863443E+02  0.61299701936E+02  0.00000000000E+00 0. -1.
<scales pt_clust_3="110.45880" pt_clust_4="46.31896" pt_clust_5="84.65447" pt_clust_6="46.31896"></scales>
<clustering>
<clus scale="   46.319">  4  6 -1 -1</clus>
<clus scale="   84.654">  2  5  1 -1</clus>
<clus scale="  110.459">  1  3  2 -1</clus>
<clus scale="  110.459">  1  3  2 -1</clus>
</clustering>
</event>
<event>
 6    0  0.5563122E+002  0.1114614E+03  0.7546771E-02  0.1257887E+00
         21   -1    0    0  506  501  0.00000000000E+00  0.00000000000E+00  0.29070055765E+03  0.29070055765E+03  0.00000000000E+00 0.  1.
         21   -1    0    0  504  502 -0.00000000000E+00 -0.00000000000E+00 -0.10854379627E+03  0.10854379627E+03  0.00000000000E+00 0.  1.
         21    1    1    2  503  501  0.44358314871E+02 -0.45651431897E+02  0.64125640023E+02  0.90353810328E+02  0.00000000000E+00 0.  1.
         21    1    1    2  504  503  0.38645314434E+02 -0.85983238131E+02 -0.21293429554E+02  0.96643611840E+02  0.00000000000E+00 0.  1.
         21    1    1    2  505  502 -0.39307321785E+02  0.79197244036E+02  0.56524573365E+02  0.10493948924E+03  0.00000000000E+00 0.  1.
         21    1    1    2  506  505 -0.43696307520E+02  0.52437425992E+02  0.82799977550E+02  0.10730744251E+03  0.00000000000E+00 0.  1.
<scales pt_clust_3="63.65307" pt_clust_4="104.89755" pt_clust_5="33.11130" pt_clust_6="33.11130"></scales>
<clustering>
<clus scale="   33.111">  5  6 -1 -1</clus>
<clus scale="   63.653">  1  3  2 -1</clus>
<clus scale="  104.898">  2  4  1 -1</clus>
<clus scale="   63.653">  1  3  2 -1</clus>
</clustering>
</event>
<event>
 6    0  0.5563122E+002  0.1152023E+03  0.7546771E-02  0.1251228E+00
         21   -1    0    0  506  501  0.00000000000E+00  0.00000000000E+00  0.12851836176E+03  0.12851836176E+03  0.00000000000E+00 0. -1.
         21   -1    0    0  505  502 -0.00000000000E+00 -0.00000000000E+00 -0.92330663380E+03  0.92330663380E+03  0.00000000000E+00 0. -1.
         21    1    1    2  503  502 -0.11070019076E+02  0.30537087451E+02 -0.60200761821E+03  0.60288326516E+03  0.00000000000E+00 0. -1.
         21    1    1    2  504  501 -0.13715791312E+03 -0.93295741362E+02  0.21844393379E+02  0.16731277898E+03  0.00000000000E+00 0. -1.
         21    1    1    2  505  504  0.10693418753E+03  0.20306692861E+02 -0.18679390127E+03  0.21619260808E+03  0.00000000000E+00 0. -1.
         21    1    1    2  506  503  0.41293744669E+02  0.42451961050E+02 -0.27831145934E+02  0.65436343341E+02  0.00000000000E+00 0. -1.
<scales pt_clust_3="32.48167" pt_clust_4="14000.00000" pt_clust_5="115.20226" pt_clust_6="61.42945"></scales>
<clustering>
<clus scale="   32.482">  2  3  1 -1</clus>
<clus scale="   61.429">  1  6  2 -1</clus>
<clus scale="  115.202">  2  5  1 -1</clus>
<clus scale="   61.429">  1  3  2 -1</clus>
</clustering>
</event>
<event>
 6    0  0.5563122E+002  0.9540689E+02  0.7546771E-02  0.1290262E+00
         21   -1    0    0  503  501  0.00000000000E+00  0.00000000000E+00  0.23963491773E+03  0.23963491773E+03  0.00000000000E+00 0.  1.
         21   -1    0    0  506  502 -0.00000000000E+00 -0.00000000000E+00 -0.30685494034E+03  0.30685494034E+03  0.00000000000E+00 0. -1.
         21    1    1    2  503  504  0.46119822432E+02 -0.33991625665E+02  0.71455262822E+02  0.91587789696E+02  0.00000000000E+00 0.  1.
         21    1    1    2  504  502  0.40746820558E+02  0.90581175105E+02  0.47212292801E+02  0.10997387535E+03  0.00000000000E+00 0.  1.
         21    1    1    2  505  501 -0.44626903594E+02 -0.80212236436E+02  0.49726586044E+02  0.10439490772E+03  0.00000000000E+00 0.  1.
         21    1    1    2  506  505 -0.42239739396E+02  0.23622686996E+02 -0.23561416428E+03  0.24053328530E+03  0.00000000000E+00 0. -1.
<scales pt_clust_3="50.27315" pt_clust_4="14000.00000" pt_clust_5="95.40689" pt_clust_6="48.39656"></scales>
<clustering>
<clus scale="   48.397">  2  6  1 -1</clus>
<clus scale="   50.273">  1  3  2 -1</clus>
<clus scale="   95.407">  2  5  1 -1</clus>
<clus scale="   50.273">  1  3  2 -1</clus>
</clustering>
</event>
<event>
 6    0  0.5563122E+002  0.1078268E+03  0.7546771E-02  0.1264648E+00
         21   -1    0    0  506  501  0.00000000000E+00  0.00000000000E+00  0.91631460991E+02  0.91631460991E+02  0.00000000000E+00 0. -1.
         21   -1    0    0  504  502 -0.00000000000E+00 -0.00000000000E+00 -0.42309364523E+03  0.42309364523E+03  0.00000000000E+00 0. -1.
         21    1    1    2  503  501  0.31820565635E+02 -0.12079335205E+02 -0.20768977719E+02  0.39872411161E+02  0.00000000000E+00 0.  1.
         21    1    1    2  504  505 -0.59698151820E+02  0.68975632636E+02 -0.15263642933E+03  0.17781840958E+03  0.00000000000E+00 0. -1.
         21    1    1    2  505  503  0.39720998543E+01 -0.14799275326E+03 -0.13434224920E+03  0.19991366265E+03  0.00000000000E+00 0. -1.
         21    1    1    2  506  502  0.23905486330E+02  0.91096455829E+02 -0.23714528001E+02  0.97120622834E+02  0.00000000000E+00 0. -1.
<scales pt_clust_3="34.03614" pt_clust_4="86.66224" pt_clust_5="107.82680" pt_clust_6="14000.00000"></scales>
<clustering>
<clus scale="   34.036">  1  3  2 -1</clus>
<clus scale="   86.662">  2  4  1 -1</clus>
<clus scale="  107.827">  2  5  1 -1</clus>
<clus scale="   34.036">  1  3  2 -1</clus>
</clustering>
</event>
<event>
 6    0  0.5563122E+002  0.6945123E+02  0.7546771E-02  0.1361969E+00
         21   -1    0    0  503  501  0.00000000000E+00  0.00000000000E+00  0.98859167422E+02  0.98859167422E+02  0.00000000000E+00 0.  1.
         21   -1    0    0  504  502 -0.00000000000E+00 -0.00000000000E+00 -0.24277417436E+03  0.24277417436E+03  0.00000000000E+00 0.  1.
         21    1    1    2  503  505 -0.56936682901E+01 -0.87085231281E+02 -0.22597824259E+02  0.90149415012E+02  0.00000000000E+00 0.  1.
         21    1    1    2  504  506  0.24018066857E+02  0.64142776691E+02 -0.99741969520E+02  0.12099431318E+03  0.00000000000E+00 0.  1.
         21    1    1    2  505  502 -0.52797610802E+02 -0.63343750518E+01 -0.53264590777E+02  0.75265055931E+02  0.00000000000E+00 0.  1.
         21    1    1    2  506  501  0.34473212235E+02  0.29276829642E+02  0.31689377615E+02  0.55224557665E+02  0.00000000000E+00 0.  1.
<scales pt_clust_3="69.45123" pt_clust_4="14000.00000" pt_clust_5="45.95583" pt_clust_6="45.22759"></scales>
<clustering>
<clus scale="   45.228">  1  6  2 -1</clus>
<clus scale="   45.956">  2  5  1 -1</clus>
<clus scale="   69.451">  1  3  2 -1</clus>
<clus scale="   45.228">  1  3  2 -1</clus>
</clustering>
</event>
<event>
 6    0  0.5563122E+002  0.1138354E+03  0.7546771E-02  0.1253628E+00
         21   -1    0    0  505  501  0.00000000000E+00  0.00000000000E+00  0.21465045967E+03  0.21465045967E+03  0.00000000000E+00 0.  1.
         21   -1    0    0  506  502 -0.00000000000E+00 -0.00000000000E+00 -0.44610569203E+03  0.44610569203E+03  0.00000000000E+00 0.  1.
         21    1    1    2  503  501 -0.11439527941E+03  0.39756137958E+02  0.16093024122E+03  0.20140847300E+03  0.00000000000E+00 0.  1.
         21    1    1    2  504  502 -0.42590835176E+01  0.31870188193E+02 -0.19849606950E+03  0.20108341129E+03  0.00000000000E+00 0.  1.
         21    1    1    2  505  504  0.56694451354E+02 -0.53463221785E+00 -0.13666004737E+03  0.14795443621E+03  0.00000000000E+00 0.  1.
         21    1    1    2  506  503  0.61959911576E+02 -0.71091693933E+02 -0.57229356712E+02  0.11030983120E+03  0.00000000000E+00 0.  1.
<scales pt_clust_3="14000.00000" pt_clust_4="32.15352" pt_clust_5="57.10458" pt_clust_6="113.83544"></scales>
<clustering>
<clus scale="   32.154">  2  4  1 -1</clus>
<clus scale="   57.105">  2  5  1 -1</clus>
<clus scale="  113.835">  2  6  1 -1</clus>
<clus scale="  113.835">  1  3  2 -1</clus>
</clustering>
</event>
<event>
 6    0  0.5563122E+002  0.1040793E+03  0.7546771E-02  0.1271944E+00
         21   -1    0    0  503  501  0.00000000000E+00  0.00000000000E+00  0.20037622533E+04  0.20037622533E+04  0.00000000000E+00 0.  1.
         21   -1    0    0  506  502 -0.00000000000E+00 -0.00000000000E+00 -0.31979747318E+03  0.31979747318E+03  0.00000000000E+00 0.  1.
         21    1    1    2  503  504  0.74683247306E+02  0.28555571090E+02  0.18815964014E+02  0.82140419832E+02  0.00000000000E+00 0. -1.
         21    1    1    2  504  502  0.12737420102E+01  0.31655813689E+02 -0.96420221801E+02  0.10149173430E+03  0.00000000000E+00 0.  1.
         21    1    1    2  505  501  0.40314923869E+02 -0.47338751990E+02  0.19321157200E+04  0.19331159836E+04  0.00000000000E+00 0.  1.
         21    1    1    2  506  505 -0.11627191318E+03 -0.12872632790E+02 -0.17054668210E+03  0.20681158876E+03  0.00000000000E+00 0.  1.
<scales pt_clust_3="104.07931" pt_clust_4="31.68143" pt_clust_5="62.12649" pt_clust_6="14000.00000"></scales>
<clustering>
<clus scale="   31.681">  2  4  1 -1</clus>
<clus scale="   62.126">  1  5  2 -1</clus>
<clus scale="  104.079">  1  3  2 -1</clus>
<clus scale="   62.126">  1  3  2 -1</clus>
</clustering>
</event>
<event>
 6    0  0.5563122E+002  0.1133018E+03  0.7546771E-02  0.1254575E+00
         21   -1    0    0  504  501  0.00000000000E+00  0.00000000000E+00  0.11765390939E+04  0.11765390939E+04  0.00000000000E+00 0.  1.
         21   -1    0    0  505  502 -0.00000000000E+00 -0.00000000000E+00 -0.75955685706E+03  0.75955685706E+03  0.00000000000E+00 0. -1.
         21    1    1    2  503  506  0.99869453191E+02 -0.14559115235E+02  0.27251479630E+03  0.29060314816E+03  0.00000000000E+00 0.  1.
         21    1    1    2  504  502 -0.12040111526E+03 -0.59064395290E+01  0.17332001970E+03  0.21111879077E+03  0.00000000000E+00 0. -1.
         21    1    1    2  505  503 -0.41405521953E+02 -0.98051094605E+01 -0.72930101792E+03  0.73054125972E+03  0.00000000000E+00 0. -1.
         21    1    1    2  506  501  0.61937184026E+02  0.30270664225E+02  0.70044843878E+03  0.70383275234E+03  0.00000000000E+00 0.  1.
<scales pt_clust_3="113.30185" pt_clust_4="14000.00000" pt_clust_5="42.55065" pt_clust_6="66.57081"></scales>
<clustering>
<clus scale="   42.551">  2  5  1 -1</clus>
<clus scale="   66.571">  1  6  2 -1</clus>
<clus scale="  113.302">  2  3  1 -1</clus>
<clus scale="   66.571">  1  3  2 -1</clus>
</clustering>
</event>
<event>
 6    0  0.5563122E+002  0.7971525E+02  0.7546771E-02  0.1329861E+00
         21   -1    0    0  505  501  0.00000000000E+00  0.00000000000E+00  0.40306469879E+02  0.40306469879E+02  0.00000000000E+00 0. -1.
         21   -1    0    0  504  502 -0.00000000000E+00 -0.00000000000E+00 -0.60349531911E+03  0.60349531911E+03  0.00000000000E+00 0. -1.
         21    1    1    2  503  501 -0.28266076509E+02  0.12047188896E+02 -0.34281032911E+02  0.46035801926E+02  0.00000000000E+00 0. -1.
         21    1    1    2  504  503  0.44457957541E+00  0.10970325389E+03 -0.20287141817E+03  0.23063350553E+03  0.00000000000E+00 0. -1.
         21    1    1    2  505  506 -0.18213327641E+02 -0.63047685313E+02 -0.53799872351E+02  0.84859661749E+02  0.00000000000E+00 0. -1.
         21    1    1    2  506  502  0.46034824574E+02 -0.58702757471E+02 -0.27223652580E+03  0.28227281978E+03  0.00000000000E+00 0. -1.
<scales pt_clust_3="30.72631" pt_clust_4="79.71525" pt_clust_5="65.40679" pt_clust_6="14000.00000"></scales>
<clustering>
<clus scale="   30.726">  1  3  2 -1</clus>
<clus scale="   65.407">  1  5  2 -1</clus>
<clus scale="   79.715">  1  4  2 -1</clus>
<clus scale="   30.726">  1  3  2 -1</clus>
</clustering>
</event>
<event>
 6    0  0.5563122E+002  0.1022304E+03  0.7546771E-02  0.1275674E+00
         21   -1    0    0  506  501  0.00000000000E+00  0.00000000000E+00  0.77946916314E+03  0.77946916314E+03  0.00000000000E+00 0.  1.
         21   -1    0    0  501  502 -0.00000000000E+00 -0.00000000000E+00 -0.71510020495E+03  0.71510020495E+03  0.00000000000E+00 0.  1.
         21    1    1    2  503  502 -0.45083967250E+02 -0.28062734846E+02 -0.27528893634E+03  0.28036419112E+03  0.00000000000E+00 0.  1.
         21    1    1    2  504  505  0.71826407235E+02  0.15945991826E+03 -0.28514085793E+02  0.17719918565E+03  0.00000000000E+00 0.  1.
         21    1    1    2  505  503  0.39284866938E+01 -0.66324461476E+02 -0.32924839800E+03  0.33588521072E+03  0.00000000000E+00 0.  1.
         21    1    1    2  506  504 -0.30670926679E+02 -0.65072721937E+02  0.69742037832E+03  0.70112078059E+03  0.00000000000E+00 0.  1.
<scales pt_clust_3="53.10444" pt_clust_4="102.23039" pt_clust_5="14000.00000" pt_clust_6="72.12746"></scales>
<clustering>
<clus scale="   53.104">  2  3  1 -1</clus>
<clus scale="   72.127">  1  6  2 -1</clus>
<clus scale="  102.230">  1  4  2 -1</clus>
<clus scale="   72.127">  1  3  2 -1</clus>
</clustering>
</event>
<event>
 6    0  0.5563122E+002  0.1033248E+03  0.7546771E-02  0.1273456E+00
         21   -1    0    0  506  501  0.00000000000E+00  0.00000000000E+00  0.43017808801E+03  0.43017808801E+03  0.00000000000E+00 0. -1.
         21   -1    0    0  503  502 -0.00000000000E+00 -0.00000000000E+00 -0.19469021004E+03  0.19469021004E+03  0.00000000000E+00 0. -1.
         21    1    1    2  503  505 -0.30110050243E+02  0.37902053589E+01 -0.11715235045E+03  0.12101922987E+03  0.00000000000E+00 0. -1.
         21    1    1    2  504  502 -0.70019423264E+02  0.24093639849E+02  0.90851914050E+01  0.74604046929E+02  0.00000000000E+00 0. -1.
         21    1    1    2  505  501 -0.69132361979E+02 -0.30912776737E+02  0.17342780153E+03  0.18924081373E+03  0.00000000000E+00 0. -1.
         21    1    1    2  506  504  0.16926183549E+03  0.30289315288E+01  0.17012723548E+03  0.24000420753E+03  0.00000000000E+00 0. -1.
<scales pt_clust_3="30.34767" pt_clust_4="14000.00000" pt_clust_5="78.45904" pt_clust_6="103.32484"></scales>
<clustering>
<clus scale="   30.348">  2  3  1 -1</clus>
<clus scale="   78.459">  1  5  2 -1</clus>
<clus scale="  103.325">  1  6  2 -1</clus>
<clus scale="   78.459">  1  3  2 -1</clus>
</clustering>
</event>
<event>
 6    0  0.5563122E+002  0.3516010E+03  0.7546771E-02  0.1061960E+00
         21   -1    0    0  505  501  0.00000000000E+00  0.00000000000E+00  0.18160596380E+03  0.18160596380E+03  0.00000000000E+00 0.  1.
         21   -1    0    0  504  502 -0.00000000000E+00 -0.00000000000E+00 -0.24491447582E+04  0.24491447582E+04  0.00000000000E+00 0.  1.
         21    1    1    2  503  501 -0.12213651840E+03  0.84935709763E+01 -0.12526322190E+03  0.17515805615E+03  0.00000000000E+00 0.  1.
         21    1    1    2  504  503  0.35579086869E+03 -0.48854961336E+02 -0.21804065747E+04  0.22097843289E+04  0.00000000000E+00 0.  1.
         21    1    1    2  505  506 -0.61388636324E+02 -0.22435123537E+01  0.29491461378E+02  0.68142089135E+02  0.00000000000E+00 0.  1.
         21    1    1    2  506  502 -0.17226571397E+03  0.42604902713E+02  0.86395407694E+01  0.17766624780E+03  0.00000000000E+00 0.  1.
<scales pt_clust_3="122.43149" pt_clust_4="347.67644" pt_clust_5="30.82227" pt_clust_6="30.82227"></scales>
<clustering>
<clus scale="   30.822">  5  6 -1 -1</clus>
<clus scale="  122.431">  1  3  2 -1</clus>
<clus scale="  347.676">  2  4  1 -1</clus>
<clus scale="  122.431">  1  3  2 -1</clus>
</clustering>
</event>
<event>
 6    0  0.5563122E+002  0.8691004E+02  0.7546771E-02  0.1310512E+00
         21   -1    0    0  506  501  0.00000000000E+00  0.00000000000E+00  0.14887846312E+04  0.14887846312E+04  0.00000000000E+00 0. -1.
         21   -1    0    0  505  502 -0.00000000000E+00 -0.00000000000E+00 -0.17203141121E+03  0.17203141121E+03  0.00000000000E+00 0.  1.
         21    1    1    2  503  502  0.28936821387E+02  0.41863916276E+02  0.95139574234E+01  0.51772990099E+02  0.00000000000E+00 0.  1.
         21    1    1    2  504  501 -0.55294086260E+02  0.49433671169E+01  0.14020414488E+04  0.14031400846E+04  0.00000000000E+00 0. -1.
         21    1    1    2  505  504 -0.70089620883E+02 -0.20957556787E+02 -0.79904914611E+01  0.73590910415E+02  0.00000000000E+00 0. -1.
         21    1    1    2  506  503  0.96446885756E+02 -0.25849726606E+02 -0.86811694817E+02  0.13231205725E+03  0.00000000000E+00 0.  1.
<scales pt_clust_3="50.89133" pt_clust_4="55.42350" pt_clust_5="86.91004" pt_clust_6="14000.00000"></scales>
<clustering>
<clus scale="   50.891">  2  3  1 -1</clus>
<clus scale="   55.424">  1  4  2 -1</clus>
<clus scale="   86.910">  1  5  2 -1</clus>
<clus scale="   55.424">  1  3  2 -1</clus>
</clustering>
</event>
<event>
 6    0  0.5563122E+002  0.1246087E+03  0.7546771E-02  0.1235682E+00
         21   -1    0    0  503  501  0.00000000000E+00  0.00000000000E+00  0.88198237867E+03  0.88198237867E+03  0.00000000000E+00 0.  1.
         21   -1    0    0  505  502 -0.00000000000E+00 -0.00000000000E+00 -0.23854974209E+04  0.23854974209E+04  0.00000000000E+00 0.  1.
         21    1    1    2  503  502  0.37969497008E+02  0.26119062410E+02 -0.16457187440E+03  0.17090286706E+03  0.00000000000E+00 0. -1.
         21    1    1    2  504  506 -0.53873860564E+02 -0.69870480628E+02  0.34187748562E+02  0.94620711617E+02  0.00000000000E+00 0. -1.
         21    1    1    2  505  504  0.66324558329E+02  0.49016021424E+02 -0.21859763481E+04  0.21875315111E+04  0.00000000000E+00 0.  1.
         21    1    1    2  506  501 -0.50420194773E+02 -0.52646032061E+01  0.81284543173E+03  0.81442470982E+03  0.00000000000E+00 0.  1.
<scales pt_clust_3="46.08566" pt_clust_4="14000.00000" pt_clust_5="124.60872" pt_clust_6="50.67989"></scales>
<clustering>
<clus scale="   46.086">  2  3  1 -1</clus>
<clus scale="   50.680">  1  6  2 -1</clus>
<clus scale="  124.609">  2  5  1 -1</clus>
<clus scale="   50.680">  1  3  2 -1</clus>
</clustering>
</event>
<event>
 6    0  0.5563122E+002  0.1340108E+03  0.7546771E-02  0.1221623E+00
         21   -1    0    0  506  501  0.00000000000E+00  0.00000000000E+00  0.43739690042E+03  0.43739690042E+03  0.00000000000E+00 0.  1.
         21   -1    0    0  503  502 -0.00000000000E+00 -0.00000000000E+00 -0.10514597525E+03  0.10514597525E+03  0.00000000000E+00 0.  1.
         21    1    1    2  503  505 -0.69680240732E+02 -0.25847705341E+02  0.48098399793E+02  0.88526244033E+02  0.00000000000E+00 0.  1.
         21    1    1    2  504  502 -0.32050532987E+02  0.30004748342E+02 -0.43317717149E+01  0.44116729638E+02  0.00000000000E+00 0.  1.
         21    1    1    2  505  501  0.22560446464E+02 -0.13437455623E+03  0.16330778008E+03  0.21268503977E+03  0.00000000000E+00 0.  1.
         21    1    1    2  506  504  0.79170327255E+02  0.13021751323E+03  0.12517651701E+03  0.19721486222E+03  0.00000000000E+00 0.  1.
<scales pt_clust_3="79.82472" pt_clust_4="43.90355" pt_clust_5="14000.00000" pt_clust_6="134.01084"></scales>
<clustering>
<clus scale="   43.904">  2  4  1 -1</clus>
<clus scale="   79.825">  2  3  1 -1</clus>
<clus scale="  134.011">  2  6  1 -1</clus>
<clus scale="  134.011">  1  3  2 -1</clus>
</clustering>
</event>
<event>
 6    0  0.5563122E+002  0.3947040E+03  0.7546771E-02  0.1045629E+00
         21   -1    0    0  505  501  0.00000000000E+00  0.00000000000E+00  0.35053306861E+04  0.35053306861E+04  0.00000000000E+00 0.  1.
         21   -1    0    0  503  502 -0.00000000000E+00 -0.00000000000E+00 -0.69409035951E+02  0.69409035951E+02  0.00000000000E+00 0.  1.
         21    1    1    2  503  501  0.18412622302E+03  0.31022685316E+03  0.17582349361E+04  0.17948630190E+04  0.00000000000E+00 0.  1.
         21    1    1    2  504  506 -0.17206146472E+03 -0.13349657481E+03  0.42860995636E+03  0.48076291228E+03  0.00000000000E+00 0.  1.
         21    1    1    2  505  504  0.12693650034E+03 -0.36091220392E+02  0.76345761671E+03  0.77477931298E+03  0.00000000000E+00 0. -1.
         21    1    1    2  506  502 -0.13900125864E+03 -0.14063905795E+03  0.48561914091E+03  0.52433447773E+03  0.00000000000E+00 0.  1.
<scales pt_clust_3="391.52992" pt_clust_4="47.60195" pt_clust_5="131.96761" pt_clust_6="47.60195"></scales>
<clustering>
<clus scale="   47.602">  4  6 -1 -1</clus>
<clus scale="  131.968">  1  5  2 -1</clus>
<clus scale="  391.530">  1  3  2 -1</clus>
<clus scale="  131.968">  1  3  2 -1</clus>
</clustering>
</event>
<event>
 6    0  0.5563122E+002  0.1248268E+03  0.7546771E-02  0.1235340E+00
         21   -1    0    0  504  501  0.00000000000E+00  0.00000000000E+00  0.21408604803E+04  0.21408604803E+04  0.00000000000E+00 0.  1.
         21   -1    0    0  503  502 -0.00000000000E+00 -0.00000000000E+00 -0.26640156549E+02  0.26640156549E+02  0.00000000000E+00 0.  1.
         21    1    1    2  503  505  0.10877917474E+03  0.86067589750E+02  0.23334457500E+03  0.27145944365E+03  0.00000000000E+00 0.  1.
         21    1    1    2  504  506 -0.94364135332E+02 -0.63940460637E+02  0.15409687851E+04  0.15451788793E+04  0.00000000000E+00 0.  1.
         21    1    1    2  505  501  0.20521853679E+02 -0.38256557766E+02  0.23810561368E+03  0.24203097726E+03  0.00000000000E+00 0.  1.
         21    1    1    2  506  502 -0.34936893087E+02  0.16129428653E+02  0.10180135000E+03  0.10883133661E+03  0.00000000000E+00 0.  1.
<scales pt_clust_3="124.82680" pt_clust_4="14000.00000" pt_clust_5="40.85258" pt_clust_6="38.48045"></scales>
<clustering>
<clus scale="   38.480">  2  6  1 -1</clus>
<clus scale="   40.853">  1  5  2 -1</clus>
<clus scale="  124.827">  2  3  1 -1</clus>
<clus scale="   40.853">  1  3  2 -1</clus>
</clustering>
</event>
<event>
 6    0  0.5563122E+002  0.9590074E+02  0.7546771E-02  0.1289160E+00
         21   -1    0    0  504  501  0.00000000000E+00  0.00000000000E+00  0.81062496289E+03  0.81062496289E+03  0.00000000000E+00 0.  1.
         21   -1    0    0  506  502 -0.00000000000E+00 -0.00000000000E+00 -0.18885303526E+03  0.18885303526E+03  0.00000000000E+00 0.  1.
         21    1    1    2  503  502  0.28555573838E+02 -0.83951415312E+02  0.96366216004E+02  0.13095689564E+03  0.00000000000E+00 0.  1.
         21    1    1    2  504  503 -0.52424335817E+02  0.10366542440E+01  0.16305349993E+03  0.17127705474E+03  0.00000000000E+00 0. -1.
         21    1    1    2  505  501  0.49327544654E+02  0.10123078316E+03  0.52227388974E+03  0.53427604665E+03  0.00000000000E+00 0.  1.
         21    1    1    2  506  505 -0.25458782675E+02 -0.18316022089E+02 -0.15992167805E+03  0.16296800112E+03  0.00000000000E+00 0.  1.
<scales pt_clust_3="95.90074" pt_clust_4="56.26969" pt_clust_5="14000.00000" pt_clust_6="31.36282"></scales>
<clustering>
<clus scale="   31.363">  2  6  1 -1</clus>
<clus scale="   56.270">  1  4  2 -1</clus>
<clus scale="   95.901">  2  3  1 -1</clus>
<clus scale="   56.270">  1  3  2 -1</clus>
</clustering>
</event>
<event>
 6    0  0.5563122E+002  0.2019977E+03  0.7546771E-02  0.1148064E+00
         21   -1    0    0  505  501  0.00000000000E+00  0.00000000000E+00  0.58689135630E+03  0.58689135630E+03  0.00000000000E+00 0.  1.
         21   -1    0    0  504  502 -0.00000000000E+00 -0.00000000000E+00 -0.19254414459E+03  0.19254414459E+03  0.00000000000E+00 0.  1.
         21    1    1    2  503  506  0.67797979514E+01 -0.13285127120E+03  0.25598258024E+02  0.13546474351E+03  0.00000000000E+00 0.  1.
         21    1    1    2  504  503 -0.30776928040E+02  0.50659951586E+01 -0.42679530799E+02  0.52862330215E+02  0.00000000000E+00 0.  1.
         21    1    1    2  505  502  0.15948267685E+03  0.20273912546E+03  0.32099945580E+03  0.41179913530E+03  0.00000000000E+00 0.  1.
         21    1    1    2  506  501 -0.13548554676E+03 -0.74953849415E+02  0.90429028679E+02  0.17930929187E+03  0.00000000000E+00 0. -1.
<scales pt_clust_3="131.02061" pt_clust_4="31.19108" pt_clust_5="201.99765" pt_clust_6="14000.00000"></scales>
<clustering>
<clus scale="   31.191">  2  4  1 -1</clus>
<clus scale="  131.021">  2  3  1 -1</clus>
<clus scale="  201.998">  2  5  1 -1</clus>
<clus scale="  201.998">  1  3  2 -1</clus>
</clustering>
</event>
<event>
 6    0  0.5563122E+002  0.1350953E+03  0.7546771E-02  0.1220085E+00
         21   -1    0    0  505  501  0.00000000000E+00  0.00000000000E+00  0.93498675217E+03  0.93498675217E+03  0.00000000000E+00 0.  1.
         21   -1    0    0  503  502 -0.00000000000E+00 -0.00000000000E+00 -0.49786508071E+03  0.49786508071E+03  0.00000000000E+00 0.  1.
         21    1    1    2  503  504  0.33254369265E+02 -0.61937433503E+02  0.47019042825E+02  0.84574754698E+02  0.00000000000E+00 0.  1.
         21    1    1    2  504  501  0.17509258459E+02  0.13709624539E+03  0.72768826430E+03  0.74069708021E+03  0.00000000000E+00 0.  1.
         21    1    1    2  505  506 -0.73174042852E+02 -0.10913682072E+03  0.10185894358E+03  0.16625441520E+03  0.00000000000E+00 0.  1.
         21    1    1    2  506  502  0.22410415128E+02  0.33978008836E+02 -0.43944457924E+03  0.44132558278E+03  0.00000000000E+00 0.  1.
<scales pt_clust_3="65.04465" pt_clust_4="135.09531" pt_clust_5="14000.00000" pt_clust_6="40.70297"></scales>
<clustering>
<clus scale="   40.703">  2  6  1 -1</clus>
<clus scale="   65.045">  2  3  1 -1</clus>
<clus scale="  135.095">  1  4  2 -1</clus>
<clus scale="  135.095">  1  3  2 -1</clus>
</clustering>
</event>
<event>
 6    0  0.5563122E+002  0.1100508E+03  0.7546771E-02  0.1260476E+00
         21   -1    0    0  505  501  0.00000000000E+00  0.00000000000E+00  0.13896028190E+03  0.13896028190E+03  0.00000000000E+00 0.  1.
         21   -1    0    0  504  502 -0.00000000000E+00 -0.00000000000E+00 -0.86614111180E+03  0.86614111180E+03  0.00000000000E+00 0.  1.
         21    1    1    2  503  502 -0.22237938438E+02  0.65199224142E+02 -0.31676657370E+03  0.32417052141E+03  0.00000000000E+00 0. -1.
         21    1    1    2  504  501  0.64414426528E+02 -0.41040716768E+02  0.10967715395E+03  0.13365117611E+03  0.00000000000E+00 0.  1.
         21    1    1    2  505  506  0.28219642171E+02 -0.34611768018E+02 -0.34318502288E+02  0.56321241897E+02  0.00000000000E+00 0. -1.
         21    1    1    2  506  503 -0.70396130261E+02  0.10453260644E+02 -0.48577290787E+03  0.49095845428E+03  0.00000000000E+00 0.  1.
<scales pt_clust_3="67.67753" pt_clust_4="110.05080" pt_clust_5="44.65784" pt_clust_6="14000.00000"></scales>
<clustering>
<clus scale="   44.658">  1  5  2 -1</clus>
<clus scale="   67.678">  2  3  1 -1</clus>
<clus scale="  110.051">  1  4  2 -1</clus>
<clus scale="   44.658">  1  3  2 -1</clus>
</clustering>
</event>
<event>
 6    0  0.5563122E+002  0.6769419E+02  0.7546771E-02  0.1368114E+00
         21   -1    0    0  505  501  0.00000000000E+00  0.00000000000E+00  0.33824320916E+03  0.33824320916E+03  0.00000000000E+00 0.  1.
         21   -1    0    0  503  502 -0.00000000000E+00 -0.00000000000E+00 -0.12490804918E+04  0.12490804918E+04  0.00000000000E+00 0. -1.
         21    1    1    2  503  504 -0.74589246828E+02 -0.48207858953E+02  0.91813435633E+02  0.12773903229E+03  0.00000000000E+00 0.  1.
         21    1    1    2  504  501  0.37690253744E+02  0.24269440020E+02  0.33822874116E+02  0.56156457862E+02  0.00000000000E+00 0.  1.
         21    1    1    2  505  506  0.49861478623E+02 -0.34972353516E+02  0.17765378460E+03  0.18780335392E+03  0.00000000000E+00 0.  1.
         21    1    1    2  506  502 -0.12962485538E+02  0.58910772449E+02 -0.12141273770E+04  0.12156248569E+04  0.00000000000E+00 0. -1.
<scales pt_clust_3="14000.00000" pt_clust_4="44.82813" pt_clust_5="67.69419" pt_clust_6="60.35996"></scales>
<clustering>
<clus scale="   44.828">  1  4  2 -1</clus>
<clus scale="   60.360">  2  6  1 -1</clus>
<clus scale="   67.694">  1  5  2 -1</clus>
<clus scale="   44.828">  1  3  2 -1</clus>
</clustering>
</event>
<event>
 6    0  0.5563122E+002  0.2113291E+03  0.7546771E-02  0.1140518E+00
         21   -1    0    0  506  501  0.00000000000E+00  0.00000000000E+00  0.18005376552E+03  0.18005376552E+03  0.00000000000E+00 0. -1.
         21   -1    0    0  501  502 -0.00000000000E+00 -0.00000000000E+00 -0.90724895135E+03  0.90724895135E+03  0.00000000000E+00 0. -1.
         21    1    1    2  503  505 -0.37360658217E+02 -0.15622836378E+03 -0.22661933897E+03  0.27777589029E+03  0.00000000000E+00 0. -1.
         21    1    1    2  504  502 -0.54844389497E+02  0.59758421476E+02 -0.14788930575E+03  0.16867193824E+03  0.00000000000E+00 0.  1.
         21    1    1    2  505  504  0.30989848763E+02 -0.12686103539E+03 -0.38545781135E+03  0.40697889056E+03  0.00000000000E+00 0. -1.
         21    1    1    2  506  503  0.61215198951E+02  0.22333097770E+03  0.32771270236E+02  0.23387599778E+03  0.00000000000E+00 0. -1.
<scales pt_clust_3="14000.00000" pt_clust_4="81.11089" pt_clust_5="95.26820" pt_clust_6="211.32908"></scales>
<clustering>
<clus scale="   81.111">  2  4  1 -1</clus>
<clus scale="   95.268">  2  5  1 -1</clus>
<clus scale="  211.329">  1  6  2 -1</clus>
<clus scale="  211.329">  1  3  2 -1</clus>
</clustering>
</event>
<event>
 6    0  0.5563122E+002  0.1517511E+03  0.7546771E-02  0.1198338E+00
         21   -1    0    0  503  501  0.00000000000E+00  0.00000000000E+00  0.13116725405E+03  0.13116725405E+03  0.00000000000E+00 0.  1.
         21   -1    0    0  504  502 -0.00000000000E+00 -0.00000000000E+00 -0.48661028829E+03  0.48661028829E+03  0.00000000000E+00 0.  1.
         21    1    1    2  503  502 -0.13196023564E+03  0.29247433380E+02 -0.30397369016E+03  0.33266938612E+03  0.00000000000E+00 0.  1.
         21    1    1    2  504  506  0.21560510720E+02  0.27159021087E+02 -0.24410217484E+02  0.42406683041E+02  0.00000000000E+00 0.  1.
         21    1    1    2  505  501  0.11977012260E+03 -0.10251744432E+03  0.38230692584E+02  0.16222297776E+03  0.00000000000E+00 0.  1.
         21    1    1    2  506  505 -0.93703976786E+01  0.46110989848E+02 -0.65289819185E+02  0.80478495429E+02  0.00000000000E+00 0. -1.
<scales pt_clust_3="151.75112" pt_clust_4="33.66209" pt_clust_5="14000.00000" pt_clust_6="83.99209"></scales>
<clustering>
<clus scale="   33.662">  4  6 -1 -1</clus>
<clus scale="   83.992">  2  4  1 -1</clus>
<clus scale="  151.751">  2  3  1 -1</clus>
<clus scale="  151.751">  1  3  2 -1</clus>
</clustering>
</event>
<event>
 6    0  0.5563122E+002  0.8192773E+02  0.7546771E-02  0.1323668E+00
         21   -1    0    0  504  501  0.00000000000E+00  0.00000000000E+00  0.39496478083E+02  0.39496478083E+02  0.00000000000E+00 0.  1.
         21   -1    0    0  506  502 -0.00000000000E+00 -0.00000000000E+00 -0.19408908952E+04  0.19408908952E+04  0.00000000000E+00 0. -1.
         21    1    1    2  503  501 -0.29881455530E+02 -0.76005674647E+02 -0.22078551058E+02  0.84600392315E+02  0.00000000000E+00 0.  1.
         21    1    1    2  504  502  0.14997546912E+02 -0.57854541636E+02 -0.97602177342E+03  0.97784997653E+03  0.00000000000E+00 0. -1.
         21    1    1    2  505  503  0.53779307299E+02  0.68906751599E+02 -0.46212782308E+03  0.47032167628E+03  0.00000000000E+00 0. -1.
         21    1    1    2  506  505 -0.38895398680E+02  0.64953464684E+02 -0.44116626954E+03  0.44761532815E+03  0.00000000000E+00 0. -1.
<scales pt_clust_3="14000.00000" pt_clust_4="59.76683" pt_clust_5="81.92773" pt_clust_6="49.88314"></scales>
<clustering>
<clus scale="   59.767">  2  4  1 -1</clus>
<clus scale="   49.883">  2  6  1 -1</clus>
<clus scale="   81.928">  2  5  1 -1</clus>
<clus scale="   81.928">  1  3  2 -1</clus>
</clustering>
</event>
<event>
 6    0  0.5563122E+002  0.1042803E+03  0.7546771E-02  0.1271544E+00
         21   -1    0    0  503  501  0.00000000000E+00  0.00000000000E+00  0.24770318495E+03  0.24770318495E+03  0.00000000000E+00 0. -1.
         21   -1    0    0  505  502 -0.00000000000E+00 -0.00000000000E+00 -0.32065915212E+03  0.32065915212E+03  0.00000000000E+00 0.  1.
         21    1    1    2  503  502 -0.26503788041E+02 -0.40954340184E+02 -0.94715797861E+01  0.49693254916E+02  0.00000000000E+00 0.  1.
         21    1    1    2  504  506 -0.71095496249E+01  0.13461007844E+03  0.90415816094E+02  0.16231278050E+03  0.00000000000E+00 0.  1.
         21    1    1    2  505  504 -0.17456296577E+02 -0.58095368628E+02 -0.24144406747E+03  0.24894784969E+03  0.00000000000E+00 0.  1.
         21    1    1    2  506  501  0.51069634244E+02 -0.35560369632E+02  0.87543863992E+02  0.10740845196E+03  0.00000000000E+00 0. -1.
<scales pt_clust_3="48.78226" pt_clust_4="104.28033" pt_clust_5="14000.00000" pt_clust_6="62.30919"></scales>
<clustering>
<clus scale="   48.782">  2  3  1 -1</clus>
<clus scale="   62.309">  1  6  2 -1</clus>
<clus scale="  104.280">  1  4  2 -1</clus>
<clus scale="   62.309">  1  3  2 -1</clus>
</clustering>
</event>
<event>
 6    0  0.5563122E+002  0.1727141E+03  0.7546771E-02  0.1175047E+00
         21   -1    0    0  503  501  0.00000000000E+00  0.00000000000E+00  0.54447677343E+02  0.54447677343E+02  0.00000000000E+00 0.  1.
         21   -1    0    0  504  502 -0.00000000000E+00 -0.00000000000E+00 -0.90253925843E+03  0.90253925843E+03  0.00000000000E+00 0. -1.
         21    1    1    2  503  505 -0.43972773277E+02 -0.82274469569E+01 -0.21858085087E+02  0.49790275725E+02  0.00000000000E+00 0. -1.
         21    1    1    2  504  501 -0.38488599273E+02 -0.26856895912E+02 -0.28635009293E+03  0.29017070985E+03  0.00000000000E+00 0. -1.
         21    1    1    2  505  506 -0.82946397177E+02 -0.63481612206E+02 -0.15900752720E+03  0.19024566644E+03  0.00000000000E+00 0. -1.
         21    1    1    2  506  502  0.16540776973E+03  0.98565955075E+02 -0.38087587586E+03  0.42678028375E+03  0.00000000000E+00 0.  1.
<scales pt_clust_3="39.56113" pt_clust_4="46.93256" pt_clust_5="39.56113" pt_clust_6="161.78983"></scales>
<clustering>
<clus scale="   39.561">  3  5 -1 -1</clus>
<clus scale="   46.933">  2  4  1 -1</clus>
<clus scale="  161.790">  2  6  1 -1</clus>
<clus scale="  172.714">  1  3  2 -1</clus>
</clustering>
</event>
<event>
 6    0  0.5563122E+002  0.1273377E+03  0.7546771E-02  0.1231460E+00
         21   -1    0    0  503  501  0.00000000000E+00  0.00000000000E+00  0.21669983323E+03  0.21669983323E+03  0.00000000000E+00 0.  1.
         21   -1    0    0  506  502 -0.00000000000E+00 -0.00000000000E+00 -0.36750075874E+03  0.36750075874E+03  0.00000000000E+00 0.  1.
         21    1    1    2  503  505  0.39154751986E+02  0.41081664214E+02  0.13471727338E+03  0.14618324625E+03  0.00000000000E+00 0.  1.
         21    1    1    2  504  501 -0.50162092248E+02  0.10050940536E+03 -0.36608503964E+02  0.11814634411E+03  0.00000000000E+00 0.  1.
         21    1    1    2  505  502  0.64222611524E+02 -0.12462886880E+03 -0.20713487027E+03  0.25012347601E+03  0.00000000000E+00 0.  1.
         21    1    1    2  506  504 -0.53215271262E+02 -0.16962200777E+02 -0.41774824651E+02  0.69747525586E+02  0.00000000000E+00 0.  1.
<scales pt_clust_3="55.85325" pt_clust_4="14000.00000" pt_clust_5="127.33774" pt_clust_6="55.85321"></scales>
<clustering>
<clus scale="   55.853">  2  6  1 -1</clus>
<clus scale="   55.853">  1  3  2 -1</clus>
<clus scale="  127.338">  2  5  1 -1</clus>
<clus scale="   55.853">  1  3  2 -1</clus>
</clustering>
</event>
<event>
 6    0  0.5563122E+002  0.2057509E+03  0.7546771E-02  0.1144976E+00
         21   -1    0    0  503  501  0.00000000000E+00  0.00000000000E+00  0.28170075073E+04  0.28170075073E+04  0.00000000000E+00 0.  1.
         21   -1    0    0  505  502 -0.00000000000E+00 -0.00000000000E+00 -0.27379728332E+02  0.27379728332E+02  0.00000000000E+00 0.  1.
         21    1    1    2  503  504  0.95180272453E+02 -0.41982941476E+02  0.46492766574E+03  0.47642374627E+03  0.00000000000E+00 0.  1.
         21    1    1    2  504  506  0.10309712236E+03 -0.59042606899E+02  0.73117775746E+03  0.74076714228E+03  0.00000000000E+00 0.  1.
         21    1    1    2  505  501 -0.17089085489E+03  0.86199082348E+02  0.15826937921E+04  0.15942250800E+04  0.00000000000E+00 0.  1.
         21    1    1    2  506  502 -0.27386539921E+02  0.14826466027E+02  0.10828563668E+02  0.32971267109E+02  0.00000000000E+00 0. -1.
<scales pt_clust_3="34.04647" pt_clust_4="34.04647" pt_clust_5="202.40566" pt_clust_6="31.14236"></scales>
<clustering>
<clus scale="   31.142">  2  6  1 -1</clus>
<clus scale="   34.046">  3  4 -1 -1</clus>
<clus scale="  202.406">  1  5  2 -1</clus>
<clus scale="  202.406">  1  3  2 -1</clus>
</clustering>
</event>
<event>
 6    0  0.5563122E+002  0.1251629E+03  0.7546771E-02  0.1234815E+00
         21   -1    0    0  504  501  0.00000000000E+00  0.00000000000E+00  0.11633442792E+04  0.11633442792E+04  0.00000000000E+00 0.  1.
         21   -1    0    0  506  502 -0.00000000000E+00 -0.00000000000E+00 -0.90229272929E+02  0.90229272929E+02  0.00000000000E+00 0. -1.
         21    1    1    2  503  501  0.37250451558E+02  0.10945374784E+03  0.10380151042E+04  0.10444343329E+04  0.00000000000E+00 0.  1.
         21    1    1    2  504  502  0.34898580804E+02 -0.13349762655E+02  0.69517755701E+02  0.78923035058E+02  0.00000000000E+00 0.  1.
         21    1    1    2  505  503 -0.22313716856E+02 -0.54225778113E+02 -0.52083901402E+01  0.58868194296E+02  0.00000000000E+00 0.  1.
         21    1    1    2  506  505 -0.49835315506E+02 -0.41878207076E+02 -0.29209463548E+02  0.71347989882E+02  0.00000000000E+00 0. -1.
<scales pt_clust_3="119.73110" pt_clust_4="37.36478" pt_clust_5="34.61572" pt_clust_6="34.61572"></scales>
<clustering>
<clus scale="   34.616">  5  6 -1 -1</clus>
<clus scale="   37.365">  1  4  2 -1</clus>
<clus scale="  119.731">  1  3  2 -1</clus>
<clus scale="   37.365">  1  3  2 -1</clus>
</clustering>
</event>
<event>
 6    0  0.5563122E+002  0.1429544E+03  0.7546771E-02  0.1209408E+00
         21   -1    0    0  506  501  0.00000000000E+00  0.00000000000E+00  0.75093708427E+03  0.75093708427E+03  0.00000000000E+00 0. -1.
         21   -1    0    0  504  502 -0.00000000000E+00 -0.00000000000E+00 -0.38573467045E+02  0.38573467045E+02  0.00000000000E+00 0. -1.
         21    1    1    2  503  501 -0.98962522914E+02  0.55723348653E+02  0.23393743834E+03  0.26004883692E+03  0.00000000000E+00 0. -1.
         21    1    1    2  504  503 -0.10434799019E+02  0.35231479657E+02  0.51897861241E+02  0.63588758368E+02  0.00000000000E+00 0. -1.
         21    1    1    2  505  502  0.35695799923E+02  0.15430035160E+02  0.31070051394E+02  0.49775739179E+02  0.00000000000E+00 0. -1.
         21    1    1    2  506  505  0.73701522010E+02 -0.10638486347E+03  0.39545826625E+03  0.41609721685E+03  0.00000000000E+00 0. -1.
<scales pt_clust_3="30.09219" pt_clust_4="30.09219" pt_clust_5="38.88799" pt_clust_6="132.80448"></scales>
<clustering>
<clus scale="   30.092">  3  4 -1 -1</clus>
<clus scale="   38.888">  2  5  1 -1</clus>
<clus scale="  132.804">  1  6  2 -1</clus>
<clus scale="  132.804">  1  3  2 -1</clus>
</clustering>
</event>
<event>
 6    0  0.5563122E+002  0.1219179E+03  0.7546771E-02  0.1239966E+00
         21   -1    0    0  505  501  0.00000000000E+00  0.00000000000E+00  0.44589805164E+02  0.44589805164E+02  0.00000000000E+00 0. -1.
         21   -1    0    0  503  502 -0.00000000000E+00 -0.00000000000E+00 -0.99173630107E+03  0.99173630107E+03  0.00000000000E+00 0.  1.
         21    1    1    2  503  501  0.27053596879E+02 -0.54611096894E+02 -0.20630819900E+03  0.21512169110E+03  0.00000000000E+00 0.  1.
         21    1    1    2  504  502  0.93306598173E+02 -0.15027974053E+02 -0.51888382031E+03  0.52742049661E+03  0.00000000000E+00 0.  1.
         21    1    1    2  505  506  0.94833090563E+01  0.32310097653E+02  0.31584480828E+00  0.33674550018E+02  0.00000000000E+00 0. -1.
         21    1    1    2  506  504 -0.12984350411E+03  0.37328973294E+02 -0.22227032141E+03  0.26010936851E+03  0.00000000000E+00 0.  1.
<scales pt_clust_3="57.11011" pt_clust_4="121.91786" pt_clust_5="33.67307" pt_clust_6="14000.00000"></scales>
<clustering>
<clus scale="   33.673">  1  5  2 -1</clus>
<clus scale="   57.110">  2  3  1 -1</clus>
<clus scale="  121.918">  2  4  1 -1</clus>
<clus scale="   33.673">  1  3  2 -1</clus>
</clustering>
</event>
<event>
 6    0  0.5563122E+002  0.1203765E+03  0.7546771E-02  0.1242477E+00
         21   -1    0    0  504  501  0.00000000000E+00  0.00000000000E+00  0.12416041100E+04  0.12416041100E+04  0.00000000000E+00 0.  1.
         21   -1    0    0  505  502 -0.00000000000E+00 -0.00000000000E+00 -0.28904379564E+03  0.28904379564E+03  0.00000000000E+00 0.  1.
         21    1    1    2  503  506  0.10047524060E+03 -0.61449242622E+01  0.23201835137E+03  0.25291411475E+03  0.00000000000E+00 0.  1.
         21    1    1    2  504  503 -0.10932740560E+03 -0.12551112754E+03  0.93237337413E+03  0.94711437194E+03  0.00000000000E+00 0.  1.
         21    1    1    2  505  501 -0.82078904485E+01  0.35061780252E+02  0.43866053524E+02  0.56753225035E+02  0.00000000000E+00 0.  1.
         21    1    1    2  506  502  0.17060055447E+02  0.96594271545E+02 -0.25569746461E+03  0.27386619396E+03  0.00000000000E+00 0.  1.
<scales pt_clust_3="14000.00000" pt_clust_4="120.37651" pt_clust_5="36.00969" pt_clust_6="98.34171"></scales>
<clustering>
<clus scale="   36.010">  1  5  2 -1</clus>
<clus scale="   98.342">  2  6  1 -1</clus>
<clus scale="  120.377">  1  4  2 -1</clus>
<clus scale="   36.010">  1  3  2 -1</clus>
</clustering>
</event>
<event>
 6    0  0.5563122E+002  0.9027274E+02  0.7546771E-02  0.1302193E+00
         21   -1    0    0  503  501  0.00000000000E+00  0.00000000000E+00  0.36185758920E+03  0.36185758920E+03  0.00000000000E+00 0. -1.
         21   -1    0    0  506  502 -0.00000000000E+00 -0.00000000000E+00 -0.47114826837E+03  0.47114826837E+03  0.00000000000E+00 0.  1.
         21    1    1    2  503  505  0.59822898455E+02 -0.10823577972E+02  0.18027257013E+03  0.19024754548E+03  0.00000000000E+00 0. -1.
         21    1    1    2  504  502  0.54885140623E+01 -0.64361876945E+02  0.19327533619E+01  0.64624380276E+02  0.00000000000E+00 0.  1.
         21    1    1    2  505  504 -0.85299763606E+02  0.10722986343E+03  0.10947843611E+03  0.17538478057E+03  0.00000000000E+00 0. -1.
         21    1    1    2  506  501  0.19988351089E+02 -0.32044408514E+02 -0.40097443877E+03  0.40274915126E+03  0.00000000000E+00 0.  1.
<scales pt_clust_3="62.65304" pt_clust_4="90.27274" pt_clust_5="14000.00000" pt_clust_6="37.76742"></scales>
<clustering>
<clus scale="   37.767">  2  6  1 -1</clus>
<clus scale="   62.653">  1  3  2 -1</clus>
<clus scale="   90.273">  2  4  1 -1</clus>
<clus scale="   62.653">  1  3  2 -1</clus>
</clustering>
</event>
<event>
 6    0  0.5563122E+002  0.1850411E+03  0.7546771E-02  0.1163012E+00
         21   -1    0    0  504  501  0.00000000000E+00  0.00000000000E+00  0.11167745040E+04  0.11167745040E+04  0.00000000000E+00 0.  1.
         21   -1    0    0  505  502 -0.00000000000E+00 -0.00000000000E+00 -0.63906713984E+02  0.63906713984E+02  0.00000000000E+00 0.  1.
         21    1    1    2  503  502 -0.17939308569E+03  0.10756445420E+03  0.23686442040E+03  0.31600117825E+03  0.00000000000E+00 0.  1.
         21    1    1    2  504  503  0.31847864379E+02  0.32151541806E+02  0.28225102423E+03  0.28585599309E+03  0.00000000000E+00 0.  1.
         21    1    1    2  505  506  0.11668632393E+03 -0.10965838187E+03  0.28978887477E+03  0.33108647034E+03  0.00000000000E+00 0.  1.
         21    1    1    2  506  501  0.30858897382E+02 -0.30057614141E+02  0.24396347062E+03  0.24773757631E+03  0.00000000000E+00 0.  1.
<scales pt_clust_3="185.04110" pt_clust_4="47.49846" pt_clust_5="14000.00000" pt_clust_6="43.07820"></scales>
<clustering>
<clus scale="   43.078">  1  6  2 -1</clus>
<clus scale="   47.498">  1  4  2 -1</clus>
<clus scale="  185.041">  2  3  1 -1</clus>
<clus scale="   43.078">  1  3  2 -1</clus>
</clustering>
</event>
<event>
 6    0  0.5563122E+002  0.6579201E+02  0.7546771E-02  0.1375017E+00
         21   -1    0    0  503  501  0.00000000000E+00  0.00000000000E+00  0.34637257266E+03  0.34637257266E+03  0.00000000000E+00 0. -1.
         21   -1    0    0  504  502 -0.00000000000E+00 -0.00000000000E+00 -0.11628617655E+03  0.11628617655E+03  0.00000000000E+00 0. -1.
         21    1    1    2  503  506  0.35629942945E+01  0.85956402541E+02  0.15229454968E+03  0.17491377284E+03  0.00000000000E+00 0. -1.
         21    1    1    2  504  505 -0.63477475901E+02  0.19901903107E+00  0.73996359190E+02  0.97493029129E+02  0.00000000000E+00 0. -1.
         21    1    1    2  505  501 -0.44206197870E+00 -0.57049283199E+02  0.73843428512E+02  0.93314886629E+02  0.00000000000E+00 0. -1.
         21    1    1    2  506  502  0.60356543586E+02 -0.29106138373E+02 -0.70047941264E+02  0.96937060611E+02  0.00000000000E+00 0. -1.
<scales pt_clust_3="50.54695" pt_clust_4="65.79201" pt_clust_5="57.05100" pt_clust_6="14000.00000"></scales>
<clustering>
<clus scale="   57.051">  1  5  2 -1</clus>
<clus scale="   50.547">  1  3  2 -1</clus>
<clus scale="   65.792">  1  4  2 -1</clus>
<clus scale="   57.051">  1  3  2 -1</clus>
</clustering>
</event>
<event>
 6    0  0.5563122E+002  0.1010826E+03  0.7546771E-02  0.1278036E+00
         21   -1    0    0  506  501  0.00000000000E+00  0.00000000000E+00  0.15999819561E+04  0.15999819561E+04  0.00000000000E+00 0.  1.
         21   -1    0    0  503  502 -0.00000000000E+00 -0.00000000000E+00 -0.11435172411E+03  0.11435172411E+03  0.00000000000E+00 0.  1.
         21    1    1    2  503  504 -0.66084605776E+01 -0.37086255065E+02 -0.76469219378E+02  0.85244375640E+02  0.00000000000E+00 0.  1.
         21    1    1    2  504  501 -0.41927988281E+02 -0.11667947223E+02  0.23456717648E+03  0.23857044552E+03  0.00000000000E+00 0.  1.
         21    1    1    2  505  502 -0.90777238294E+02  0.50165750029E+02  0.69623135210E+02  0.12491793476E+03  0.00000000000E+00 0.  1.
         21    1    1    2  506  505  0.13931368715E+03 -0.14115477419E+01  0.12579091396E+04  0.12656009243E+04  0.00000000000E+00 0.  1.
<scales pt_clust_3="37.67044" pt_clust_4="44.54211" pt_clust_5="101.08259" pt_clust_6="14000.00000"></scales>
<clustering>
<clus scale="   37.670">  2  3  1 -1</clus>
<clus scale="   44.542">  1  4  2 -1</clus>
<clus scale="  101.083">  2  5  1 -1</clus>
<clus scale="   44.542">  1  3  2 -1</clus>
</clustering>
</event>
<event>
 6    0  0.5563122E+002  0.1098922E+03  0.7546771E-02  0.1260770E+00
         21   -1    0    0  504  501  0.00000000000E+00  0.00000000000E+00  0.64340962211E+03  0.64340962211E+03  0.00000000000E+00 0.  1.
         21   -1    0    0  503  502 -0.00000000000E+00 -0.00000000000E+00 -0.14881602119E+03  0.14881602119E+03  0.00000000000E+00 0. -1.
         21    1    1    2  503  506 -0.34834600549E+02  0.19085710822E+01 -0.11862018904E+03  0.12364401031E+03  0.00000000000E+00 0. -1.
         21    1    1    2  504  505 -0.33526749118E+02  0.45123601414E+01  0.53047082384E+02  0.62915794916E+02  0.00000000000E+00 0. -1.
         21    1    1    2  505  502  0.20641588962E+02  0.10610099812E+03  0.26209193137E+03  0.28350604488E+03  0.00000000000E+00 0. -1.
         21    1    1    2  506  501  0.47719760705E+02 -0.11252192934E+03  0.29807477620E+03  0.32215979319E+03  0.00000000000E+00 0.  1.
<scales pt_clust_3="35.03155" pt_clust_4="33.82905" pt_clust_5="14000.00000" pt_clust_6="109.89225"></scales>
<clustering>
<clus scale="   33.829">  1  4  2 -1</clus>
<clus scale="   35.032">  2  3  1 -1</clus>
<clus scale="  109.892">  1  6  2 -1</clus>
<clus scale="   33.829">  1  3  2 -1</clus>
</clustering>
</event>
<event>
 6    0  0.5563122E+002  0.9631675E+02  0.7546771E-02  0.1288238E+00
         21   -1    0    0  504  501  0.00000000000E+00  0.00000000000E+00  0.15929371110E+03  0.15929371110E+03  0.00000000000E+00 0.  1.
         21   -1    0    0  505  502 -0.00000000000E+00 -0.00000000000E+00 -0.19357476043E+03  0.19357476043E+03  0.00000000000E+00 0. -1.
         21    1    1    2  503  506  0.66354814379E+01 -0.55060282784E+02 -0.33681242151E+00  0.55459695246E+02  0.00000000000E+00 0. -1.
         21    1    1    2  504  502  0.40354967646E+02 -0.67601765946E+02 -0.78398079968E+02  0.11110707050E+03  0.00000000000E+00 0. -1.
         21    1    1    2  505  503 -0.22870409428E+02  0.24178466180E+02 -0.41626527428E+02  0.53295606197E+02  0.00000000000E+00 0. -1.
         21    1    1    2  506  501 -0.24120039657E+02  0.98483582551E+02  0.86080370487E+02  0.13300609959E+03  0.00000000000E+00 0.  1.
<scales pt_clust_3="50.49475" pt_clust_4="14000.00000" pt_clust_5="33.28143" pt_clust_6="96.31675"></scales>
<clustering>
<clus scale="   33.281">  2  5  1 -1</clus>
<clus scale="   50.495">  2  3  1 -1</clus>
<clus scale="   96.317">  1  6  2 -1</clus>
<clus scale="   96.317">  1  3  2 -1</clus>
</clustering>
</event>
<event>
 6    0  0.5563122E+002  0.7024856E+02  0.7546771E-02  0.1359250E+00
         21   -1    0    0  506  501  0.00000000000E+00  0.00000000000E+00  0.12426658599E+03  0.12426658599E+03  0.00000000000E+00 0. -1.
         21   -1    0    0  505  502 -0.00000000000E+00 -0.00000000000E+00 -0.21963781258E+03  0.21963781258E+03  0.00000000000E+00 0. -1.
         21    1    1    2  503  501  0.28779744255E+02 -0.29412955708E+02  0.25247809594E+02  0.48278851811E+02  0.00000000000E+00 0.  1.
         21    1    1    2  504  503  0.42497060019E+02 -0.46372431730E+02 -0.30457036240E+02  0.69885861169E+02  0.00000000000E+00 0. -1.
         21    1    1    2  505  504 -0.81136343556E+02  0.84270565076E+01 -0.12500407911E+03  0.14926533864E+03  0.00000000000E+00 0. -1.
         21    1    1    2  506  502  0.98595392821E+01  0.67358330931E+02  0.34842079163E+02  0.76474346947E+02  0.00000000000E+00 0. -1.
<scales pt_clust_3="41.15089" pt_clust_4="14000.00000" pt_clust_5="70.24856" pt_clust_6="56.21459"></scales>
<clustering>
<clus scale="   41.151">  1  3  2 -1</clus>
<clus scale="   56.215">  1  6  2 -1</clus>
<clus scale="   70.249">  2  5  1 -1</clus>
<clus scale="   41.151">  1  3  2 -1</clus>
</clustering>
</event>
<event>
 6    0  0.5563122E+002  0.1516511E+03  0.7546771E-02  0.1198459E+00
         21   -1    0    0  504  501  0.00000000000E+00  0.00000000000E+00  0.53690982021E+03  0.53690982021E+03  0.00000000000E+00 0. -1.
         21   -1    0    0  506  502 -0.00000000000E+00 -0.00000000000E+00 -0.23399051108E+03  0.23399051108E+03  0.00000000000E+00 0. -1.
         21    1    1    2  503  501 -0.36197142860E+02 -0.97433979915E+02  0.78590310481E+02  0.13030752279E+03  0.00000000000E+00 0. -1.
         21    1    1    2  504  505  0.13225017312E+03 -0.31908775569E+02  0.37869116337E+03  0.40238697229E+03  0.00000000000E+00 0. -1.
         21    1    1    2  505  502  0.12146255889E+02  0.35698879791E+02 -0.40503287243E+02  0.55339478024E+02  0.00000000000E+00 0. -1.
         21    1    1    2  506  503 -0.10819928615E+03  0.93643875694E+02 -0.11385887748E+03  0.18286635819E+03  0.00000000000E+00 0. -1.
<scales pt_clust_3="98.70207" pt_clust_4="151.65108" pt_clust_5="37.70864" pt_clust_6="14000.00000"></scales>
<clustering>
<clus scale="   37.709">  2  5  1 -1</clus>
<clus scale="   98.702">  1  3  2 -1</clus>
<clus scale="  151.651">  1  4  2 -1</clus>
<clus scale="   98.702">  1  3  2 -1</clus>
</clustering>
</event>
<event>
 6    0  0.5563122E+002  0.1082260E+03  0.7546771E-02  0.1263891E+00
         21   -1    0    0  504  501  0.00000000000E+00  0.00000000000E+00  0.28063846687E+02  0.28063846687E+02  0.00000000000E+00 0.  1.
         21   -1    0    0  506  502 -0.00000000000E+00 -0.00000000000E+00 -0.11789487229E+04  0.11789487229E+04  0.00000000000E+00 0. -1.
         21    1    1    2  503  502  0.16270984878E+02 -0.56652981048E+02 -0.70465153737E+03  0.70711250471E+03  0.00000000000E+00 0. -1.
         21    1    1    2  504  505 -0.35590752142E+02  0.38260701720E+02 -0.10035286757E+03  0.11314274596E+03  0.00000000000E+00 0.  1.
         21    1    1    2  505  503 -0.50578044481E+02  0.44557564699E+02 -0.56641290705E+02  0.88044028577E+02  0.00000000000E+00 0.  1.
         21    1    1    2  506  501  0.69897811745E+02 -0.26165285371E+02 -0.28923918061E+03  0.29871329037E+03  0.00000000000E+00 0. -1.
<scales pt_clust_3="58.94324" pt_clust_4="34.60857" pt_clust_5="34.60857" pt_clust_6="100.83571"></scales>
<clustering>
<clus scale="   34.609">  4  5 -1 -1</clus>
<clus scale="   58.943">  2  3  1 -1</clus>
<clus scale="  100.836">  2  6  1 -1</clus>
<clus scale="  108.226">  1  3  2 -1</clus>
</clustering>
</event>
<event>
 6    0  0.5563122E+002  0.8159158E+02  0.7546771E-02  0.1324594E+00
         21   -1    0    0  505  501  0.00000000000E+00  0.00000000000E+00  0.69975454071E+02  0.69975454071E+02  0.00000000000E+00 0.  1.
         21   -1    0    0  506  502 -0.00000000000E+00 -0.00000000000E+00 -0.90856030999E+03  0.90856030999E+03  0.00000000000E+00 0.  1.
         21    1    1    2  503  502  0.24063964304E+02 -0.19204409644E+02 -0.62086311782E+03  0.62162600878E+03  0.00000000000E+00 0.  1.
         21    1    1    2  504  503 -0.24354073798E+02  0.69981778468E+02 -0.15166520876E+03  0.16879841758E+03  0.00000000000E+00 0.  1.
         21    1    1    2  505  504 -0.80180685462E+02 -0.17693114430E+02 -0.58417939020E+02  0.10077025463E+03  0.00000000000E+00 0.  1.
         21    1    1    2  506  501  0.80470794956E+02 -0.33084254394E+02 -0.76385903212E+01  0.87341083069E+02  0.00000000000E+00 0.  1.
<scales pt_clust_3="30.78772" pt_clust_4="60.27182" pt_clust_5="81.59158" pt_clust_6="14000.00000"></scales>
<clustering>
<clus scale="   30.788">  2  3  1 -1</clus>
<clus scale="   60.272">  2  4  1 -1</clus>
<clus scale="   81.592">  2  5  1 -1</clus>
<clus scale="   81.592">  1  3  2 -1</clus>
</clustering>
</event>
<event>
 6    0  0.5563122E+002  0.1625886E+03  0.7546771E-02  0.1185805E+00
         21   -1    0    0  506  501  0.00000000000E+00  0.00000000000E+00  0.11181981345E+04  0.11181981345E+04  0.00000000000E+00 0. -1.
         21   -1    0    0  505  502 -0.00000000000E+00 -0.00000000000E+00 -0.91441109917E+02  0.91441109917E+02  0.00000000000E+00 0. -1.
         21    1    1    2  503  504  0.23614663543E+03 -0.12457829843E+03  0.36859667154E+03  0.45513568541E+03  0.00000000000E+00 0. -1.
         21    1    1    2  504  501 -0.66301427656E+01  0.29768319846E+02  0.23975597113E+03  0.24168789244E+03  0.00000000000E+00 0.  1.
         21    1    1    2  505  503 -0.12515889371E+03  0.28605223308E+02  0.76942454583E+02  0.14967681448E+03  0.00000000000E+00 0. -1.
         21    1    1    2  506  502 -0.10435759895E+03  0.66204755280E+02  0.34146192729E+03  0.36313885205E+03  0.00000000000E+00 0. -1.
<scales pt_clust_3="162.58856" pt_clust_4="30.49773" pt_clust_5="130.12589" pt_clust_6="14000.00000"></scales>
<clustering>
<clus scale="   30.498">  1  4  2 -1</clus>
<clus scale="  130.126">  2  5  1 -1</clus>
<clus scale="  162.589">  2  3  1 -1</clus>
<clus scale="   30.498">  1  3  2 -1</clus>
</clustering>
</event>
<event>
 6    0  0.5563122E+002  0.1231870E+03  0.7546771E-02  0.1237930E+00
         21   -1    0    0  506  501  0.00000000000E+00  0.00000000000E+00  0.18309149531E+04  0.18309149531E+04  0.00000000000E+00 0.  1.
         21   -1    0    0  505  502 -0.00000000000E+00 -0.00000000000E+00 -0.44879072343E+03  0.44879072343E+03  0.00000000000E+00 0. -1.
         21    1    1    2  503  501  0.31872549616E+02  0.69963897367E+01  0.17696380485E+04  0.17699388779E+04  0.00000000000E+00 0.  1.
         21    1    1    2  504  502  0.24056313269E+02 -0.14610664080E+03 -0.23567911082E+03  0.27833522948E+03  0.00000000000E+00 0. -1.
         21    1    1    2  505  503 -0.19018345108E+01  0.10221220809E+03 -0.12299233445E+03  0.15993144404E+03  0.00000000000E+00 0. -1.
         21    1    1    2  506  504 -0.54027028374E+02  0.36898042966E+02 -0.28842373596E+02  0.71500125065E+02  0.00000000000E+00 0. -1.
<scales pt_clust_3="32.63141" pt_clust_4="123.18701" pt_clust_5="14000.00000" pt_clust_6="58.21067"></scales>
<clustering>
<clus scale="   32.631">  1  3  2 -1</clus>
<clus scale="   58.211">  1  6  2 -1</clus>
<clus scale="  123.187">  1  4  2 -1</clus>
<clus scale="   32.631">  1  3  2 -1</clus>
</clustering>
</event>
<event>
 6    0  0.5563122E+002  0.1559179E+03  0.7546771E-02  0.1193384E+00
         21   -1    0    0  506  501  0.00000000000E+00  0.00000000000E+00  0.10461098161E+04  0.10461098161E+04  0.00000000000E+00 0.  1.
         21   -1    0    0  504  502 -0.00000000000E+00 -0.00000000000E+00 -0.99685219340E+02  0.99685219340E+02  0.00000000000E+00 0. -1.
         21    1    1    2  503  501  0.61214144433E+02  0.98816778313E+02  0.32879652201E+03  0.34873927230E+03  0.00000000000E+00 0.  1.
         21    1    1    2  504  505  0.34997259894E+02 -0.82214130105E+02 -0.47731426800E+02  0.10130281582E+03  0.00000000000E+00 0. -1.
         21    1    1    2  505  503  0.48549280866E+02  0.18094406831E+02  0.12622451830E+03  0.13644438153E+03  0.00000000000E+00 0.  1.
         21    1    1    2  506  502 -0.14476068519E+03 -0.34697055039E+02  0.53913498325E+03  0.55930856579E+03  0.00000000000E+00 0.  1.
<scales pt_clust_3="34.32147" pt_clust_4="89.35307" pt_clust_5="34.32147" pt_clust_6="147.19916"></scales>
<clustering>
<clus scale="   34.321">  3  5 -1 -1</clus>
<clus scale="   89.353">  2  4  1 -1</clus>
<clus scale="  147.199">  1  6  2 -1</clus>
<clus scale="  147.199">  1  3  2 -1</clus>
</clustering>
</event>
<event>
 6    0  0.5563122E+002  0.8517125E+02  0.7546771E-02  0.1314985E+00
         21   -1    0    0  503  501  0.00000000000E+00  0.00000000000E+00  0.67015261834E+03  0.67015261834E+03  0.00000000000E+00 0. -1.
         21   -1    0    0  501  502 -0.00000000000E+00 -0.00000000000E+00 -0.88302184324E+02  0.88302184324E+02  0.00000000000E+00 0. -1.
         21    1    1    2  503  504  0.15729302976E+02 -0.26554130734E+02  0.20965673183E+03  0.21191620521E+03  0.00000000000E+00 0. -1.
         21    1    1    2  504  505 -0.68222226369E+02 -0.34114712434E+02  0.24352901031E+03  0.25519495418E+03  0.00000000000E+00 0. -1.
         21    1    1    2  505  506  0.13053032370E+03  0.54094529849E+02  0.15403361462E+03  0.20902329534E+03  0.00000000000E+00 0.  1.
         21    1    1    2  506  502 -0.78037400305E+02  0.65743133188E+01 -0.25368922740E+02  0.82320347928E+02  0.00000000000E+00 0. -1.
<scales pt_clust_3="30.86313" pt_clust_4="76.92364" pt_clust_5="85.17125" pt_clust_6="14000.00000"></scales>
<clustering>
<clus scale="   30.863">  1  3  2 -1</clus>
<clus scale="   76.924">  1  4  2 -1</clus>
<clus scale="   85.171">  1  5  2 -1</clus>
<clus scale="   30.863">  1  3  2 -1</clus>
</clustering>
</event>
<event>
 6    0  0.5563122E+002  0.1028300E+03  0.7546771E-02  0.1274455E+00
         21   -1    0    0  505  501  0.00000000000E+00  0.00000000000E+00  0.94794754357E+02  0.94794754357E+02  0.00000000000E+00 0. -1.
         21   -1    0    0  506  502 -0.00000000000E+00 -0.00000000000E+00 -0.16155551164E+04  0.16155551164E+04  0.00000000000E+00 0. -1.
         21    1    1    2  503  501  0.73731970713E+02 -0.73169115959E+02  0.54810410884E+02  0.11744915571E+03  0.00000000000E+00 0. -1.
         21    1    1    2  504  503 -0.30691208589E+02  0.93301424689E+02 -0.43431207595E+03  0.44527978333E+03  0.00000000000E+00 0.  1.
         21    1    1    2  505  502  0.31978296074E+02 -0.13051385069E+02 -0.17175894623E+03  0.17519727647E+03  0.00000000000E+00 0.  1.
         21    1    1    2  506  504 -0.75019058198E+02 -0.70809236611E+01 -0.96949975076E+03  0.97242365525E+03  0.00000000000E+00 0. -1.
<scales pt_clust_3="102.83004" pt_clust_4="14000.00000" pt_clust_5="34.53911" pt_clust_6="55.79209"></scales>
<clustering>
<clus scale="   34.539">  2  5  1 -1</clus>
<clus scale="   55.792">  2  6  1 -1</clus>
<clus scale="  102.830">  1  3  2 -1</clus>
<clus scale="  102.830">  1  3  2 -1</clus>
</clustering>
</event>
<event>
 6    0  0.5563122E+002  0.2826068E+03  0.7546771E-02  0.1094274E+00
         21   -1    0    0  506  501  0.00000000000E+00  0.00000000000E+00  0.30458580411E+04  0.30458580411E+04  0.00000000000E+00 0.  1.
         21   -1    0    0  501  502 -0.00000000000E+00 -0.00000000000E+00 -0.21267054624E+03  0.21267054624E+03  0.00000000000E+00 0. -1.
         21    1    1    2  503  504 -0.67971380628E+02 -0.72487362620E+02 -0.43474312536E+02  0.10846447425E+03  0.00000000000E+00 0. -1.
         21    1    1    2  504  502 -0.18304886397E+03 -0.44374761760E+02 -0.47096186503E+02  0.19414957344E+03  0.00000000000E+00 0. -1.
         21    1    1    2  505  503  0.18180789690E+03  0.13247854854E+03  0.80148778521E+03  0.83245861581E+03  0.00000000000E+00 0.  1.
         21    1    1    2  506  505  0.69212347705E+02 -0.15616424155E+02  0.21222702087E+04  0.21234559239E+04  0.00000000000E+00 0.  1.
<scales pt_clust_3="59.47343" pt_clust_4="59.47343" pt_clust_5="270.48524" pt_clust_6="70.95225"></scales>
<clustering>
<clus scale="   59.473">  3  4 -1 -1</clus>
<clus scale="   70.952">  1  6  2 -1</clus>
<clus scale="  270.485">  1  5  2 -1</clus>
<clus scale="   70.952">  1  3  2 -1</clus>
</clustering>
</event>
<event>
 6    0  0.5563122E+002  0.9053828E+02  0.7546771E-02  0.1301553E+00
         21   -1    0    0  506  501  0.00000000000E+00  0.00000000000E+00  0.61579580754E+03  0.61579580754E+03  0.00000000000E+00 0.  1.
         21   -1    0    0  503  502 -0.00000000000E+00 -0.00000000000E+00 -0.45289177148E+03  0.45289177148E+03  0.00000000000E+00 0.  1.
         21    1    1    2  503  504 -0.14106000701E+02  0.42201659722E+02 -0.79694844747E+02  0.91275558712E+02  0.00000000000E+00 0.  1.
         21    1    1    2  504  501  0.80167809856E+02 -0.42777665870E+02  0.54767181222E+03  0.55515873436E+03  0.00000000000E+00 0.  1.
         21    1    1    2  505  502  0.97164684653E+01  0.56625743265E+02 -0.32148679102E+03  0.32658022193E+03  0.00000000000E+00 0.  1.
         21    1    1    2  506  505 -0.75778277621E+02 -0.56049737117E+02  0.16413859609E+02  0.95673064012E+02  0.00000000000E+00 0.  1.
<scales pt_clust_3="44.49673" pt_clust_4="90.53828" pt_clust_5="86.81952" pt_clust_6="14000.00000"></scales>
<clustering>
<clus scale="   44.497">  2  3  1 -1</clus>
<clus scale="   90.538">  1  4  2 -1</clus>
<clus scale="   86.820">  2  5  1 -1</clus>
<clus scale="   90.538">  1  3  2 -1</clus>
</clustering>
</event>
<event>
 6    0  0.5563122E+002  0.1200705E+03  0.7546771E-02  0.1242981E+00
         21   -1    0    0  506  501  0.00000000000E+00  0.00000000000E+00  0.92763164650E+03  0.92763164650E+03  0.00000000000E+00 0.  1.
         21   -1    0    0  505  502 -0.00000000000E+00 -0.00000000000E+00 -0.19479753883E+03  0.19479753883E+03  0.00000000000E+00 0.  1.
         21    1    1    2  503  502 -0.25247653226E+01  0.32123339564E+02  0.21854276800E+02  0.38934468009E+02  0.00000000000E+00 0.  1.
         21    1    1    2  504  501  0.75850992397E+02 -0.83749234162E+02  0.42358352132E+02  0.12067119485E+03  0.00000000000E+00 0.  1.
         21    1    1    2  505  504 -0.11839176184E+03  0.27072978637E+02 -0.12105830215E+03  0.17147789352E+03  0.00000000000E+00 0.  1.
         21    1    1    2  506  503  0.45065534770E+02  0.24552915961E+02  0.78967978089E+03  0.79134562895E+03  0.00000000000E+00 0.  1.
<scales pt_clust_3="32.22241" pt_clust_4="14000.00000" pt_clust_5="120.07054" pt_clust_6="51.37904"></scales>
<clustering>
<clus scale="   32.222">  2  3  1 -1</clus>
<clus scale="   51.379">  1  6  2 -1</clus>
<clus scale="  120.071">  2  5  1 -1</clus>
<clus scale="   51.379">  1  3  2 -1</clus>
</clustering>
</event>
<event>
 6    0  0.5563122E+002  0.2611887E+03  0.7546771E-02  0.1106431E+00
         21   -1    0    0  503  501  0.00000000000E+00  0.00000000000E+00  0.45724626702E+03  0.45724626702E+03  0.00000000000E+00 0.  1.
         21   -1    0    0  504  502 -0.00000000000E+00 -0.00000000000E+00 -0.45620621865E+03  0.45620621865E+03  0.00000000000E+00 0. -1.
         21    1    1    2  503  506  0.11710051115E+03 -0.23831682972E+03  0.34093269465E+03  0.43213718114E+03  0.00000000000E+00 0.  1.
         21    1    1    2  504  505 -0.44522545467E+02 -0.15827138921E+02 -0.59127401410E+02  0.75688869583E+02  0.00000000000E+00 0. -1.
         21    1    1    2  505  501  0.30945694403E+02  0.41118954514E+02 -0.80073088193E+02  0.95184577927E+02  0.00000000000E+00 0. -1.
         21    1    1    2  506  502 -0.10352366009E+03  0.21302501413E+03 -0.20069215667E+03  0.31044185703E+03  0.00000000000E+00 0. -1.
<scales pt_clust_3="14000.00000" pt_clust_4="47.25204" pt_clust_5="42.98147" pt_clust_6="261.18871"></scales>
<clustering>
<clus scale="   47.252">  2  4  1 -1</clus>
<clus scale="   42.981">  2  5  1 -1</clus>
<clus scale="  261.189">  2  6  1 -1</clus>
<clus scale="  261.189">  1  3  2 -1</clus>
</clustering>
</event>
<event>
 6    0  0.5563122E+002  0.1888386E+03  0.7546771E-02  0.1159513E+00
         21   -1    0    0  504  501  0.00000000000E+00  0.00000000000E+00  0.20667894399E+03  0.20667894399E+03  0.00000000000E+00 0. -1.
         21   -1    0    0  505  502 -0.00000000000E+00 -0.00000000000E+00 -0.15900864025E+04  0.15900864025E+04  0.00000000000E+00 0. -1.
         21    1    1    2  503  501 -0.30191352237E+02 -0.77534363667E+02 -0.35981257657E+00  0.83205917844E+02  0.00000000000E+00 0.  1.
         21    1    1    2  504  506 -0.20828228862E+02  0.11173752165E+03  0.91932850585E+02  0.14618733830E+03  0.00000000000E+00 0. -1.
         21    1    1    2  505  503  0.16252520154E+03 -0.11334704630E+03 -0.13949147754E+04  0.14089177495E+04  0.00000000000E+00 0. -1.
         21    1    1    2  506  502 -0.11150562044E+03  0.79143888317E+02 -0.80065721045E+02  0.15845434085E+03  0.00000000000E+00 0.  1.
<scales pt_clust_3="83.20514" pt_clust_4="70.25173" pt_clust_5="14000.00000" pt_clust_6="188.83863"></scales>
<clustering>
<clus scale="   83.205">  1  3  2 -1</clus>
<clus scale="   70.252">  1  4  2 -1</clus>
<clus scale="  188.839">  1  6  2 -1</clus>
<clus scale="   83.205">  1  3  2 -1</clus>
</clustering>
</event>
<event>
 6    0  0.5563122E+002  0.4285208E+03  0.7546771E-02  0.1034328E+00
         21   -1    0    0  503  501  0.00000000000E+00  0.00000000000E+00  0.22624297579E+03  0.22624297579E+03  0.00000000000E+00 0.  1.
         21   -1    0    0  505  502 -0.00000000000E+00 -0.00000000000E+00 -0.10602030563E+04  0.10602030563E+04  0.00000000000E+00 0.  1.
         21    1    1    2  503  504 -0.99469313926E+02 -0.20676776031E+03 -0.95186289761E+02  0.24840990494E+03  0.00000000000E+00 0.  1.
         21    1    1    2  504  506 -0.21576630993E+03 -0.31199614489E+02 -0.12014459511E+03  0.24892416552E+03  0.00000000000E+00 0.  1.
         21    1    1    2  505  501  0.30348698845E+01  0.48662791166E+02  0.20623569588E+02  0.52939676065E+02  0.00000000000E+00 0.  1.
         21    1    1    2  506  502  0.31220075397E+03  0.18930458363E+03 -0.63925276518E+03  0.73617228551E+03  0.00000000000E+00 0.  1.
<scales pt_clust_3="210.12593" pt_clust_4="210.12593" pt_clust_5="48.75733" pt_clust_6="372.36840"></scales>
<clustering>
<clus scale="   48.757">  1  5  2 -1</clus>
<clus scale="  210.126">  3  4 -1 -1</clus>
<clus scale="  372.368">  2  6  1 -1</clus>
<clus scale="   48.757">  1  3  2 -1</clus>
</clustering>
</event>
<event>
 6    0  0.5563122E+002  0.1910060E+03  0.7546771E-02  0.1157557E+00
         21   -1    0    0  505  501  0.00000000000E+00  0.00000000000E+00  0.73766966867E+03  0.73766966867E+03  0.00000000000E+00 0.  1.
         21   -1    0    0  506  502 -0.00000000000E+00 -0.00000000000E+00 -0.33156158741E+03  0.33156158741E+03  0.00000000000E+00 0.  1.
         21    1    1    2  503  501  0.43850206766E+02 -0.17804029925E+03  0.68714881409E+03  0.71119243634E+03  0.00000000000E+00 0.  1.
         21    1    1    2  504  503 -0.22970965707E+02  0.11606186361E+03 -0.11025852633E+03  0.16172496430E+03  0.00000000000E+00 0.  1.
         21    1    1    2  505  502 -0.30498085354E+02 -0.34382488145E+01 -0.53804012901E+02  0.61942122739E+02  0.00000000000E+00 0. -1.
         21    1    1    2  506  504  0.96188442944E+01  0.65416684448E+02 -0.11697819361E+03  0.13437173270E+03  0.00000000000E+00 0.  1.
<scales pt_clust_3="183.19197" pt_clust_4="39.39761" pt_clust_5="30.69128" pt_clust_6="39.39761"></scales>
<clustering>
<clus scale="   30.691">  2  5  1 -1</clus>
<clus scale="   39.398">  4  6 -1 -1</clus>
<clus scale="  183.192">  1  3  2 -1</clus>
<clus scale="  183.192">  1  3  2 -1</clus>
</clustering>
</event>
<event>
 6    0  0.5563122E+002  0.8561558E+02  0.7546771E-02  0.1313831E+00
         21   -1    0    0  503  501  0.00000000000E+00  0.00000000000E+00  0.13377189161E+04  0.13377189161E+04  0.00000000000E+00 0. -1.
         21   -1    0    0  505  502 -0.00000000000E+00 -0.00000000000E+00 -0.74958910056E+02  0.74958910056E+02  0.00000000000E+00 0. -1.
         21    1    1    2  503  502 -0.28178081294E+02  0.22424871303E+02 -0.37131683905E+02  0.51726599231E+02  0.00000000000E+00 0. -1.
         21    1    1    2  504  506 -0.62086149718E+02 -0.13455876993E+02  0.29182927646E+03  0.29866381972E+03  0.00000000000E+00 0.  1.
         21    1    1    2  505  504  0.51604959404E+01 -0.78560242165E+02  0.40567523291E+02  0.88566733672E+02  0.00000000000E+00 0. -1.
         21    1    1    2  506  501  0.85103735072E+02  0.69591247855E+02  0.96749489022E+03  0.97372067355E+03  0.00000000000E+00 0. -1.
<scales pt_clust_3="36.01221" pt_clust_4="85.61558" pt_clust_5="63.25643" pt_clust_6="14000.00000"></scales>
<clustering>
<clus scale="   36.012">  2  3  1 -1</clus>
<clus scale="   63.256">  2  5  1 -1</clus>
<clus scale="   85.616">  2  4  1 -1</clus>
<clus scale="   85.616">  1  3  2 -1</clus>
</clustering>
</event>
<event>
 6    0  0.5563122E+002  0.1373367E+03  0.7546771E-02  0.1216958E+00
         21   -1    0    0  505  501  0.00000000000E+00  0.00000000000E+00  0.45612624399E+02  0.45612624399E+02  0.00000000000E+00 0.  1.
         21   -1    0    0  504  502 -0.00000000000E+00 -0.00000000000E+00 -0.67936712138E+03  0.67936712138E+03  0.00000000000E+00 0. -1.
         21    1    1    2  503  502  0.63369876813E+02  0.28689013429E+02 -0.87804905966E+02  0.11202009771E+03  0.00000000000E+00 0.  1.
         21    1    1    2  504  506  0.75726906142E+01  0.37275284816E+02 -0.27360056978E+03  0.27623190309E+03  0.00000000000E+00 0. -1.
         21    1    1    2  505  503  0.56732436239E+02 -0.19111464718E+02 -0.10724786798E+03  0.12282476375E+03  0.00000000000E+00 0.  1.
         21    1    1    2  506  501 -0.12767500367E+03 -0.46852833526E+02 -0.16510115326E+03  0.21390298123E+03  0.00000000000E+00 0. -1.
<scales pt_clust_3="45.19535" pt_clust_4="38.03673" pt_clust_5="45.19535" pt_clust_6="127.55833"></scales>
<clustering>
<clus scale="   38.037">  2  4  1 -1</clus>
<clus scale="   45.195">  3  5 -1 -1</clus>
<clus scale="  127.558">  1  6  2 -1</clus>
<clus scale="  127.558">  1  3  2 -1</clus>
</clustering>
</event>
<event>
 6    0  0.5563122E+002  0.1373714E+03  0.7546771E-02  0.1216910E+00
         21   -1    0    0  505  501  0.00000000000E+00  0.00000000000E+00  0.19704767092E+04  0.19704767092E+04  0.00000000000E+00 0. -1.
         21   -1    0    0  506  502 -0.00000000000E+00 -0.00000000000E+00 -0.50255664612E+02  0.50255664612E+02  0.00000000000E+00 0. -1.
         21    1    1    2  503  501 -0.19307726099E+02 -0.30622960900E+02  0.47078396119E+03  0.47217379442E+03  0.00000000000E+00 0.  1.
         21    1    1    2  504  503  0.45667816863E+02 -0.94644383423E+02  0.12828575383E+04  0.12871544477E+04  0.00000000000E+00 0. -1.
         21    1    1    2  505  502  0.74356035421E+01  0.10548393081E+03  0.18878679557E+03  0.21638530921E+03  0.00000000000E+00 0. -1.
         21    1    1    2  506  504 -0.33795694306E+02  0.19783413513E+02 -0.22207250438E+02  0.45018822462E+02  0.00000000000E+00 0. -1.
<scales pt_clust_3="35.17013" pt_clust_4="35.17013" pt_clust_5="123.61360" pt_clust_6="39.16034"></scales>
<clustering>
<clus scale="   35.170">  3  4 -1 -1</clus>
<clus scale="   39.160">  2  6  1 -1</clus>
<clus scale="  123.614">  2  5  1 -1</clus>
<clus scale="  137.371">  1  3  2 -1</clus>
</clustering>
</event>
<event>
 6    0  0.5563122E+002  0.8398187E+02  0.7546771E-02  0.1318117E+00
         21   -1    0    0  502  501  0.00000000000E+00  0.00000000000E+00  0.45863533054E+03  0.45863533054E+03  0.00000000000E+00 0. -1.
         21   -1    0    0  505  502 -0.00000000000E+00 -0.00000000000E+00 -0.12317126651E+03  0.12317126651E+03  0.00000000000E+00 0. -1.
         21    1    1    2  503  501  0.40508819073E+02  0.22487085657E+02  0.29824811976E+03  0.30182540381E+03  0.00000000000E+00 0. -1.
         21    1    1    2  504  506  0.62014285453E+02  0.19944873177E+02 -0.15965178856E+02  0.67070533785E+02  0.00000000000E+00 0. -1.
         21    1    1    2  505  504  0.19589680036E+02 -0.25660028614E+02 -0.44962060848E+02  0.55351418664E+02  0.00000000000E+00 0. -1.
         21    1    1    2  506  503 -0.12211278456E+03 -0.16771930220E+02  0.98143183970E+02  0.15755924078E+03  0.00000000000E+00 0. -1.
<scales pt_clust_3="46.45286" pt_clust_4="83.98187" pt_clust_5="32.28301" pt_clust_6="14000.00000"></scales>
<clustering>
<clus scale="   32.283">  2  5  1 -1</clus>
<clus scale="   46.453">  1  3  2 -1</clus>
<clus scale="   83.982">  2  4  1 -1</clus>
<clus scale="   46.453">  1  3  2 -1</clus>
</clustering>
</event>
<event>
 6    0  0.5563122E+002  0.1042841E+03  0.7546771E-02  0.1271537E+00
         21   -1    0    0  503  501  0.00000000000E+00  0.00000000000E+00  0.16942524340E+04  0.16942524340E+04  0.00000000000E+00 0. -1.
         21   -1    0    0  504  502 -0.00000000000E+00 -0.00000000000E+00 -0.38884438661E+03  0.38884438661E+03  0.00000000000E+00 0. -1.
         21    1    1    2  503  505 -0.52544072352E+02  0.52480736232E+02 -0.74687702744E+02  0.10532502151E+03  0.00000000000E+00 0. -1.
         21    1    1    2  504  506  0.63135235958E+02 -0.59619878128E+02 -0.19988151152E+03  0.21792936134E+03  0.00000000000E+00 0. -1.
         21    1    1    2  505  502 -0.18304817999E+02  0.62115313406E+02 -0.77750398796E+02  0.10118548826E+03  0.00000000000E+00 0. -1.
         21    1    1    2  506  501  0.77136543932E+01 -0.54976171510E+02  0.16577276605E+04  0.16586569495E+04  0.00000000000E+00 0. -1.
<scales pt_clust_3="33.11224" pt_clust_4="98.07028" pt_clust_5="33.11224" pt_clust_6="55.51468"></scales>
<clustering>
<clus scale="   33.112">  3  5 -1 -1</clus>
<clus scale="   55.515">  1  6  2 -1</clus>
<clus scale="   98.070">  2  4  1 -1</clus>
<clus scale="   55.515">  1  3  2 -1</clus>
</clustering>
</event>
<event>
 6    0  0.5563122E+002  0.7628866E+02  0.7546771E-02  0.1339926E+00
         21   -1    0    0  506  501  0.00000000000E+00  0.00000000000E+00  0.71424672012E+01  0.71424672012E+01  0.00000000000E+00 0.  1.
         21   -1    0    0  505  502 -0.00000000000E+00 -0.00000000000E+00 -0.31211827103E+04  0.31211827103E+04  0.00000000000E+00 0.  1.
         21    1    1    2  503  502 -0.15306816269E+02  0.37630691304E+02 -0.65760584042E+03  0.65885947584E+03  0.00000000000E+00 0.  1.
         21    1    1    2  504  501 -0.45498759762E+02 -0.54126414738E+02 -0.34140705818E+03  0.34865252801E+03  0.00000000000E+00 0.  1.
         21    1    1    2  505  504 -0.35137226168E+00 -0.59207527046E+02 -0.81710965956E+03  0.81925200669E+03  0.00000000000E+00 0.  1.
         21    1    1    2  506  503  0.61156948293E+02  0.75703250480E+02 -0.12979176849E+04  0.13015611670E+04  0.00000000000E+00 0.  1.
<scales pt_clust_3="40.62472" pt_clust_4="14000.00000" pt_clust_5="47.02208" pt_clust_6="76.28866"></scales>
<clustering>
<clus scale="   40.625">  2  3  1 -1</clus>
<clus scale="   47.022">  2  5  1 -1</clus>
<clus scale="   76.289">  2  6  1 -1</clus>
<clus scale="   76.289">  1  3  2 -1</clus>
</clustering>
</event>
<event>
 6    0  0.5563122E+002  0.2143480E+03  0.7546771E-02  0.1138168E+00
         21   -1    0    0  505  501  0.00000000000E+00  0.00000000000E+00  0.11723618595E+04  0.11723618595E+04  0.00000000000E+00 0.  1.
         21   -1    0    0  503  502 -0.00000000000E+00 -0.00000000000E+00 -0.14671892542E+03  0.14671892542E+03  0.00000000000E+00 0.  1.
         21    1    1    2  503  501  0.53917522125E+02 -0.22532732832E+02  0.67849420237E+02  0.89545335264E+02  0.00000000000E+00 0.  1.
         21    1    1    2  504  506 -0.16232380015E+02 -0.20149046768E+03  0.28205781656E+03  0.34701370378E+03  0.00000000000E+00 0.  1.
         21    1    1    2  505  504 -0.10486474358E+03  0.20704487034E+03  0.74753816995E+03  0.78273718981E+03  0.00000000000E+00 0.  1.
         21    1    1    2  506  502  0.67179601469E+02  0.16978330172E+02 -0.71802472667E+02  0.99784556070E+02  0.00000000000E+00 0.  1.
<scales pt_clust_3="58.43649" pt_clust_4="214.34797" pt_clust_5="14000.00000" pt_clust_6="101.26230"></scales>
<clustering>
<clus scale="   58.436">  2  3  1 -1</clus>
<clus scale="  101.262">  2  6  1 -1</clus>
<clus scale="  214.348">  2  4  1 -1</clus>
<clus scale="  214.348">  1  3  2 -1</clus>
</clustering>
</event>
<event>
 6    0  0.5563122E+002  0.1105309E+03  0.7546771E-02  0.1259590E+00
         21   -1    0    0  506  501  0.00000000000E+00  0.00000000000E+00  0.56965711435E+03  0.56965711435E+03  0.00000000000E+00 0. -1.
         21   -1    0    0  504  502 -0.00000000000E+00 -0.00000000000E+00 -0.41161875805E+03  0.41161875805E+03  0.00000000000E+00 0.  1.
         21    1    1    2  503  501 -0.19989884367E+02 -0.57554381444E+02  0.30471490021E+03  0.31074631568E+03  0.00000000000E+00 0. -1.
         21    1    1    2  504  503  0.58237225340E+01 -0.84400440732E+02  0.20855154687E+03  0.22505798773E+03  0.00000000000E+00 0. -1.
         21    1    1    2  505  502 -0.15338437657E+02  0.11043657630E+03 -0.37977795627E+03  0.39580651981E+03  0.00000000000E+00 0.  1.
         21    1    1    2  506  505  0.29504599491E+02  0.31518245877E+02  0.24549865493E+02  0.49665049179E+02  0.00000000000E+00 0. -1.
<scales pt_clust_3="39.45151" pt_clust_4="14000.00000" pt_clust_5="110.53089" pt_clust_6="43.17315"></scales>
<clustering>
<clus scale="   43.173">  1  6  2 -1</clus>
<clus scale="   39.452">  1  3  2 -1</clus>
<clus scale="  110.531">  2  5  1 -1</clus>
<clus scale="   43.173">  1  3  2 -1</clus>
</clustering>
</event>
<event>
 6    0  0.5563122E+002  0.1312120E+03  0.7546771E-02  0.1225668E+00
         21   -1    0    0  505  501  0.00000000000E+00  0.00000000000E+00  0.14404974154E+04  0.14404974154E+04  0.00000000000E+00 0.  1.
         21   -1    0    0  506  502 -0.00000000000E+00 -0.00000000000E+00 -0.14248838335E+03  0.14248838335E+03  0.00000000000E+00 0. -1.
         21    1    1    2  503  501 -0.55276647163E+02  0.39381452637E+02  0.69866158380E+03  0.70195043644E+03  0.00000000000E+00 0.  1.
         21    1    1    2  504  502  0.97314470831E+02 -0.75367473806E+02 -0.10824629382E+03  0.16391346030E+03  0.00000000000E+00 0. -1.
         21    1    1    2  505  504  0.14058510379E+01 -0.33543203871E+02  0.16635946189E+03  0.16971326850E+03  0.00000000000E+00 0. -1.
         21    1    1    2  506  503 -0.43443674707E+02  0.69529225040E+02  0.54123428019E+03  0.54740863352E+03  0.00000000000E+00 0.  1.
<scales pt_clust_3="40.35865" pt_clust_4="123.56166" pt_clust_5="33.57265" pt_clust_6="40.35865"></scales>
<clustering>
<clus scale="   33.573">  1  5  2 -1</clus>
<clus scale="   40.359">  3  6 -1 -1</clus>
<clus scale="  123.562">  2  4  1 -1</clus>
<clus scale="   33.573">  1  3  2 -1</clus>
</clustering>
</event>
<event>
 6    0  0.5563122E+002  0.1214235E+03  0.7546771E-02  0.1240767E+00
         21   -1    0    0  503  501  0.00000000000E+00  0.00000000000E+00  0.11085923454E+03  0.11085923454E+03  0.00000000000E+00 0.  1.
         21   -1    0    0  506  502 -0.00000000000E+00 -0.00000000000E+00 -0.23137587603E+04  0.23137587603E+04  0.00000000000E+00 0. -1.
         21    1    1    2  503  505 -0.11457863944E+02 -0.46451355295E+02 -0.56354826023E+02  0.73924809576E+02  0.00000000000E+00 0. -1.
         21    1    1    2  504  501 -0.33057892941E+02 -0.55589221507E+02  0.70293909148E+02  0.95520780444E+02  0.00000000000E+00 0.  1.
         21    1    1    2  505  502 -0.94537334773E+02  0.80657155241E+02 -0.19460847045E+04  0.19500483485E+04  0.00000000000E+00 0. -1.
         21    1    1    2  506  504  0.13905309166E+03  0.21383421560E+02 -0.27075390441E+03  0.30512405636E+03  0.00000000000E+00 0.  1.
<scales pt_clust_3="47.84361" pt_clust_4="102.48425" pt_clust_5="121.42354" pt_clust_6="14000.00000"></scales>
<clustering>
<clus scale="   47.844">  1  3  2 -1</clus>
<clus scale="  102.484">  1  4  2 -1</clus>
<clus scale="  121.424">  2  5  1 -1</clus>
<clus scale="   47.844">  1  3  2 -1</clus>
</clustering>
</event>
<event>
 6    0  0.5563122E+002  0.1159631E+03  0.7546771E-02  0.1249909E+00
         21   -1    0    0  503  501  0.00000000000E+00  0.00000000000E+00  0.30657929521E+03  0.30657929521E+03  0.00000000000E+00 0.  1.
         21   -1    0    0  501  502 -0.00000000000E+00 -0.00000000000E+00 -0.89459241429E+03  0.89459241429E+03  0.00000000000E+00 0.  1.
         21    1    1    2  503  506  0.61654683272E+02  0.34170118311E+02  0.25738896781E+03  0.26686696631E+03  0.00000000000E+00 0.  1.
         21    1    1    2  504  505  0.82636182247E+01 -0.88777349496E+02 -0.47423218312E+02  0.10098844887E+03  0.00000000000E+00 0.  1.
         21    1    1    2  505  502 -0.24172238123E+02  0.11897295636E+03 -0.68378421159E+03  0.69447801223E+03  0.00000000000E+00 0.  1.
         21    1    1    2  506  504 -0.45746063373E+02 -0.64365725171E+02 -0.11419465699E+03  0.13883828210E+03  0.00000000000E+00 0.  1.
<scales pt_clust_3="70.49040" pt_clust_4="115.96309" pt_clust_5="14000.00000" pt_clust_6="61.92312"></scales>
<clustering>
<clus scale="   70.490">  1  3  2 -1</clus>
<clus scale="   61.923">  1  6  2 -1</clus>
<clus scale="  115.963">  1  4  2 -1</clus>
<clus scale="   70.490">  1  3  2 -1</clus>
</clustering>
</event>
<event>
 6    0  0.5563122E+002  0.7791954E+02  0.7546771E-02  0.1335061E+00
         21   -1    0    0  506  501  0.00000000000E+00  0.00000000000E+00  0.94797592202E+02  0.94797592202E+02  0.00000000000E+00 0.  1.
         21   -1    0    0  503  502 -0.00000000000E+00 -0.00000000000E+00 -0.70268721241E+03  0.70268721241E+03  0.00000000000E+00 0. -1.
         21    1    1    2  503  504  0.20121017021E+02 -0.74339148938E+02 -0.56254910737E+03  0.56779632140E+03  0.00000000000E+00 0. -1.
         21    1    1    2  504  505  0.36382215418E+02  0.10283718501E+03 -0.37777229976E+02  0.11543947039E+03  0.00000000000E+00 0.  1.
         21    1    1    2  505  501 -0.36698840665E+02 -0.53269203082E+02  0.24480477552E+02  0.69164345471E+02  0.00000000000E+00 0.  1.
         21    1    1    2  506  502 -0.19804391775E+02  0.24771167012E+02 -0.32043760410E+02  0.45084667348E+02  0.00000000000E+00 0. -1.
<scales pt_clust_3="77.91954" pt_clust_4="14000.00000" pt_clust_5="61.95639" pt_clust_6="31.71474"></scales>
<clustering>
<clus scale="   31.715">  1  6  2 -1</clus>
<clus scale="   61.956">  1  5  2 -1</clus>
<clus scale="   77.920">  2  3  1 -1</clus>
<clus scale="   31.715">  1  3  2 -1</clus>
</clustering>
</event>
<event>
 6    0  0.5563122E+002  0.9346951E+02  0.7546771E-02  0.1294661E+00
         21   -1    0    0  505  501  0.00000000000E+00  0.00000000000E+00  0.74856563691E+03  0.74856563691E+03  0.00000000000E+00 0. -1.
         21   -1    0    0  503  502 -0.00000000000E+00 -0.00000000000E+00 -0.92911763732E+02  0.92911763732E+02  0.00000000000E+00 0. -1.
         21    1    1    2  503  506 -0.48734676661E+02 -0.82775826115E+02  0.92240650115E+02  0.13317373477E+03  0.00000000000E+00 0. -1.
         21    1    1    2  504  501  0.47885445226E+02  0.54351270516E+02  0.59842310821E+03  0.60279125153E+03  0.00000000000E+00 0. -1.
         21    1    1    2  505  502  0.23158938077E+02  0.56513165523E+02 -0.33388988267E+02  0.69605307468E+02  0.00000000000E+00 0. -1.
         21    1    1    2  506  504 -0.22309706643E+02 -0.28088609924E+02 -0.16208968838E+01  0.35907106882E+02  0.00000000000E+00 0. -1.
<scales pt_clust_3="33.68296" pt_clust_4="75.48766" pt_clust_5="61.07433" pt_clust_6="33.68296"></scales>
<clustering>
<clus scale="   33.683">  3  6 -1 -1</clus>
<clus scale="   61.074">  2  5  1 -1</clus>
<clus scale="   75.488">  1  4  2 -1</clus>
<clus scale="   75.488">  1  3  2 -1</clus>
</clustering>
</event>
<event>
 6    0  0.5563122E+002  0.1733846E+03  0.7546771E-02  0.1174364E+00
         21   -1    0    0  503  501  0.00000000000E+00  0.00000000000E+00  0.46041531142E+03  0.46041531142E+03  0.00000000000E+00 0.  1.
         21   -1    0    0  504  502 -0.00000000000E+00 -0.00000000000E+00 -0.16088047620E+03  0.16088047620E+03  0.00000000000E+00 0. -1.
         21    1    1    2  503  506 -0.38826650977E+02 -0.50699824188E+02  0.25074791774E+03  0.25875181014E+03  0.00000000000E+00 0.  1.
         21    1    1    2  504  505  0.62960060729E+02  0.61328729716E+02 -0.78155263406E+02  0.11761559222E+03  0.00000000000E+00 0. -1.
         21    1    1    2  505  501  0.38857370116E+02  0.60029076360E+02 -0.16198228693E+02  0.73319627889E+02  0.00000000000E+00 0. -1.
         21    1    1    2  506  502 -0.62990779869E+02 -0.70657981889E+02  0.14314040957E+03  0.17160875737E+03  0.00000000000E+00 0.  1.
<scales pt_clust_3="57.89048" pt_clust_4="165.99300" pt_clust_5="44.72952" pt_clust_6="57.89048"></scales>
<clustering>
<clus scale="   44.730">  4  5 -1 -1</clus>
<clus scale="   57.890">  3  6 -1 -1</clus>
<clus scale="  165.993">  2  4  1 -1</clus>
<clus scale="  173.385">  1  3  2 -1</clus>
</clustering>
</event>
<event>
 6    0  0.5563122E+002  0.1024427E+03  0.7546771E-02  0.1275242E+00
         21   -1    0    0  506  501  0.00000000000E+00  0.00000000000E+00  0.11013748264E+03  0.11013748264E+03  0.00000000000E+00 0.  1.
         21   -1    0    0  504  502 -0.00000000000E+00 -0.00000000000E+00 -0.45049812786E+03  0.45049812786E+03  0.00000000000E+00 0.  1.
         21    1    1    2  503  505  0.85209035362E+02  0.36611879315E+02 -0.22650190205E+02  0.95467484154E+02  0.00000000000E+00 0.  1.
         21    1    1    2  504  501 -0.12353161047E+03  0.51998876647E+02 -0.32408728460E+02  0.13789223198E+03  0.00000000000E+00 0.  1.
         21    1    1    2  505  502  0.16620888266E+02 -0.42182229143E+02 -0.27001436175E+03  0.27379435702E+03  0.00000000000E+00 0.  1.
         21    1    1    2  506  503  0.21701686845E+02 -0.46428526819E+02 -0.15287364798E+02  0.53481537347E+02  0.00000000000E+00 0.  1.
<scales pt_clust_3="102.44269" pt_clust_4="14000.00000" pt_clust_5="45.33866" pt_clust_6="59.96480"></scales>
<clustering>
<clus scale="   45.339">  2  5  1 -1</clus>
<clus scale="   59.965">  1  6  2 -1</clus>
<clus scale="  102.443">  2  3  1 -1</clus>
<clus scale="   59.965">  1  3  2 -1</clus>
</clustering>
</event>
<event>
 6    0  0.5563122E+002  0.1293234E+03  0.7546771E-02  0.1228463E+00
         21   -1    0    0  505  501  0.00000000000E+00  0.00000000000E+00  0.13755469137E+03  0.13755469137E+03  0.00000000000E+00 0. -1.
         21   -1    0    0  506  502 -0.00000000000E+00 -0.00000000000E+00 -0.73438776063E+03  0.73438776063E+03  0.00000000000E+00 0. -1.
         21    1    1    2  503  502  0.25980626707E+02  0.31390473272E+02 -0.15894767731E+03  0.16408753426E+03  0.00000000000E+00 0.  1.
         21    1    1    2  504  501 -0.93842701285E+02 -0.98180283432E+01 -0.31094208266E+03  0.32494280271E+03  0.00000000000E+00 0. -1.
         21    1    1    2  505  503  0.11424505926E+03 -0.42656067636E+02  0.95384229155E+02  0.15482126741E+03  0.00000000000E+00 0. -1.
         21    1    1    2  506  504 -0.46382984681E+02  0.21083622707E+02 -0.22232753845E+03  0.22809084762E+03  0.00000000000E+00 0. -1.
<scales pt_clust_3="40.74745" pt_clust_4="30.11544" pt_clust_5="122.65795" pt_clust_6="30.11544"></scales>
<clustering>
<clus scale="   30.115">  4  6 -1 -1</clus>
<clus scale="   40.747">  2  3  1 -1</clus>
<clus scale="  122.658">  1  5  2 -1</clus>
<clus scale="  122.658">  1  3  2 -1</clus>
</clustering>
</event>
<event>
 6    0  0.5563122E+002  0.1736961E+03  0.7546771E-02  0.1174047E+00
         21   -1    0    0  506  501  0.00000000000E+00  0.00000000000E+00  0.36720648278E+02  0.36720648278E+02  0.00000000000E+00 0.  1.
         21   -1    0    0  504  502 -0.00000000000E+00 -0.00000000000E+00 -0.21853095332E+04  0.21853095332E+04  0.00000000000E+00 0.  1.
         21    1    1    2  503  502  0.35986153531E+02 -0.83717519784E+01 -0.49227023249E+03  0.49365480983E+03  0.00000000000E+00 0.  1.
         21    1    1    2  504  505 -0.56785425205E+02  0.20745450006E+02 -0.53317714446E+03  0.53659372488E+03  0.00000000000E+00 0.  1.
         21    1    1    2  505  501 -0.13942372225E+03 -0.22311445040E+02 -0.92990445091E+03  0.94056316254E+03  0.00000000000E+00 0.  1.
         21    1    1    2  506  503  0.16022299392E+03  0.99377470121E+01 -0.19323705711E+03  0.25121848427E+03  0.00000000000E+00 0.  1.
<scales pt_clust_3="36.94712" pt_clust_4="35.14164" pt_clust_5="35.14164" pt_clust_6="165.18508"></scales>
<clustering>
<clus scale="   35.142">  4  5 -1 -1</clus>
<clus scale="   36.947">  2  3  1 -1</clus>
<clus scale="  165.185">  1  6  2 -1</clus>
<clus scale="  165.185">  1  3  2 -1</clus>
</clustering>
</event>
<event>
 6    0  0.5563122E+002  0.1961189E+03  0.7546771E-02  0.1153055E+00
         21   -1    0    0  505  501  0.00000000000E+00  0.00000000000E+00  0.96265094638E+02  0.96265094638E+02  0.00000000000E+00 0. -1.
         21   -1    0    0  506  502 -0.00000000000E+00 -0.00000000000E+00 -0.16034330455E+04  0.16034330455E+04  0.00000000000E+00 0. -1.
         21    1    1    2  503  504  0.45370648404E+02  0.61983830944E+02 -0.88541053788E+02  0.11721778551E+03  0.00000000000E+00 0. -1.
         21    1    1    2  504  502  0.38669513158E+02 -0.35135148341E+02 -0.97779882282E+03  0.97919372333E+03  0.00000000000E+00 0. -1.
         21    1    1    2  505  503 -0.14011384777E+03  0.15847807580E+03 -0.28396673445E+03  0.35409645172E+03  0.00000000000E+00 0. -1.
         21    1    1    2  506  501  0.56073686211E+02 -0.18532675840E+03 -0.15686133976E+03  0.24919017953E+03  0.00000000000E+00 0. -1.
<scales pt_clust_3="76.38773" pt_clust_4="52.24758" pt_clust_5="196.11893" pt_clust_6="14000.00000"></scales>
<clustering>
<clus scale="   52.248">  2  4  1 -1</clus>
<clus scale="   76.388">  2  3  1 -1</clus>
<clus scale="  196.119">  2  5  1 -1</clus>
<clus scale="  196.119">  1  3  2 -1</clus>
</clustering>
</event>
<event>
 6    0  0.5563122E+002  0.2723345E+03  0.7546771E-02  0.1099951E+00
         21   -1    0    0  504  501  0.00000000000E+00  0.00000000000E+00  0.20117378974E+03  0.20117378974E+03  0.00000000000E+00 0.  1.
         21   -1    0    0  506  502 -0.00000000000E+00 -0.00000000000E+00 -0.12637978064E+04  0.12637978064E+04  0.00000000000E+00 0.  1.
         21    1    1    2  503  501  0.19509280051E+03 -0.19138171227E+03  0.42783513250E+02  0.27661993711E+03  0.00000000000E+00 0.  1.
         21    1    1    2  504  502 -0.99673249699E+02  0.27246939280E+03 -0.81699896069E+03  0.86698421467E+03  0.00000000000E+00 0.  1.
         21    1    1    2  505  503 -0.81915276679E+02 -0.35620160902E+02 -0.22576345426E+03  0.24279218623E+03  0.00000000000E+00 0.  1.
         21    1    1    2  506  505 -0.13504274131E+02 -0.45467519622E+02 -0.62645114967E+02  0.78575258126E+02  0.00000000000E+00 0.  1.
<scales pt_clust_3="272.33445" pt_clust_4="14000.00000" pt_clust_5="95.58255" pt_clust_6="47.43059"></scales>
<clustering>
<clus scale="   47.431">  2  6  1 -1</clus>
<clus scale="   95.583">  2  5  1 -1</clus>
<clus scale="  272.334">  1  3  2 -1</clus>
<clus scale="  272.334">  1  3  2 -1</clus>
</clustering>
</event>
<event>
 6    0  0.5563122E+002  0.1235517E+03  0.7546771E-02  0.1237350E+00
         21   -1    0    0  506  501  0.00000000000E+00  0.00000000000E+00  0.51318249286E+03  0.51318249286E+03  0.00000000000E+00 0.  1.
         21   -1    0    0  504  502 -0.00000000000E+00 -0.00000000000E+00 -0.12995026964E+03  0.12995026964E+03  0.00000000000E+00 0. -1.
         21    1    1    2  503  501  0.94874738815E+02  0.11004878667E+02  0.10112747380E+02  0.96044734781E+02  0.00000000000E+00 0. -1.
         21    1    1    2  504  503  0.32653668762E+02 -0.67008802826E+02 -0.38861666496E+02  0.84063493043E+02  0.00000000000E+00 0. -1.
         21    1    1    2  505  502 -0.18666707535E+02 -0.26898172945E+02  0.43359931655E+01  0.33026633415E+02  0.00000000000E+00 0.  1.
         21    1    1    2  506  505 -0.10886170004E+03  0.82902097104E+02  0.40764514917E+03  0.42999790126E+03  0.00000000000E+00 0.  1.
<scales pt_clust_3="14000.00000" pt_clust_4="84.42663" pt_clust_5="32.74076" pt_clust_6="123.55171"></scales>
<clustering>
<clus scale="   32.741">  2  5  1 -1</clus>
<clus scale="   84.427">  2  4  1 -1</clus>
<clus scale="  123.552">  1  6  2 -1</clus>
<clus scale="  123.552">  1  3  2 -1</clus>
</clustering>
</event>
<event>
 6    0  0.5563122E+002  0.1233507E+03  0.7546771E-02  0.1237670E+00
         21   -1    0    0  504  501  0.00000000000E+00  0.00000000000E+00  0.30553813682E+03  0.30553813682E+03  0.00000000000E+00 0. -1.
         21   -1    0    0  505  502 -0.00000000000E+00 -0.00000000000E+00 -0.20611688287E+03  0.20611688287E+03  0.00000000000E+00 0.  1.
         21    1    1    2  503  501 -0.36620339660E+02 -0.45151753118E+01  0.87422941478E+02  0.94890498901E+02  0.00000000000E+00 0. -1.
         21    1    1    2  504  506 -0.49653435804E+02  0.98309859294E+02  0.11924831653E+03  0.16232822649E+03  0.00000000000E+00 0. -1.
         21    1    1    2  505  503 -0.55211003462E+02 -0.35984582612E+02 -0.71955753226E+02  0.97574461369E+02  0.00000000000E+00 0.  1.
         21    1    1    2  506  502  0.14148477893E+03 -0.57810101369E+02 -0.35294250823E+02  0.15686183293E+03  0.00000000000E+00 0.  1.
<scales pt_clust_3="36.89764" pt_clust_4="123.35074" pt_clust_5="67.88986" pt_clust_6="14000.00000"></scales>
<clustering>
<clus scale="   36.898">  1  3  2 -1</clus>
<clus scale="   67.890">  2  5  1 -1</clus>
<clus scale="  123.351">  1  4  2 -1</clus>
<clus scale="   36.898">  1  3  2 -1</clus>
</clustering>
</event>
<event>
 6    0  0.5563122E+002  0.1848160E+03  0.7546771E-02  0.1163222E+00
         21   -1    0    0  505  501  0.00000000000E+00  0.00000000000E+00  0.33102418290E+03  0.33102418290E+03  0.00000000000E+00 0.  1.
         21   -1    0    0  506  502 -0.00000000000E+00 -0.00000000000E+00 -0.83422157215E+03  0.83422157215E+03  0.00000000000E+00 0.  1.
         21    1    1    2  503  502  0.32406520889E+02  0.11785934626E+01 -0.99682575467E+02  0.10482455595E+03  0.00000000000E+00 0.  1.
         21    1    1    2  504  501 -0.97524684063E+02 -0.95813799019E+02 -0.17019686116E+03  0.21830785518E+03  0.00000000000E+00 0.  1.
         21    1    1    2  505  503  0.14587982124E+03  0.12557753294E+03  0.26990600169E+03  0.33151152133E+03  0.00000000000E+00 0.  1.
         21    1    1    2  506  504 -0.80761658067E+02 -0.30942327385E+02 -0.50322395432E+03  0.51060182260E+03  0.00000000000E+00 0.  1.
<scales pt_clust_3="32.42795" pt_clust_4="184.81604" pt_clust_5="14000.00000" pt_clust_6="65.64063"></scales>
<clustering>
<clus scale="   32.428">  2  3  1 -1</clus>
<clus scale="   65.641">  2  6  1 -1</clus>
<clus scale="  184.816">  2  4  1 -1</clus>
<clus scale="  184.816">  1  3  2 -1</clus>
</clustering>
</event>
<event>
 6    0  0.5563122E+002  0.1664894E+03  0.7546771E-02  0.1181559E+00
         21   -1    0    0  503  501  0.00000000000E+00  0.00000000000E+00  0.19449094048E+03  0.19449094048E+03  0.00000000000E+00 0. -1.
         21   -1    0    0  506  502 -0.00000000000E+00 -0.00000000000E+00 -0.73236096595E+03  0.73236096595E+03  0.00000000000E+00 0.  1.
         21    1    1    2  503  505 -0.11995229712E+03  0.70575017179E+02 -0.84669917179E+02  0.16290605117E+03  0.00000000000E+00 0. -1.
         21    1    1    2  504  501  0.81083500976E+02 -0.27531686896E+02  0.92797408621E+02  0.12626910533E+03  0.00000000000E+00 0. -1.
         21    1    1    2  505  502 -0.32511731404E+02 -0.18580530472E+02 -0.55973008841E+03  0.56098130152E+03  0.00000000000E+00 0.  1.
         21    1    1    2  506  504  0.71380527544E+02 -0.24462799811E+02  0.13732571495E+02  0.76695448410E+02  0.00000000000E+00 0. -1.
<scales pt_clust_3="154.34205" pt_clust_4="57.69564" pt_clust_5="37.44661" pt_clust_6="57.69564"></scales>
<clustering>
<clus scale="   37.447">  2  5  1 -1</clus>
<clus scale="   57.696">  4  6 -1 -1</clus>
<clus scale="  154.342">  2  3  1 -1</clus>
<clus scale="  166.489">  1  3  2 -1</clus>
</clustering>
</event>
<event>
 6    0  0.5563122E+002  0.1699107E+03  0.7546771E-02  0.1177941E+00
         21   -1    0    0  504  501  0.00000000000E+00  0.00000000000E+00  0.23367450893E+04  0.23367450893E+04  0.00000000000E+00 0.  1.
         21   -1    0    0  503  502 -0.00000000000E+00 -0.00000000000E+00 -0.29755093399E+02  0.29755093399E+02  0.00000000000E+00 0.  1.
         21    1    1    2  503  506  0.62342031861E+02 -0.24148802976E+02  0.23113628548E+03  0.24061104731E+03  0.00000000000E+00 0.  1.
         21    1    1    2  504  505 -0.15204361620E+03  0.43967469924E+02  0.17950284824E+04  0.18019926893E+04  0.00000000000E+00 0.  1.
         21    1    1    2  505  502 -0.79009158851E+01  0.43296817725E+02  0.60807047341E+02  0.75063545768E+02  0.00000000000E+00 0. -1.
         21    1    1    2  506  501  0.97602500220E+02 -0.63115484672E+02  0.22001818065E+03  0.24883290029E+03  0.00000000000E+00 0.  1.
<scales pt_clust_3="40.25833" pt_clust_4="161.40609" pt_clust_5="44.01180" pt_clust_6="40.25833"></scales>
<clustering>
<clus scale="   40.258">  3  6 -1 -1</clus>
<clus scale="   44.012">  2  5  1 -1</clus>
<clus scale="  161.406">  1  4  2 -1</clus>
<clus scale="  161.406">  1  3  2 -1</clus>
</clustering>
</event>
<event>
 6    0  0.5563122E+002  0.2093297E+03  0.7546771E-02  0.1142098E+00
         21   -1    0    0  505  501  0.00000000000E+00  0.00000000000E+00  0.73458248770E+03  0.73458248770E+03  0.00000000000E+00 0. -1.
         21   -1    0    0  506  502 -0.00000000000E+00 -0.00000000000E+00 -0.83410845461E+03  0.83410845461E+03  0.00000000000E+00 0. -1.
         21    1    1    2  503  504  0.17957516763E+03 -0.17347399635E+02 -0.38945411896E+03  0.42921170054E+03  0.00000000000E+00 0. -1.
         21    1    1    2  504  502  0.43421252530E+02  0.48712427229E+02 -0.27019819055E+03  0.27796648704E+03  0.00000000000E+00 0. -1.
         21    1    1    2  505  503 -0.21623354995E+03  0.14329357561E+02 -0.71500885286E+02  0.22819871868E+03  0.00000000000E+00 0. -1.
         21    1    1    2  506  501 -0.67628702078E+01 -0.45694385155E+02  0.63162722789E+03  0.63331403606E+03  0.00000000000E+00 0. -1.
<scales pt_clust_3="14000.00000" pt_clust_4="63.79432" pt_clust_5="209.32969" pt_clust_6="46.19213"></scales>
<clustering>
<clus scale="   46.192">  1  6  2 -1</clus>
<clus scale="   63.794">  2  4  1 -1</clus>
<clus scale="  209.330">  1  5  2 -1</clus>
<clus scale="   46.192">  1  3  2 -1</clus>
</clustering>
</event>
<event>
 6    0  0.5563122E+002  0.1026678E+03  0.7546771E-02  0.1274784E+00
         21   -1    0    0  503  501  0.00000000000E+00  0.00000000000E+00  0.46525125907E+03  0.46525125907E+03  0.00000000000E+00 0. -1.
         21   -1    0    0  506  502 -0.00000000000E+00 -0.00000000000E+00 -0.15244932038E+03  0.15244932038E+03  0.00000000000E+00 0. -1.
         21    1    1    2  503  505 -0.39492364518E+02 -0.84479473886E+02  0.14912001740E+03  0.17587838967E+03  0.00000000000E+00 0. -1.
         21    1    1    2  504  501  0.34225079244E+02  0.11144921329E+03  0.16059100425E+03  0.19844836567E+03  0.00000000000E+00 0. -1.
         21    1    1    2  505  502 -0.26271776991E+02  0.84579259535E+02 -0.64153844923E+02  0.10935983371E+03  0.00000000000E+00 0. -1.
         21    1    1    2  506  504  0.31539062266E+02 -0.11154899893E+03  0.67244761968E+02  0.13401399040E+03  0.00000000000E+00 0. -1.
<scales pt_clust_3="102.66776" pt_clust_4="14000.00000" pt_clust_5="88.56555" pt_clust_6="70.93746"></scales>
<clustering>
<clus scale="   88.566">  2  5  1 -1</clus>
<clus scale="   70.937">  2  6  1 -1</clus>
<clus scale="  102.668">  1  3  2 -1</clus>
<clus scale="  102.668">  1  3  2 -1</clus>
</clustering>
</event>
<event>
 6    0  0.5563122E+002  0.1030538E+03  0.7546771E-02  0.1274002E+00
         21   -1    0    0  505  501  0.00000000000E+00  0.00000000000E+00  0.37773787760E+02  0.37773787760E+02  0.00000000000E+00 0.  1.
         21   -1    0    0  501  502 -0.00000000000E+00 -0.00000000000E+00 -0.13357304571E+04  0.13357304571E+04  0.00000000000E+00 0.  1.
         21    1    1    2  503  502  0.48598716516E+02  0.89784154051E+01 -0.88138310336E+03  0.88276759234E+03  0.00000000000E+00 0.  1.
         21    1    1    2  504  506 -0.94734009424E+02  0.10889389320E+02 -0.19760593138E+03  0.21941106503E+03  0.00000000000E+00 0.  1.
         21    1    1    2  505  504  0.79753302509E+02 -0.13476264170E+02 -0.42112612201E+02  0.91190301368E+02  0.00000000000E+00 0.  1.
         21    1    1    2  506  503 -0.33618009601E+02 -0.63915405550E+01 -0.17685502244E+03  0.18013528617E+03  0.00000000000E+00 0.  1.
<scales pt_clust_3="49.42112" pt_clust_4="32.38091" pt_clust_5="87.73980" pt_clust_6="32.38091"></scales>
<clustering>
<clus scale="   32.381">  4  6 -1 -1</clus>
<clus scale="   49.421">  2  3  1 -1</clus>
<clus scale="   87.740">  1  5  2 -1</clus>
<clus scale="   87.740">  1  3  2 -1</clus>
</clustering>
</event>
<event>
 6    0  0.5563122E+002  0.8873513E+02  0.7546771E-02  0.1305944E+00
         21   -1    0    0  505  501  0.00000000000E+00  0.00000000000E+00  0.79946851222E+02  0.79946851222E+02  0.00000000000E+00 0.  1.
         21   -1    0    0  503  502 -0.00000000000E+00 -0.00000000000E+00 -0.44327997777E+03  0.44327997777E+03  0.00000000000E+00 0.  1.
         21    1    1    2  503  506  0.31774943730E+02 -0.17578411740E+02 -0.17829379903E+03  0.18195418759E+03  0.00000000000E+00 0.  1.
         21    1    1    2  504  501 -0.70381086372E+02  0.74987274465E+00 -0.33401658479E+02  0.77908474617E+02  0.00000000000E+00 0.  1.
         21    1    1    2  505  502  0.11013198129E+03  0.71033587698E+01 -0.18476759097E+02  0.11189683479E+03  0.00000000000E+00 0.  1.
         21    1    1    2  506  504 -0.71525838652E+02  0.97251802253E+01 -0.13316090994E+03  0.15146733199E+03  0.00000000000E+00 0.  1.
<scales pt_clust_3="36.31319" pt_clust_4="88.73513" pt_clust_5="14000.00000" pt_clust_6="54.34247"></scales>
<clustering>
<clus scale="   36.313">  2  3  1 -1</clus>
<clus scale="   54.342">  2  6  1 -1</clus>
<clus scale="   88.735">  1  4  2 -1</clus>
<clus scale="   88.735">  1  3  2 -1</clus>
</clustering>
</event>
<event>
 6    0  0.5563122E+002  0.7464396E+02  0.7546771E-02  0.1344977E+00
         21   -1    0    0  505  501  0.00000000000E+00  0.00000000000E+00  0.14598575569E+04  0.14598575569E+04  0.00000000000E+00 0.  1.
         21   -1    0    0  506  502 -0.00000000000E+00 -0.00000000000E+00 -0.39700429224E+03  0.39700429224E+03  0.00000000000E+00 0. -1.
         21    1    1    2  503  504 -0.83262221811E+02 -0.57631929167E+02  0.37218584780E+03  0.38571536415E+03  0.00000000000E+00 0.  1.
         21    1    1    2  504  502  0.51779526697E+02  0.10346830585E+02 -0.38368041314E+03  0.38729683154E+03  0.00000000000E+00 0. -1.
         21    1    1    2  505  503  0.26464747885E+02 -0.27537121738E+02  0.74892506653E+03  0.74989828059E+03  0.00000000000E+00 0.  1.
         21    1    1    2  506  501  0.50179472280E+01  0.74822220320E+02  0.32542276344E+03  0.33395137282E+03  0.00000000000E+00 0.  1.
<scales pt_clust_3="74.64396" pt_clust_4="52.85557" pt_clust_5="38.19262" pt_clust_6="14000.00000"></scales>
<clustering>
<clus scale="   38.193">  1  5  2 -1</clus>
<clus scale="   52.856">  2  4  1 -1</clus>
<clus scale="   74.644">  2  3  1 -1</clus>
<clus scale="   38.193">  1  3  2 -1</clus>
</clustering>
</event>
<event>
 6    0  0.5563122E+002  0.8403461E+02  0.7546771E-02  0.1317977E+00
         21   -1    0    0  506  501  0.00000000000E+00  0.00000000000E+00  0.13757518025E+03  0.13757518025E+03  0.00000000000E+00 0.  1.
         21   -1    0    0  504  502 -0.00000000000E+00 -0.00000000000E+00 -0.83177952875E+03  0.83177952875E+03  0.00000000000E+00 0. -1.
         21    1    1    2  503  505 -0.74463247146E+02  0.17579695189E+02 -0.35764270449E+03  0.36573504745E+03  0.00000000000E+00 0. -1.
         21    1    1    2  504  503 -0.15275960770E+02 -0.58669382865E+02 -0.80904863994E+02  0.10109920119E+03  0.00000000000E+00 0. -1.
         21    1    1    2  505  501  0.74619577939E+02 -0.39535460908E+02  0.10380615604E+03  0.13381648670E+03  0.00000000000E+00 0.  1.
         21    1    1    2  506  502  0.15119629977E+02  0.80625148584E+02 -0.35946293605E+03  0.36870397366E+03  0.00000000000E+00 0. -1.
<scales pt_clust_3="84.03461" pt_clust_4="60.62550" pt_clust_5="14000.00000" pt_clust_6="52.34620"></scales>
<clustering>
<clus scale="   60.626">  2  4  1 -1</clus>
<clus scale="   52.346">  2  6  1 -1</clus>
<clus scale="   84.035">  2  3  1 -1</clus>
<clus scale="   84.035">  1  3  2 -1</clus>
</clustering>
</event>
<event>
 6    0  0.5563122E+002  0.1370850E+03  0.7546771E-02  0.1217306E+00
         21   -1    0    0  506  501  0.00000000000E+00  0.00000000000E+00  0.12224354433E+04  0.12224354433E+04  0.00000000000E+00 0. -1.
         21   -1    0    0  503  502 -0.00000000000E+00 -0.00000000000E+00 -0.16504881099E+03  0.16504881099E+03  0.00000000000E+00 0. -1.
         21    1    1    2  503  501 -0.13996810994E+03  0.11548545175E+03  0.97149444007E+02  0.20582996827E+03  0.00000000000E+00 0. -1.
         21    1    1    2  504  502 -0.11903678314E+02 -0.38926759029E+02 -0.13948941242E+02  0.43029793024E+02  0.00000000000E+00 0. -1.
         21    1    1    2  505  504  0.41442567829E+02 -0.78721454358E+02 -0.54299165794E+02  0.10422549213E+03  0.00000000000E+00 0. -1.
         21    1    1    2  506  505  0.11042922043E+03  0.21627616366E+01  0.10284852954E+04  0.10343990009E+04  0.00000000000E+00 0. -1.
<scales pt_clust_3="128.37301" pt_clust_4="32.52969" pt_clust_5="32.52969" pt_clust_6="110.45040"></scales>
<clustering>
<clus scale="   32.530">  4  5 -1 -1</clus>
<clus scale="  110.450">  1  6  2 -1</clus>
<clus scale="  128.373">  1  3  2 -1</clus>
<clus scale="  110.450">  1  3  2 -1</clus>
</clustering>
</event>
<event>
 6    0  0.5563122E+002  0.7346562E+02  0.7546771E-02  0.1348689E+00
         21   -1    0    0  503  501  0.00000000000E+00  0.00000000000E+00  0.42201368622E+03  0.42201368622E+03  0.00000000000E+00 0.  1.
         21   -1    0    0  506  502 -0.00000000000E+00 -0.00000000000E+00 -0.63300337373E+02  0.63300337373E+02  0.00000000000E+00 0.  1.
         21    1    1    2  503  505  0.34515607806E+02 -0.58922582810E+02  0.11380595065E+03  0.13272148413E+03  0.00000000000E+00 0.  1.
         21    1    1    2  504  501 -0.44844385544E+02  0.63493175722E+02  0.19164843690E+03  0.20681277921E+03  0.00000000000E+00 0.  1.
         21    1    1    2  505  502 -0.42736070831E+02 -0.29140567113E+02 -0.16927420465E+02  0.54425012314E+02  0.00000000000E+00 0.  1.
         21    1    1    2  506  504  0.53064848568E+02  0.24569974201E+02  0.70186381770E+02  0.91354747943E+02  0.00000000000E+00 0.  1.
<scales pt_clust_3="14000.00000" pt_clust_4="73.46562" pt_clust_5="51.72566" pt_clust_6="39.06254"></scales>
<clustering>
<clus scale="   51.726">  2  5  1 -1</clus>
<clus scale="   39.063">  2  6  1 -1</clus>
<clus scale="   73.466">  1  4  2 -1</clus>
<clus scale="   73.466">  1  3  2 -1</clus>
</clustering>
</event>
<event>
 6    0  0.5563122E+002  0.1179031E+03  0.7546771E-02  0.1246597E+00
         21   -1    0    0  505  501  0.00000000000E+00  0.00000000000E+00  0.47431001221E+03  0.47431001221E+03  0.00000000000E+00 0.  1.
         21   -1    0    0  503  502 -0.00000000000E+00 -0.00000000000E+00 -0.11474790677E+03  0.11474790677E+03  0.00000000000E+00 0.  1.
         21    1    1    2  503  506  0.11550083078E+03  0.46061892313E+02 -0.56194425900E+02  0.13645494984E+03  0.00000000000E+00 0.  1.
         21    1    1    2  504  501 -0.33711991234E+02 -0.57341740027E+01  0.44218388738E+02  0.55898524194E+02  0.00000000000E+00 0. -1.
         21    1    1    2  505  502 -0.66823245810E+02 -0.27229687386E+01  0.33677467653E+03  0.34335104993E+03  0.00000000000E+00 0.  1.
         21    1    1    2  506  504 -0.14965593737E+02 -0.37604749572E+02  0.34763466065E+02  0.53353395010E+02  0.00000000000E+00 0. -1.
<scales pt_clust_3="14000.00000" pt_clust_4="34.19619" pt_clust_5="117.90314" pt_clust_6="42.42962"></scales>
<clustering>
<clus scale="   34.196">  1  4  2 -1</clus>
<clus scale="   42.430">  1  6  2 -1</clus>
<clus scale="  117.903">  1  5  2 -1</clus>
<clus scale="   34.196">  1  3  2 -1</clus>
</clustering>
</event>
<event>
 6    0  0.5563122E+002  0.2713700E+03  0.7546771E-02  0.1100498E+00
         21   -1    0    0  502  501  0.00000000000E+00  0.00000000000E+00  0.23733124019E+04  0.23733124019E+04  0.00000000000E+00 0.  1.
         21   -1    0    0  506  502 -0.00000000000E+00 -0.00000000000E+00 -0.88815147664E+03  0.88815147664E+03  0.00000000000E+00 0. -1.
         21    1    1    2  503  505  0.13136861868E+03 -0.14501394429E+03  0.16277766998E+04  0.16394949657E+04  0.00000000000E+00 0.  1.
         21    1    1    2  504  501 -0.38081681346E+02  0.88399403001E+01  0.38953103281E+03  0.39148791108E+03  0.00000000000E+00 0.  1.
         21    1    1    2  505  504  0.47034115438E+02 -0.71382203035E+02  0.32573408582E+03  0.33676448980E+03  0.00000000000E+00 0.  1.
         21    1    1    2  506  503 -0.14032105277E+03  0.20755620703E+03 -0.85788089318E+03  0.89371651200E+03  0.00000000000E+00 0. -1.
<scales pt_clust_3="71.44582" pt_clust_4="39.09423" pt_clust_5="71.44582" pt_clust_6="250.79761"></scales>
<clustering>
<clus scale="   39.094">  1  4  2 -1</clus>
<clus scale="   71.446">  3  5 -1 -1</clus>
<clus scale="  250.798">  2  6  1 -1</clus>
<clus scale="   39.094">  1  3  2 -1</clus>
</clustering>
</event>
<event>
 6    0  0.5563122E+002  0.1426854E+03  0.7546771E-02  0.1209761E+00
         21   -1    0    0  503  501  0.00000000000E+00  0.00000000000E+00  0.17899013593E+03  0.17899013593E+03  0.00000000000E+00 0. -1.
         21   -1    0    0  504  502 -0.00000000000E+00 -0.00000000000E+00 -0.27058264434E+03  0.27058264434E+03  0.00000000000E+00 0. -1.
         21    1    1    2  503  505 -0.47452034705E+02  0.12498153923E+02  0.30536426612E+02  0.57795958330E+02  0.00000000000E+00 0. -1.
         21    1    1    2  504  506 -0.72776941415E+02 -0.87965849776E+02  0.60248820872E+00  0.11417021030E+03  0.00000000000E+00 0. -1.
         21    1    1    2  505  502  0.11169383325E+03  0.11360857286E+03 -0.15842272035E+03  0.22467794404E+03  0.00000000000E+00 0. -1.
         21    1    1    2  506  501  0.85351428685E+01 -0.38140877010E+02  0.35691297128E+02  0.52928667597E+02  0.00000000000E+00 0. -1.
<scales pt_clust_3="44.65307" pt_clust_4="142.68541" pt_clust_5="14000.00000" pt_clust_6="39.08421"></scales>
<clustering>
<clus scale="   39.084">  1  6  2 -1</clus>
<clus scale="   44.653">  1  3  2 -1</clus>
<clus scale="  142.685">  1  4  2 -1</clus>
<clus scale="   39.084">  1  3  2 -1</clus>
</clustering>
</event>
<event>
 6    0  0.5563122E+002  0.1083161E+03  0.7546771E-02  0.1263720E+00
         21   -1    0    0  504  501  0.00000000000E+00  0.00000000000E+00  0.47039298689E+03  0.47039298689E+03  0.00000000000E+00 0. -1.
         21   -1    0    0  503  502 -0.00000000000E+00 -0.00000000000E+00 -0.45778928606E+03  0.45778928606E+03  0.00000000000E+00 0.  1.
         21    1    1    2  503  505 -0.31538727529E+02 -0.99584815900E+02 -0.16469051265E+03  0.19502510569E+03  0.00000000000E+00 0.  1.
         21    1    1    2  504  502 -0.49548500642E+00  0.68293429101E+02 -0.23000101726E+03  0.23992645937E+03  0.00000000000E+00 0.  1.
         21    1    1    2  505  506 -0.24433364245E+02 -0.70675579500E+02  0.56256310246E+01  0.74991163149E+02  0.00000000000E+00 0.  1.
         21    1    1    2  506  501  0.56467576780E+02  0.10196696630E+03  0.40166959972E+03  0.41823954474E+03  0.00000000000E+00 0. -1.
<scales pt_clust_3="54.74317" pt_clust_4="68.29523" pt_clust_5="108.31612" pt_clust_6="14000.00000"></scales>
<clustering>
<clus scale="   68.295">  2  4  1 -1</clus>
<clus scale="   54.743">  2  3  1 -1</clus>
<clus scale="  108.316">  2  5  1 -1</clus>
<clus scale="  108.316">  1  3  2 -1</clus>
</clustering>
</event>
<event>
 6    0  0.5563122E+002  0.1211628E+03  0.7546771E-02  0.1241191E+00
         21   -1    0    0  506  501  0.00000000000E+00  0.00000000000E+00  0.36789373168E+02  0.36789373168E+02  0.00000000000E+00 0.  1.
         21   -1    0    0  505  502 -0.00000000000E+00 -0.00000000000E+00 -0.10857202315E+04  0.10857202315E+04  0.00000000000E+00 0.  1.
         21    1    1    2  503  502  0.27784215956E+02  0.19828943538E+02 -0.11461802472E+03  0.11959281437E+03  0.00000000000E+00 0.  1.
         21    1    1    2  504  503  0.12688963372E+03 -0.43816603758E+02 -0.26486610283E+03  0.29694263139E+03  0.00000000000E+00 0.  1.
         21    1    1    2  505  501 -0.38867678838E+02  0.31656161688E+02 -0.48810796358E+03  0.49067524203E+03  0.00000000000E+00 0.  1.
         21    1    1    2  506  504 -0.11580617083E+03 -0.76685014686E+01 -0.18133876721E+03  0.21529891688E+03  0.00000000000E+00 0.  1.
<scales pt_clust_3="34.13429" pt_clust_4="121.16285" pt_clust_5="48.51080" pt_clust_6="14000.00000"></scales>
<clustering>
<clus scale="   34.134">  2  3  1 -1</clus>
<clus scale="   48.511">  2  5  1 -1</clus>
<clus scale="  121.163">  2  4  1 -1</clus>
<clus scale="  121.163">  1  3  2 -1</clus>
</clustering>
</event>
<event>
 6    0  0.5563122E+002  0.1935799E+03  0.7546771E-02  0.1155272E+00
         21   -1    0    0  505  501  0.00000000000E+00  0.00000000000E+00  0.42498042615E+03  0.42498042615E+03  0.00000000000E+00 0.  1.
         21   -1    0    0  503  502 -0.00000000000E+00 -0.00000000000E+00 -0.20201624840E+03  0.20201624840E+03  0.00000000000E+00 0.  1.
         21    1    1    2  503  504 -0.69823904360E+02  0.33950408633E+02  0.21385503209E+02  0.80531655974E+02  0.00000000000E+00 0. -1.
         21    1    1    2  504  506 -0.10484827886E+02  0.19564962871E+03  0.56369374479E+02  0.20387794194E+03  0.00000000000E+00 0.  1.
         21    1    1    2  505  502  0.11786639143E+03 -0.18078613687E+03  0.38273229631E+02  0.21918246650E+03  0.00000000000E+00 0.  1.
         21    1    1    2  506  501 -0.37557659186E+02 -0.48813900474E+02  0.10693607043E+03  0.12340461013E+03  0.00000000000E+00 0. -1.
<scales pt_clust_3="80.30035" pt_clust_4="193.57993" pt_clust_5="14000.00000" pt_clust_6="61.59038"></scales>
<clustering>
<clus scale="   61.590">  1  6  2 -1</clus>
<clus scale="   80.300">  2  3  1 -1</clus>
<clus scale="  193.580">  1  4  2 -1</clus>
<clus scale="   61.590">  1  3  2 -1</clus>
</clustering>
</event>
<event>
 6    0  0.5563122E+002  0.7788990E+02  0.7546771E-02  0.1335149E+00
         21   -1    0    0  503  501  0.00000000000E+00  0.00000000000E+00  0.77604035923E+03  0.77604035923E+03  0.00000000000E+00 0.  1.
         21   -1    0    0  505  502 -0.00000000000E+00 -0.00000000000E+00 -0.92469966877E+02  0.92469966877E+02  0.00000000000E+00 0. -1.
         21    1    1    2  503  506  0.78788646547E+02  0.11532790609E+02  0.77817044700E+02  0.11133799230E+03  0.00000000000E+00 0. -1.
         21    1    1    2  504  501  0.11718233039E+01 -0.78857445943E+02  0.63197854761E+03  0.63688048689E+03  0.00000000000E+00 0.  1.
         21    1    1    2  505  504 -0.49842761384E+02  0.51738706745E+02 -0.41644925724E+02  0.83039114136E+02  0.00000000000E+00 0. -1.
         21    1    1    2  506  502 -0.30117708467E+02  0.15585948589E+02  0.15419725775E+02  0.37252732781E+02  0.00000000000E+00 0. -1.
<scales pt_clust_3="74.07944" pt_clust_4="77.88990" pt_clust_5="14000.00000" pt_clust_6="33.91162"></scales>
<clustering>
<clus scale="   33.912">  2  6  1 -1</clus>
<clus scale="   74.079">  2  3  1 -1</clus>
<clus scale="   77.890">  1  4  2 -1</clus>
<clus scale="   77.890">  1  3  2 -1</clus>
</clustering>
</event>
<event>
 6    0  0.5563122E+002  0.1174683E+03  0.7546771E-02  0.1247333E+00
         21   -1    0    0  505  501  0.00000000000E+00  0.00000000000E+00  0.22398872658E+03  0.22398872658E+03  0.00000000000E+00 0.  1.
         21   -1    0    0  504  502 -0.00000000000E+00 -0.00000000000E+00 -0.18610901729E+03  0.18610901729E+03  0.00000000000E+00 0.  1.
         21    1    1    2  503  502 -0.92953412139E+02  0.18028509146E+02  0.18007244453E+02  0.96382699812E+02  0.00000000000E+00 0.  1.
         21    1    1    2  504  506  0.57159362842E+02  0.28094214162E+02 -0.83357042909E+02  0.10490411923E+03  0.00000000000E+00 0.  1.
         21    1    1    2  505  503 -0.60018538995E+02 -0.14896916785E+02 -0.36092842975E+01  0.61944895560E+02  0.00000000000E+00 0. -1.
         21    1    1    2  506  501  0.95812588292E+02 -0.31225806523E+02  0.10683879205E+03  0.14686602927E+03  0.00000000000E+00 0.  1.
<scales pt_clust_3="30.77448" pt_clust_4="63.69048" pt_clust_5="30.77448" pt_clust_6="111.12468"></scales>
<clustering>
<clus scale="   30.774">  3  5 -1 -1</clus>
<clus scale="   63.690">  2  4  1 -1</clus>
<clus scale="  111.125">  1  6  2 -1</clus>
<clus scale="  111.125">  1  3  2 -1</clus>
</clustering>
</event>
<event>
 6    0  0.5563122E+002  0.8125285E+02  0.7546771E-02  0.1325533E+00
         21   -1    0    0  504  501  0.00000000000E+00  0.00000000000E+00  0.30372158271E+04  0.30372158271E+04  0.00000000000E+00 0.  1.
         21   -1    0    0  505  502 -0.00000000000E+00 -0.00000000000E+00 -0.60305334953E+03  0.60305334953E+03  0.00000000000E+00 0. -1.
         21    1    1    2  503  506  0.30307285157E+02 -0.11039301168E+03  0.15006879774E+03  0.18874796056E+03  0.00000000000E+00 0.  1.
         21    1    1    2  504  502 -0.10346527301E+03  0.34611517890E+02  0.27187077367E+04  0.27208959513E+04  0.00000000000E+00 0.  1.
         21    1    1    2  505  503  0.33577096616E+02  0.73857306109E+02 -0.57707767214E+03  0.58275291742E+03  0.00000000000E+00 0. -1.
         21    1    1    2  506  501  0.39580891235E+02  0.19241876795E+01  0.14246361518E+03  0.14787234732E+03  0.00000000000E+00 0.  1.
<scales pt_clust_3="14000.00000" pt_clust_4="75.59410" pt_clust_5="81.25285" pt_clust_6="39.62763"></scales>
<clustering>
<clus scale="   39.628">  1  6  2 -1</clus>
<clus scale="   75.594">  1  4  2 -1</clus>
<clus scale="   81.253">  2  5  1 -1</clus>
<clus scale="   39.628">  1  3  2 -1</clus>
</clustering>
</event>
<event>
 6    0  0.5563122E+002  0.1630167E+03  0.7546771E-02  0.1185332E+00
         21   -1    0    0  506  501  0.00000000000E+00  0.00000000000E+00  0.71549754280E+02  0.71549754280E+02  0.00000000000E+00 0.  1.
         21   -1    0    0  505  502 -0.00000000000E+00 -0.00000000000E+00 -0.11481124627E+04  0.11481124627E+04  0.00000000000E+00 0.  1.
         21    1    1    2  503  502 -0.15759324766E+03  0.76797123645E+01 -0.92202137755E+03  0.93542398427E+03  0.00000000000E+00 0.  1.
         21    1    1    2  504  501  0.76700121920E+02 -0.14582474808E+02 -0.14872707846E+02  0.79478014021E+02  0.00000000000E+00 0.  1.
         21    1    1    2  505  504  0.86849233954E+02 -0.37469354342E+02 -0.56147810759E+02  0.10999690271E+03  0.00000000000E+00 0.  1.
         21    1    1    2  506  503 -0.59561082131E+01  0.44372116786E+02 -0.83520812256E+02  0.94763315967E+02  0.00000000000E+00 0.  1.
<scales pt_clust_3="158.66761" pt_clust_4="33.98232" pt_clust_5="33.98232" pt_clust_6="44.77008"></scales>
<clustering>
<clus scale="   33.982">  4  5 -1 -1</clus>
<clus scale="   44.770">  1  6  2 -1</clus>
<clus scale="  158.668">  2  3  1 -1</clus>
<clus scale="   44.770">  1  3  2 -1</clus>
</clustering>
</event>
<event>
 6    0  0.5563122E+002  0.1428614E+03  0.7546771E-02  0.1209530E+00
         21   -1    0    0  504  501  0.00000000000E+00  0.00000000000E+00  0.20210170770E+03  0.20210170770E+03  0.00000000000E+00 0. -1.
         21   -1    0    0  501  502 -0.00000000000E+00 -0.00000000000E+00 -0.26195699847E+04  0.26195699847E+04  0.00000000000E+00 0. -1.
         21    1    1    2  503  506 -0.40330481089E+01 -0.67846766412E+02  0.33865275083E+02  0.75936197206E+02  0.00000000000E+00 0. -1.
         21    1    1    2  504  505 -0.41215300780E+01  0.32788225170E+02  0.51167020321E+02  0.60910743621E+02  0.00000000000E+00 0. -1.
         21    1    1    2  505  503 -0.61885740255E+02 -0.78598730838E+02  0.61447820688E+02  0.11740289606E+03  0.00000000000E+00 0. -1.
         21    1    1    2  506  502  0.70040318442E+02  0.11365727208E+03 -0.25639483931E+04  0.25674218555E+04  0.00000000000E+00 0. -1.
<scales pt_clust_3="40.06865" pt_clust_4="33.04625" pt_clust_5="40.06865" pt_clust_6="133.81156"></scales>
<clustering>
<clus scale="   33.046">  1  4  2 -1</clus>
<clus scale="   40.069">  3  5 -1 -1</clus>
<clus scale="  133.812">  2  6  1 -1</clus>
<clus scale="   33.046">  1  3  2 -1</clus>
</clustering>
</event>
<event>
 6    0  0.5563122E+002  0.6303668E+02  0.7546771E-02  0.1385513E+00
         21   -1    0    0  503  501  0.00000000000E+00  0.00000000000E+00  0.64884440816E+03  0.64884440816E+03  0.00000000000E+00 0.  1.
         21   -1    0    0  505  502 -0.00000000000E+00 -0.00000000000E+00 -0.10763140719E+03  0.10763140719E+03  0.00000000000E+00 0. -1.
         21    1    1    2  503  504 -0.47113917022E+02 -0.28282096343E+02  0.15008409488E+03  0.15982751230E+03  0.00000000000E+00 0.  1.
         21    1    1    2  504  506 -0.43115613305E+02  0.60604994462E+02  0.24165250507E+03  0.25283958288E+03  0.00000000000E+00 0.  1.
         21    1    1    2  505  501  0.76977845643E+02  0.11764610932E+02  0.23451662440E+03  0.24710734896E+03  0.00000000000E+00 0.  1.
         21    1    1    2  506  502  0.13251684684E+02 -0.44087509050E+02 -0.85040223382E+02  0.96701371211E+02  0.00000000000E+00 0. -1.
<scales pt_clust_3="59.67039" pt_clust_4="14000.00000" pt_clust_5="63.03668" pt_clust_6="46.03603"></scales>
<clustering>
<clus scale="   46.036">  2  6  1 -1</clus>
<clus scale="   59.670">  1  3  2 -1</clus>
<clus scale="   63.037">  1  5  2 -1</clus>
<clus scale="   59.670">  1  3  2 -1</clus>
</clustering>
</event>
<event>
 6    0  0.5563122E+002  0.1038308E+03  0.7546771E-02  0.1272440E+00
         21   -1    0    0  504  501  0.00000000000E+00  0.00000000000E+00  0.13981070272E+03  0.13981070272E+03  0.00000000000E+00 0.  1.
         21   -1    0    0  503  502 -0.00000000000E+00 -0.00000000000E+00 -0.43465173909E+03  0.43465173909E+03  0.00000000000E+00 0.  1.
         21    1    1    2  503  505  0.30394113003E+02 -0.61059658604E+00 -0.27570235934E+03  0.27737333304E+03  0.00000000000E+00 0.  1.
         21    1    1    2  504  502 -0.36364752157E+02  0.36218610784E+01 -0.17139953955E+02  0.40364478179E+02  0.00000000000E+00 0. -1.
         21    1    1    2  505  506  0.25851717010E+02  0.99271483533E+02 -0.77063876125E+02  0.12830424669E+03  0.00000000000E+00 0.  1.
         21    1    1    2  506  501 -0.19881077856E+02 -0.10228274803E+03  0.75065153053E+02  0.12842038391E+03  0.00000000000E+00 0.  1.
<scales pt_clust_3="30.40025" pt_clust_4="31.03694" pt_clust_5="103.83084" pt_clust_6="14000.00000"></scales>
<clustering>
<clus scale="   30.400">  2  3  1 -1</clus>
<clus scale="   31.037">  2  4  1 -1</clus>
<clus scale="  103.831">  2  5  1 -1</clus>
<clus scale="  103.831">  1  3  2 -1</clus>
</clustering>
</event>
<event>
 6    0  0.5563122E+002  0.6813924E+02  0.7546771E-02  0.1366537E+00
         21   -1    0    0  506  501  0.00000000000E+00  0.00000000000E+00  0.27206026682E+03  0.27206026682E+03  0.00000000000E+00 0.  1.
         21   -1    0    0  503  502 -0.00000000000E+00 -0.00000000000E+00 -0.37287562400E+03  0.37287562400E+03  0.00000000000E+00 0. -1.
         21    1    1    2  503  504 -0.41548939917E+02  0.52117227894E+02 -0.30909136205E+03  0.31619612576E+03  0.00000000000E+00 0. -1.
         21    1    1    2  504  501 -0.55094953420E+02  0.75316932995E+01  0.20934730268E+01  0.55646769229E+02  0.00000000000E+00 0. -1.
         21    1    1    2  505  502  0.95720609545E+02 -0.97578841254E+02  0.13330236211E+03  0.19092821975E+03  0.00000000000E+00 0. -1.
         21    1    1    2  506  505  0.92328379227E+00  0.37929920060E+02  0.72880169728E+02  0.82164776080E+02  0.00000000000E+00 0.  1.
<scales pt_clust_3="14000.00000" pt_clust_4="56.51174" pt_clust_5="68.13924" pt_clust_6="37.94116"></scales>
<clustering>
<clus scale="   37.941">  1  6  2 -1</clus>
<clus scale="   56.512">  1  4  2 -1</clus>
<clus scale="   68.139">  1  5  2 -1</clus>
<clus scale="   37.941">  1  3  2 -1</clus>
</clustering>
</event>
<event>
 6    0  0.5563122E+002  0.1522595E+03  0.7546771E-02  0.1197724E+00
         21   -1    0    0  504  501  0.00000000000E+00  0.00000000000E+00  0.32439796125E+03  0.32439796125E+03  0.00000000000E+00 0. -1.
         21   -1    0    0  505  502 -0.00000000000E+00 -0.00000000000E+00 -0.95926501856E+03  0.95926501856E+03  0.00000000000E+00 0.  1.
         21    1    1    2  503  502 -0.67014866378E+02  0.13282003654E+03 -0.80049318105E+03  0.81419990625E+03  0.00000000000E+00 0.  1.
         21    1    1    2  504  506  0.12677636303E+03 -0.12550217994E+02  0.20122436549E+03  0.23816170864E+03  0.00000000000E+00 0. -1.
         21    1    1    2  505  501  0.58526377753E+02 -0.99345642719E+01  0.16054018305E+02  0.61496048360E+02  0.00000000000E+00 0. -1.
         21    1    1    2  506  503 -0.11828787441E+03 -0.11033525427E+03 -0.51652260050E+02  0.16980531657E+03  0.00000000000E+00 0. -1.
<scales pt_clust_3="147.92783" pt_clust_4="14000.00000" pt_clust_5="59.36356" pt_clust_6="152.25955"></scales>
<clustering>
<clus scale="   59.364">  1  5  2 -1</clus>
<clus scale="  147.928">  2  3  1 -1</clus>
<clus scale="  152.260">  2  6  1 -1</clus>
<clus scale="   59.364">  1  3  2 -1</clus>
</clustering>
</event>
<event>
 6    0  0.5563122E+002  0.9194757E+02  0.7546771E-02  0.1298203E+00
         21   -1    0    0  505  501  0.00000000000E+00  0.00000000000E+00  0.53137461811E+03  0.53137461811E+03  0.00000000000E+00 0.  1.
         21   -1    0    0  501  502 -0.00000000000E+00 -0.00000000000E+00 -0.12823650299E+04  0.12823650299E+04  0.00000000000E+00 0.  1.
         21    1    1    2  503  504 -0.94399898465E+02 -0.57172480729E+02  0.21077586975E+03  0.23792120681E+03  0.00000000000E+00 0.  1.
         21    1    1    2  504  502  0.59842022613E+02  0.69680089235E+02 -0.12457898300E+04  0.12491711985E+04  0.00000000000E+00 0.  1.
         21    1    1    2  505  506 -0.22927022466E+02  0.19723031332E+02  0.25121416029E+03  0.25302806297E+03  0.00000000000E+00 0.  1.
         21    1    1    2  506  503  0.57484898319E+02 -0.32230639838E+02  0.32809388178E+02  0.73619179781E+02  0.00000000000E+00 0. -1.
<scales pt_clust_3="14000.00000" pt_clust_4="91.94757" pt_clust_5="30.24312" pt_clust_6="60.26585"></scales>
<clustering>
<clus scale="   30.243">  1  5  2 -1</clus>
<clus scale="   60.266">  1  6  2 -1</clus>
<clus scale="   91.948">  2  4  1 -1</clus>
<clus scale="   30.243">  1  3  2 -1</clus>
</clustering>
</event>
<event>
 6    0  0.5563122E+002  0.9931224E+02  0.7546771E-02  0.1281749E+00
         21   -1    0    0  506  501  0.00000000000E+00  0.00000000000E+00  0.36884710154E+03  0.36884710154E+03  0.00000000000E+00 0.  1.
         21   -1    0    0  503  502 -0.00000000000E+00 -0.00000000000E+00 -0.93681133130E+02  0.93681133130E+02  0.00000000000E+00 0.  1.
         21    1    1    2  503  505 -0.63905846010E+02  0.51278750392E+02  0.20710915244E+02  0.84512776587E+02  0.00000000000E+00 0.  1.
         21    1    1    2  504  502  0.35589151858E+02 -0.18663211494E+01 -0.57165883604E+01  0.36093631946E+02  0.00000000000E+00 0.  1.
         21    1    1    2  505  501 -0.16671494953E+02  0.80585678694E+02  0.12017482146E+03  0.14565019076E+03  0.00000000000E+00 0.  1.
         21    1    1    2  506  504  0.44988189106E+02 -0.12999810794E+03  0.13999682006E+03  0.19627163538E+03  0.00000000000E+00 0.  1.
<scales pt_clust_3="69.85488" pt_clust_4="35.63805" pt_clust_5="14000.00000" pt_clust_6="99.31224"></scales>
<clustering>
<clus scale="   35.638">  2  4  1 -1</clus>
<clus scale="   69.855">  2  3  1 -1</clus>
<clus scale="   99.312">  2  6  1 -1</clus>
<clus scale="   99.312">  1  3  2 -1</clus>
</clustering>
</event>
<event>
 6    0  0.5563122E+002  0.2437478E+03  0.7546771E-02  0.1117321E+00
         21   -1    0    0  503  501  0.00000000000E+00  0.00000000000E+00  0.31531144493E+03  0.31531144493E+03  0.00000000000E+00 0.  1.
         21   -1    0    0  504  502 -0.00000000000E+00 -0.00000000000E+00 -0.25572482712E+04  0.25572482712E+04  0.00000000000E+00 0.  1.
         21    1    1    2  503  505 -0.16858372535E+03  0.19893141920E+03 -0.18507115354E+04  0.18689910030E+04  0.00000000000E+00 0.  1.
         21    1    1    2  504  506 -0.95225798022E+02 -0.13737093299E+02 -0.29369166841E+03  0.30904927832E+03  0.00000000000E+00 0.  1.
         21    1    1    2  505  502  0.77581966365E+02 -0.28494448915E+02 -0.34063753485E+03  0.35052079150E+03  0.00000000000E+00 0.  1.
         21    1    1    2  506  501  0.18622755701E+03 -0.15669987698E+03  0.24310391235E+03  0.34399864336E+03  0.00000000000E+00 0.  1.
<scales pt_clust_3="243.74781" pt_clust_4="86.46843" pt_clust_5="82.64923" pt_clust_6="14000.00000"></scales>
<clustering>
<clus scale="   82.649">  2  5  1 -1</clus>
<clus scale="   86.468">  2  4  1 -1</clus>
<clus scale="  243.748">  2  3  1 -1</clus>
<clus scale="  243.748">  1  3  2 -1</clus>
</clustering>
</event>
<event>
 6    0  0.5563122E+002  0.1042366E+03  0.7546771E-02  0.1271631E+00
         21   -1    0    0  504  501  0.00000000000E+00  0.00000000000E+00  0.38256098951E+03  0.38256098951E+03  0.00000000000E+00 0. -1.
         21   -1    0    0  503  502 -0.00000000000E+00 -0.00000000000E+00 -0.86644645194E+02  0.86644645194E+02  0.00000000000E+00 0. -1.
         21    1    1    2  503  501 -0.79390199170E+02 -0.15299882536E+02  0.19558723366E+02  0.83183134045E+02  0.00000000000E+00 0. -1.
         21    1    1    2  504  506 -0.22673558989E+02 -0.45968963581E+02  0.25170290931E+03  0.25686881953E+03  0.00000000000E+00 0. -1.
         21    1    1    2  505  502  0.30114550432E+02  0.36966375862E+02 -0.43105454126E+01  0.47874626827E+02  0.00000000000E+00 0. -1.
         21    1    1    2  506  505  0.71949207727E+02  0.24302470254E+02  0.28965257055E+02  0.81279054308E+02  0.00000000000E+00 0. -1.
<scales pt_clust_3="94.67484" pt_clust_4="51.25657" pt_clust_5="34.55603" pt_clust_6="34.55603"></scales>
<clustering>
<clus scale="   34.556">  5  6 -1 -1</clus>
<clus scale="   51.257">  1  4  2 -1</clus>
<clus scale="   94.675">  2  3  1 -1</clus>
<clus scale="   51.257">  1  3  2 -1</clus>
</clustering>
</event>
<event>
 6    0  0.5563122E+002  0.1318086E+03  0.7546771E-02  0.1224797E+00
         21   -1    0    0  506  501  0.00000000000E+00  0.00000000000E+00  0.27223146296E+03  0.27223146296E+03  0.00000000000E+00 0.  1.
         21   -1    0    0  503  502 -0.00000000000E+00 -0.00000000000E+00 -0.12142854872E+03  0.12142854872E+03  0.00000000000E+00 0. -1.
         21    1    1    2  503  504  0.32927110302E+02  0.12758376937E+02  0.17443575250E+02  0.39385899665E+02  0.00000000000E+00 0. -1.
         21    1    1    2  504  501  0.51213269144E+02  0.69028849667E+02  0.13761307187E+03  0.16225023443E+03  0.00000000000E+00 0.  1.
         21    1    1    2  505  502  0.38407466769E+02 -0.27872452900E+02 -0.29364768752E+02  0.55805884798E+02  0.00000000000E+00 0.  1.
         21    1    1    2  506  505 -0.12254784621E+03 -0.53914773704E+02  0.25111035869E+02  0.13621799278E+03  0.00000000000E+00 0. -1.
<scales pt_clust_3="34.19312" pt_clust_4="34.19312" pt_clust_5="47.45532" pt_clust_6="120.53087"></scales>
<clustering>
<clus scale="   34.193">  3  4 -1 -1</clus>
<clus scale="   47.455">  2  5  1 -1</clus>
<clus scale="  120.531">  2  6  1 -1</clus>
<clus scale="  131.809">  1  3  2 -1</clus>
</clustering>
</event>
<event>
 6    0  0.5563122E+002  0.7693209E+02  0.7546771E-02  0.1337990E+00
         21   -1    0    0  505  501  0.00000000000E+00  0.00000000000E+00  0.80912522579E+02  0.80912522579E+02  0.00000000000E+00 0.  1.
         21   -1    0    0  503  502 -0.00000000000E+00 -0.00000000000E+00 -0.62519084186E+03  0.62519084186E+03  0.00000000000E+00 0. -1.
         21    1    1    2  503  506  0.55716905600E+01 -0.39129885112E+02 -0.19410264775E+03  0.19808591446E+03  0.00000000000E+00 0. -1.
         21    1    1    2  504  502 -0.21334468867E+02  0.51299278596E+02 -0.23672878881E+03  0.24316104745E+03  0.00000000000E+00 0.  1.
         21    1    1    2  505  504 -0.20018139266E+02  0.72320227809E+02  0.40776331134E+02  0.85402871326E+02  0.00000000000E+00 0.  1.
         21    1    1    2  506  501  0.35780917573E+02 -0.84489621293E+02 -0.15422321386E+03  0.17945353121E+03  0.00000000000E+00 0. -1.
<scales pt_clust_3="39.52457" pt_clust_4="34.60301" pt_clust_5="14000.00000" pt_clust_6="76.93209"></scales>
<clustering>
<clus scale="   39.525">  2  3  1 -1</clus>
<clus scale="   34.603">  2  4  1 -1</clus>
<clus scale="   76.932">  2  6  1 -1</clus>
<clus scale="   76.932">  1  3  2 -1</clus>
</clustering>
</event>
<event>
 6    0  0.5563122E+002  0.1756640E+03  0.7546771E-02  0.1172067E+00
         21   -1    0    0  503  501  0.00000000000E+00  0.00000000000E+00  0.36694683354E+03  0.36694683354E+03  0.00000000000E+00 0.  1.
         21   -1    0    0  506  502 -0.00000000000E+00 -0.00000000000E+00 -0.89158427628E+03  0.89158427628E+03  0.00000000000E+00 0. -1.
         21    1    1    2  503  502 -0.88661210266E+02  0.12940488020E+02  0.32268138086E+03  0.33489034025E+03  0.00000000000E+00 0.  1.
         21    1    1    2  504  501 -0.65148328427E+02  0.51086452625E+02 -0.31343917750E+02  0.88524411992E+02  0.00000000000E+00 0. -1.
         21    1    1    2  505  504  0.38460568674E+02  0.11037336958E+02 -0.19801031755E+03  0.20201268278E+03  0.00000000000E+00 0. -1.
         21    1    1    2  506  505  0.11534897002E+03 -0.75064277603E+02 -0.61796458830E+03  0.63310367481E+03  0.00000000000E+00 0. -1.
<scales pt_clust_3="164.34838" pt_clust_4="82.78968" pt_clust_5="33.44586" pt_clust_6="33.44586"></scales>
<clustering>
<clus scale="   33.446">  5  6 -1 -1</clus>
<clus scale="   82.790">  1  4  2 -1</clus>
<clus scale="  164.348">  1  3  2 -1</clus>
<clus scale="   82.790">  1  3  2 -1</clus>
</clustering>
</event>
<event>
 6    0  0.5563122E+002  0.1557927E+03  0.7546771E-02  0.1193530E+00
         21   -1    0    0  506  501  0.00000000000E+00  0.00000000000E+00  0.38477875960E+03  0.38477875960E+03  0.00000000000E+00 0.  1.
         21   -1    0    0  505  502 -0.00000000000E+00 -0.00000000000E+00 -0.15970513630E+03  0.15970513630E+03  0.00000000000E+00 0. -1.
         21    1    1    2  503  501  0.50929520664E+02  0.87343814141E+02 -0.96710133520E+00  0.10111228031E+03  0.00000000000E+00 0. -1.
         21    1    1    2  504  502 -0.37120942368E+02 -0.10045353595E+03  0.48838170496E+02  0.11770320363E+03  0.00000000000E+00 0.  1.
         21    1    1    2  505  503  0.21777759988E+02  0.89712130741E+02 -0.33860798442E+02  0.98331535650E+02  0.00000000000E+00 0. -1.
         21    1    1    2  506  504 -0.35586338285E+02 -0.76602408931E+02  0.21106335258E+03  0.22733687631E+03  0.00000000000E+00 0.  1.
<scales pt_clust_3="41.97539" pt_clust_4="149.47127" pt_clust_5="41.97539" pt_clust_6="84.46488"></scales>
<clustering>
<clus scale="   41.975">  3  5 -1 -1</clus>
<clus scale="   84.465">  1  6  2 -1</clus>
<clus scale="  149.471">  1  4  2 -1</clus>
<clus scale="   84.465">  1  3  2 -1</clus>
</clustering>
</event>
<event>
 6    0  0.5563122E+002  0.7924629E+02  0.7546771E-02  0.1331204E+00
         21   -1    0    0  505  501  0.00000000000E+00  0.00000000000E+00  0.69156781648E+03  0.69156781648E+03  0.00000000000E+00 0. -1.
         21   -1    0    0  504  502 -0.00000000000E+00 -0.00000000000E+00 -0.19059176369E+03  0.19059176369E+03  0.00000000000E+00 0.  1.
         21    1    1    2  503  501 -0.29636785545E+02 -0.12451267136E+02  0.56819149961E+03  0.56910012594E+03  0.00000000000E+00 0. -1.
         21    1    1    2  504  506 -0.79216568523E+02  0.13804065882E+02 -0.13190297540E+03  0.15448045793E+03  0.00000000000E+00 0.  1.
         21    1    1    2  505  502  0.31333097401E+02 -0.45004470188E+02  0.15810913474E+02  0.57071449206E+02  0.00000000000E+00 0.  1.
         21    1    1    2  506  503  0.77520256667E+02  0.43651671441E+02  0.48876615102E+02  0.10150754709E+03  0.00000000000E+00 0.  1.
<scales pt_clust_3="32.14612" pt_clust_4="14000.00000" pt_clust_5="53.66232" pt_clust_6="79.24629"></scales>
<clustering>
<clus scale="   32.146">  1  3  2 -1</clus>
<clus scale="   53.662">  1  5  2 -1</clus>
<clus scale="   79.246">  1  6  2 -1</clus>
<clus scale="   32.146">  1  3  2 -1</clus>
</clustering>
</event>
<event>
 6    0  0.5563122E+002  0.7200060E+02  0.7546771E-02  0.1353419E+00
         21   -1    0    0  503  501  0.00000000000E+00  0.00000000000E+00  0.98451200648E+03  0.98451200648E+03  0.00000000000E+00 0.  1.
         21   -1    0    0  505  502 -0.00000000000E+00 -0.00000000000E+00 -0.26321033183E+02  0.26321033183E+02  0.00000000000E+00 0.  1.
         21    1    1    2  503  504 -0.29665691761E+02  0.36888920200E+02  0.20035424540E+03  0.20587051598E+03  0.00000000000E+00 0.  1.
         21    1    1    2  504  502 -0.70305672901E+01  0.70868332798E+02  0.88923043892E+02  0.11392566526E+03  0.00000000000E+00 0.  1.
         21    1    1    2  505  506  0.40269382503E+02 -0.10620779112E+02  0.52530132494E+02  0.67036101736E+02  0.00000000000E+00 0.  1.
         21    1    1    2  506  501 -0.35731234510E+01 -0.97136473886E+02  0.61638355151E+03  0.62400075668E+03  0.00000000000E+00 0.  1.
<scales pt_clust_3="42.64031" pt_clust_4="14000.00000" pt_clust_5="41.64642" pt_clust_6="72.00060"></scales>
<clustering>
<clus scale="   41.646">  2  5  1 -1</clus>
<clus scale="   42.640">  1  3  2 -1</clus>
<clus scale="   72.001">  1  6  2 -1</clus>
<clus scale="   42.640">  1  3  2 -1</clus>
</clustering>
</event>
<event>
 6    0  0.1793427E+003  0.1289913E+03  0.7546771E-02  0.1228960E+00
         21   -1    0    0  506  501  0.00000000000E+00  0.00000000000E+00  0.91465981025E+03  0.91465981025E+03  0.00000000000E+00 0. -1.
         21   -1    0    0  504  502 -0.00000000000E+00 -0.00000000000E+00 -0.64629083644E+03  0.64629083644E+03  0.00000000000E+00 0.  1.
         21    1    1    2  503  502  0.90044624809E+02  0.88480460331E+02  0.10060516432E+03  0.16142560332E+03  0.00000000000E+00 0. -1.
         21    1    1    2  504  505  0.41588370691E+02 -0.34810852045E+02 -0.60051904007E+03  0.60296310457E+03  0.00000000000E+00 0.  1.
         21    1    1    2  505  501 -0.39973267922E+02 -0.50851203424E+01  0.28054649244E+02  0.49099734637E+02  0.00000000000E+00 0. -1.
         21    1    1    2  506  503 -0.91659727579E+02 -0.48584487943E+02  0.74022820031E+03  0.74746220417E+03  0.00000000000E+00 0. -1.
<scales pt_clust_3="128.99126" pt_clust_4="54.19638" pt_clust_5="40.29542" pt_clust_6="14000.00000"></scales>
<clustering>
<clus scale="   40.295">  1  5  2 -1</clus>
<clus scale="   54.196">  2  4  1 -1</clus>
<clus scale="  128.991">  2  3  1 -1</clus>
<clus scale="   40.295">  1  3  2 -1</clus>
</clustering>
</event>
<event>
 6    0  0.5563122E+002  0.1131990E+03  0.7546771E-02  0.1254758E+00
         21   -1    0    0  503  501  0.00000000000E+00  0.00000000000E+00  0.74792760845E+03  0.74792760845E+03  0.00000000000E+00 0. -1.
         21   -1    0    0  505  502 -0.00000000000E+00 -0.00000000000E+00 -0.34811641025E+03  0.34811641025E+03  0.00000000000E+00 0.  1.
         21    1    1    2  503  504  0.71777769770E+02 -0.19389042191E+02  0.63018466693E+02  0.97464405475E+02  0.00000000000E+00 0. -1.
         21    1    1    2  504  506  0.83402439554E+02  0.28776283979E+02  0.13312445250E+03  0.15970648483E+03  0.00000000000E+00 0. -1.
         21    1    1    2  505  501 -0.60646585707E+02 -0.40243644350E+01  0.51237731326E+03  0.51596968420E+03  0.00000000000E+00 0. -1.
         21    1    1    2  506  502 -0.94533623618E+02 -0.53628773533E+01 -0.30870903425E+03  0.32290344420E+03  0.00000000000E+00 0.  1.
<scales pt_clust_3="54.27677" pt_clust_4="54.27677" pt_clust_5="60.77996" pt_clust_6="96.53093"></scales>
<clustering>
<clus scale="   54.277">  3  4 -1 -1</clus>
<clus scale="   60.780">  1  5  2 -1</clus>
<clus scale="   96.531">  2  6  1 -1</clus>
<clus scale="   60.780">  1  3  2 -1</clus>
</clustering>
</event>
<event>
 6    0  0.5563122E+002  0.1244028E+03  0.7546771E-02  0.1236006E+00
         21   -1    0    0  506  501  0.00000000000E+00  0.00000000000E+00  0.66091260867E+03  0.66091260867E+03  0.00000000000E+00 0.  1.
         21   -1    0    0  504  502 -0.00000000000E+00 -0.00000000000E+00 -0.19485791448E+03  0.19485791448E+03  0.00000000000E+00 0. -1.
         21    1    1    2  503  502 -0.16252337527E+02  0.92595311503E+02  0.10483251408E+03  0.14081152721E+03  0.00000000000E+00 0.  1.
         21    1    1    2  504  505 -0.10113579491E+02  0.45132187318E+02 -0.14479856667E+03  0.15200599900E+03  0.00000000000E+00 0. -1.
         21    1    1    2  505  501  0.80781951930E+01 -0.16436575719E+03  0.21807328641E+03  0.27319831189E+03  0.00000000000E+00 0.  1.
         21    1    1    2  506  503  0.18287721825E+02  0.26638258370E+02  0.28794746037E+03  0.28975468506E+03  0.00000000000E+00 0.  1.
<scales pt_clust_3="124.40284" pt_clust_4="46.46508" pt_clust_5="14000.00000" pt_clust_6="32.31157"></scales>
<clustering>
<clus scale="   32.312">  1  6  2 -1</clus>
<clus scale="   46.465">  2  4  1 -1</clus>
<clus scale="  124.403">  1  3  2 -1</clus>
<clus scale="   32.312">  1  3  2 -1</clus>
</clustering>
</event>
<event>
 6    0  0.5563122E+002  0.8399762E+02  0.7546771E-02  0.1318075E+00
         21   -1    0    0  504  501  0.00000000000E+00  0.00000000000E+00  0.40530764973E+03  0.40530764973E+03  0.00000000000E+00 0. -1.
         21   -1    0    0  505  502 -0.00000000000E+00 -0.00000000000E+00 -0.38892077458E+03  0.38892077458E+03  0.00000000000E+00 0.  1.
         21    1    1    2  503  502 -0.33270184360E+02  0.35441527618E+02 -0.93995828666E+02  0.10582165588E+03  0.00000000000E+00 0.  1.
         21    1    1    2  504  506  0.71791207540E+02  0.43484577998E+02  0.35428955583E+03  0.36409610733E+03  0.00000000000E+00 0. -1.
         21    1    1    2  505  501  0.43527226022E+02 -0.45935713781E+02  0.16616544256E+01  0.63304583572E+02  0.00000000000E+00 0. -1.
         21    1    1    2  506  503 -0.82048249202E+02 -0.32990391836E+02 -0.24556850644E+03  0.26100607752E+03  0.00000000000E+00 0.  1.
<scales pt_clust_3="48.61077" pt_clust_4="83.99762" pt_clust_5="58.09878" pt_clust_6="14000.00000"></scales>
<clustering>
<clus scale="   48.611">  2  3  1 -1</clus>
<clus scale="   58.099">  2  5  1 -1</clus>
<clus scale="   83.998">  1  4  2 -1</clus>
<clus scale="   83.998">  1  3  2 -1</clus>
</clustering>
</event>
<event>
 6    0  0.5563122E+002  0.1241874E+03  0.7546771E-02  0.1236345E+00
         21   -1    0    0  505  501  0.00000000000E+00  0.00000000000E+00  0.23157334042E+04  0.23157334042E+04  0.00000000000E+00 0.  1.
         21   -1    0    0  503  502 -0.00000000000E+00 -0.00000000000E+00 -0.23845056716E+03  0.23845056716E+03  0.00000000000E+00 0.  1.
         21    1    1    2  503  506 -0.43642971831E+02 -0.54511861765E+02  0.38101794559E+01  0.69934036998E+02  0.00000000000E+00 0. -1.
         21    1    1    2  504  501 -0.95528150026E+02  0.77485816706E+02  0.21327952478E+04  0.21363392166E+04  0.00000000000E+00 0.  1.
         21    1    1    2  505  502 -0.72862057609E+02  0.19689500176E+01 -0.10670234232E+03  0.12922130652E+03  0.00000000000E+00 0.  1.
         21    1    1    2  506  504  0.21203317947E+03 -0.24942904958E+02  0.47379752128E+02  0.21868941130E+03  0.00000000000E+00 0. -1.
<scales pt_clust_3="69.83017" pt_clust_4="14000.00000" pt_clust_5="102.22829" pt_clust_6="124.18737"></scales>
<clustering>
<clus scale="   69.830">  2  3  1 -1</clus>
<clus scale="  102.228">  2  5  1 -1</clus>
<clus scale="  124.187">  2  6  1 -1</clus>
<clus scale="  124.187">  1  3  2 -1</clus>
</clustering>
</event>
<event>
 6    0  0.5563122E+002  0.1558535E+03  0.7546771E-02  0.1193459E+00
         21   -1    0    0  506  501  0.00000000000E+00  0.00000000000E+00  0.18464489745E+04  0.18464489745E+04  0.00000000000E+00 0.  1.
         21   -1    0    0  503  502 -0.00000000000E+00 -0.00000000000E+00 -0.21059508916E+03  0.21059508916E+03  0.00000000000E+00 0. -1.
         21    1    1    2  503  505 -0.10290506538E+02  0.33530517028E+02 -0.97558388158E+02  0.10367173770E+03  0.00000000000E+00 0. -1.
         21    1    1    2  504  501  0.91824369737E+02 -0.15512462162E+03  0.99115267915E+02  0.20571630816E+03  0.00000000000E+00 0. -1.
         21    1    1    2  505  504 -0.10629810126E+03  0.85835833585E+02  0.26380152657E+02  0.13915095801E+03  0.00000000000E+00 0. -1.
         21    1    1    2  506  502  0.24764238065E+02  0.35758271009E+02  0.16079168529E+04  0.16085050598E+04  0.00000000000E+00 0.  1.
<scales pt_clust_3="35.07407" pt_clust_4="14000.00000" pt_clust_5="155.85353" pt_clust_6="43.55433"></scales>
<clustering>
<clus scale="   35.074">  2  3  1 -1</clus>
<clus scale="   43.554">  1  6  2 -1</clus>
<clus scale="  155.854">  2  5  1 -1</clus>
<clus scale="   43.554">  1  3  2 -1</clus>
</clustering>
</event>
<event>
 6    0  0.5563122E+002  0.1948897E+03  0.7546771E-02  0.1154124E+00
         21   -1    0    0  506  501  0.00000000000E+00  0.00000000000E+00  0.61175076832E+02  0.61175076832E+02  0.00000000000E+00 0. -1.
         21   -1    0    0  505  502 -0.00000000000E+00 -0.00000000000E+00 -0.14198409477E+04  0.14198409477E+04  0.00000000000E+00 0.  1.
         21    1    1    2  503  502  0.31184079570E+02  0.21237583943E+01 -0.13004302499E+03  0.13374657199E+03  0.00000000000E+00 0. -1.
         21    1    1    2  504  503  0.24320764407E+02 -0.35104000407E+02 -0.22204198390E+03  0.22611155000E+03  0.00000000000E+00 0.  1.
         21    1    1    2  505  501 -0.29839657140E+02  0.18280494974E+03 -0.11788606579E+03  0.21955677921E+03  0.00000000000E+00 0. -1.
         21    1    1    2  506  504 -0.25665186837E+02 -0.14982470773E+03 -0.88869479614E+03  0.90160112331E+03  0.00000000000E+00 0.  1.
<scales pt_clust_3="31.25631" pt_clust_4="34.21633" pt_clust_5="184.88575" pt_clust_6="34.21633"></scales>
<clustering>
<clus scale="   31.256">  2  3  1 -1</clus>
<clus scale="   34.216">  4  6 -1 -1</clus>
<clus scale="  184.886">  1  5  2 -1</clus>
<clus scale="  184.886">  1  3  2 -1</clus>
</clustering>
</event>
<event>
 6    0  0.5563122E+002  0.2259516E+03  0.7546771E-02  0.1129522E+00
         21   -1    0    0  506  501  0.00000000000E+00  0.00000000000E+00  0.29015569465E+04  0.29015569465E+04  0.00000000000E+00 0.  1.
         21   -1    0    0  503  502 -0.00000000000E+00 -0.00000000000E+00 -0.14817564666E+03  0.14817564666E+03  0.00000000000E+00 0. -1.
         21    1    1    2  503  505 -0.17828545731E+01  0.37421300859E+02 -0.12254180260E+03  0.12814064817E+03  0.00000000000E+00 0. -1.
         21    1    1    2  504  502 -0.24308060702E+02  0.20307581036E+02  0.53364126017E+02  0.62056503351E+02  0.00000000000E+00 0.  1.
         21    1    1    2  505  501  0.16306505493E+03  0.13844174504E+03  0.11195930605E+04  0.11398442657E+04  0.00000000000E+00 0.  1.
         21    1    1    2  506  504 -0.13697413965E+03 -0.19617062694E+03  0.17029659159E+04  0.17196911760E+04  0.00000000000E+00 0.  1.
<scales pt_clust_3="59.71179" pt_clust_4="31.67459" pt_clust_5="14000.00000" pt_clust_6="225.95157"></scales>
<clustering>
<clus scale="   31.675">  2  4  1 -1</clus>
<clus scale="   59.712">  2  3  1 -1</clus>
<clus scale="  225.952">  1  6  2 -1</clus>
<clus scale="  225.952">  1  3  2 -1</clus>
</clustering>
</event>
<event>
 6    0  0.5563122E+002  0.1138737E+03  0.7546771E-02  0.1253560E+00
         21   -1    0    0  504  501  0.00000000000E+00  0.00000000000E+00  0.44996510279E+02  0.44996510279E+02  0.00000000000E+00 0. -1.
         21   -1    0    0  503  502 -0.00000000000E+00 -0.00000000000E+00 -0.14137814328E+04  0.14137814328E+04  0.00000000000E+00 0. -1.
         21    1    1    2  503  501 -0.46813417388E+02  0.67709844854E+02 -0.37670461499E+03  0.38559368005E+03  0.00000000000E+00 0. -1.
         21    1    1    2  504  505 -0.76803958493E+02 -0.50208501674E+01 -0.68893006129E+01  0.77275607015E+02  0.00000000000E+00 0. -1.
         21    1    1    2  505  506  0.55511462228E+02 -0.53942134997E+01 -0.32598150362E+03  0.33071824970E+03  0.00000000000E+00 0. -1.
         21    1    1    2  506  502  0.68105913653E+02 -0.57294781187E+02 -0.65920950325E+03  0.66519040627E+03  0.00000000000E+00 0. -1.
<scales pt_clust_3="104.62143" pt_clust_4="76.96790" pt_clust_5="35.59255" pt_clust_6="35.59255"></scales>
<clustering>
<clus scale="   35.593">  5  6 -1 -1</clus>
<clus scale="   76.968">  1  4  2 -1</clus>
<clus scale="  104.621">  2  3  1 -1</clus>
<clus scale="   76.968">  1  3  2 -1</clus>
</clustering>
</event>
<event>
 6    0  0.5563122E+002  0.8907012E+02  0.7546771E-02  0.1305119E+00
         21   -1    0    0  503  501  0.00000000000E+00  0.00000000000E+00  0.10543213215E+04  0.10543213215E+04  0.00000000000E+00 0.  1.
         21   -1    0    0  504  502 -0.00000000000E+00 -0.00000000000E+00 -0.48474160187E+02  0.48474160187E+02  0.00000000000E+00 0.  1.
         21    1    1    2  503  502 -0.16432997057E+02 -0.85883359506E+02  0.17651998590E+03  0.19699060956E+03  0.00000000000E+00 0.  1.
         21    1    1    2  504  505  0.26620160003E+02  0.32284506061E+02 -0.40764788942E+00  0.41846008495E+02  0.00000000000E+00 0.  1.
         21    1    1    2  505  506 -0.13741681591E+02  0.87982584570E+02  0.10199471168E+03  0.13539826517E+03  0.00000000000E+00 0.  1.
         21    1    1    2  506  501  0.35545186460E+01 -0.34383731125E+02  0.72774011163E+03  0.72856059847E+03  0.00000000000E+00 0.  1.
<scales pt_clust_3="14000.00000" pt_clust_4="40.33283" pt_clust_5="89.07012" pt_clust_6="34.56697"></scales>
<clustering>
<clus scale="   34.567">  1  6  2 -1</clus>
<clus scale="   40.333">  2  4  1 -1</clus>
<clus scale="   89.070">  1  5  2 -1</clus>
<clus scale="   34.567">  1  3  2 -1</clus>
</clustering>
</event>
<event>
 6    0  0.5563122E+002  0.7758225E+02  0.7546771E-02  0.1336056E+00
         21   -1    0    0  506  501  0.00000000000E+00  0.00000000000E+00  0.83800480581E+02  0.83800480581E+02  0.00000000000E+00 0. -1.
         21   -1    0    0  504  502 -0.00000000000E+00 -0.00000000000E+00 -0.54921342417E+03  0.54921342417E+03  0.00000000000E+00 0. -1.
         21    1    1    2  503  502 -0.36158389875E+02 -0.47470720418E+02 -0.34626530663E+03  0.35136955052E+03  0.00000000000E+00 0. -1.
         21    1    1    2  504  505  0.85468942017E+01  0.11768115844E+03 -0.12155625475E+03  0.16940433147E+03  0.00000000000E+00 0. -1.
         21    1    1    2  505  501  0.54685916266E+00 -0.50260858417E+02  0.38200463557E+02  0.63132625161E+02  0.00000000000E+00 0. -1.
         21    1    1    2  506  503  0.27064636510E+02 -0.19949579604E+02 -0.35791845764E+02  0.49107397600E+02  0.00000000000E+00 0. -1.
<scales pt_clust_3="59.66612" pt_clust_4="14000.00000" pt_clust_5="77.58225" pt_clust_6="33.62262"></scales>
<clustering>
<clus scale="   33.623">  1  6  2 -1</clus>
<clus scale="   59.666">  2  3  1 -1</clus>
<clus scale="   77.582">  1  5  2 -1</clus>
<clus scale="   33.623">  1  3  2 -1</clus>
</clustering>
</event>
<event>
 6    0  0.5563122E+002  0.9939403E+02  0.7546771E-02  0.1281575E+00
         21   -1    0    0  503  501  0.00000000000E+00  0.00000000000E+00  0.90765546339E+02  0.90765546339E+02  0.00000000000E+00 0.  1.
         21   -1    0    0  506  502 -0.00000000000E+00 -0.00000000000E+00 -0.63607303340E+03  0.63607303340E+03  0.00000000000E+00 0.  1.
         21    1    1    2  503  504  0.24801864240E+02 -0.21363644324E+02 -0.10798458085E+01  0.32752157724E+02  0.00000000000E+00 0.  1.
         21    1    1    2  504  502  0.51663642566E+02 -0.16351665131E+02 -0.63194694573E+02  0.83247092069E+02  0.00000000000E+00 0. -1.
         21    1    1    2  505  501  0.75642919245E+02  0.24793205743E+02  0.24077917970E+02  0.83164297728E+02  0.00000000000E+00 0.  1.
         21    1    1    2  506  505 -0.15210842605E+03  0.12922103712E+02 -0.50511086465E+03  0.52767503222E+03  0.00000000000E+00 0.  1.
<scales pt_clust_3="32.73435" pt_clust_4="58.24169" pt_clust_5="14000.00000" pt_clust_6="99.39403"></scales>
<clustering>
<clus scale="   32.734">  1  3  2 -1</clus>
<clus scale="   58.242">  2  4  1 -1</clus>
<clus scale="   99.394">  2  6  1 -1</clus>
<clus scale="   32.734">  1  3  2 -1</clus>
</clustering>
</event>
<event>
 6    0  0.5925136E+002  0.1008482E+03  0.7546771E-02  0.1278522E+00
         21   -1    0    0  504  501  0.00000000000E+00  0.00000000000E+00  0.35391971730E+03  0.35391971730E+03  0.00000000000E+00 0.  1.
         21   -1    0    0  503  502 -0.00000000000E+00 -0.00000000000E+00 -0.81377871830E+03  0.81377871830E+03  0.00000000000E+00 0.  1.
         21    1    1    2  503  501  0.38181512517E+02 -0.24618742603E+02  0.24702692807E+02  0.51712023914E+02  0.00000000000E+00 0.  1.
         21    1    1    2  504  506  0.73888776997E+02  0.62823813484E+02  0.20390011344E+03  0.22579114059E+03  0.00000000000E+00 0.  1.
         21    1    1    2  505  502 -0.47860626086E+02  0.38288206100E+02 -0.76307390314E+03  0.76553145455E+03  0.00000000000E+00 0.  1.
         21    1    1    2  506  505 -0.64209663429E+02 -0.76493276981E+02  0.74612095894E+02  0.12466381654E+03  0.00000000000E+00 0.  1.
<scales pt_clust_3="45.43028" pt_clust_4="14000.00000" pt_clust_5="61.11543" pt_clust_6="100.84818"></scales>
<clustering>
<clus scale="   45.430">  1  3  2 -1</clus>
<clus scale="   61.115">  2  5  1 -1</clus>
<clus scale="  100.848">  2  6  1 -1</clus>
<clus scale="   45.430">  1  3  2 -1</clus>
</clustering>
</event>
<event>
 6    0  0.5563122E+002  0.7874508E+02  0.7546771E-02  0.1332651E+00
         21   -1    0    0  504  501  0.00000000000E+00  0.00000000000E+00  0.54606488722E+03  0.54606488722E+03  0.00000000000E+00 0. -1.
         21   -1    0    0  506  502 -0.00000000000E+00 -0.00000000000E+00 -0.85016056651E+03  0.85016056651E+03  0.00000000000E+00 0.  1.
         21    1    1    2  503  501  0.41338069794E+02 -0.14162977016E+02  0.50282842052E+03  0.50472353464E+03  0.00000000000E+00 0. -1.
         21    1    1    2  504  505 -0.16370821997E+03  0.37677212273E+02 -0.20699337052E+03  0.26658246201E+03  0.00000000000E+00 0.  1.
         21    1    1    2  505  502  0.68209542042E+02 -0.21978770428E+02 -0.53749687509E+03  0.54225316846E+03  0.00000000000E+00 0.  1.
         21    1    1    2  506  503  0.54160608135E+02 -0.15354648283E+01 -0.62433854195E+02  0.82666288627E+02  0.00000000000E+00 0.  1.
<scales pt_clust_3="43.69698" pt_clust_4="78.74508" pt_clust_5="14000.00000" pt_clust_6="64.23832"></scales>
<clustering>
<clus scale="   43.697">  1  3  2 -1</clus>
<clus scale="   64.238">  1  6  2 -1</clus>
<clus scale="   78.745">  1  4  2 -1</clus>
<clus scale="   43.697">  1  3  2 -1</clus>
</clustering>
</event>
<event>
 6    0  0.5563122E+002  0.6895370E+02  0.7546771E-02  0.1363688E+00
         21   -1    0    0  505  501  0.00000000000E+00  0.00000000000E+00  0.33471942855E+03  0.33471942855E+03  0.00000000000E+00 0.  1.
         21   -1    0    0  503  502 -0.00000000000E+00 -0.00000000000E+00 -0.15772827304E+03  0.15772827304E+03  0.00000000000E+00 0.  1.
         21    1    1    2  503  501 -0.54229371871E+02  0.60705344043E+02  0.16920339926E+03  0.18776515622E+03  0.00000000000E+00 0.  1.
         21    1    1    2  504  506 -0.29409967256E+01 -0.93822457752E+02  0.22803972510E+02  0.96598779509E+02  0.00000000000E+00 0.  1.
         21    1    1    2  505  504  0.71828613213E+02 -0.68897379865E+01  0.77704717947E+02  0.10604169631E+03  0.00000000000E+00 0.  1.
         21    1    1    2  506  502 -0.14658244617E+02  0.40006851695E+02 -0.92720934204E+02  0.10204206955E+03  0.00000000000E+00 0.  1.
<scales pt_clust_3="14000.00000" pt_clust_4="68.95370" pt_clust_5="68.43288" pt_clust_6="42.60766"></scales>
<clustering>
<clus scale="   42.608">  2  6  1 -1</clus>
<clus scale="   68.433">  1  5  2 -1</clus>
<clus scale="   68.954">  2  4  1 -1</clus>
<clus scale="   68.433">  1  3  2 -1</clus>
</clustering>
</event>
<event>
 6    0  0.5563122E+002  0.1291987E+03  0.7546771E-02  0.1228650E+00
         21   -1    0    0  504  501  0.00000000000E+00  0.00000000000E+00  0.41703213556E+03  0.41703213556E+03  0.00000000000E+00 0. -1.
         21   -1    0    0  505  502 -0.00000000000E+00 -0.00000000000E+00 -0.96699324572E+03  0.96699324572E+03  0.00000000000E+00 0.  1.
         21    1    1    2  503  502  0.43170003585E+01 -0.32372624852E+02 -0.62233453570E+03  0.62319089986E+03  0.00000000000E+00 0.  1.
         21    1    1    2  504  506  0.10927345194E+03 -0.70608424163E+02  0.38412842344E+03  0.40556242745E+03  0.00000000000E+00 0. -1.
         21    1    1    2  505  501 -0.78419546754E+02  0.88383182222E+02 -0.16053205613E+03  0.19932825504E+03  0.00000000000E+00 0.  1.
         21    1    1    2  506  503 -0.35170905547E+02  0.14597866793E+02 -0.15122294176E+03  0.15594379894E+03  0.00000000000E+00 0. -1.
<scales pt_clust_3="32.65920" pt_clust_4="14000.00000" pt_clust_5="129.19866" pt_clust_6="33.24517"></scales>
<clustering>
<clus scale="   32.659">  2  3  1 -1</clus>
<clus scale="   33.245">  2  6  1 -1</clus>
<clus scale="  129.199">  2  5  1 -1</clus>
<clus scale="  129.199">  1  3  2 -1</clus>
</clustering>
</event>
<event>
 6    0  0.5563122E+002  0.1449938E+03  0.7546771E-02  0.1206763E+00
         21   -1    0    0  505  501  0.00000000000E+00  0.00000000000E+00  0.11305705428E+03  0.11305705428E+03  0.00000000000E+00 0. -1.
         21   -1    0    0  506  502 -0.00000000000E+00 -0.00000000000E+00 -0.28677758718E+03  0.28677758718E+03  0.00000000000E+00 0. -1.
         21    1    1    2  503  501 -0.93075212367E+02  0.65833754180E+02 -0.11966045778E+03  0.16527463055E+03  0.00000000000E+00 0. -1.
         21    1    1    2  504  502  0.69822968143E+02 -0.52772086665E+02  0.38251101185E+02  0.95515897908E+02  0.00000000000E+00 0. -1.
         21    1    1    2  505  504  0.25370288604E+02 -0.48645446873E+02 -0.19948531817E+02  0.58377863673E+02  0.00000000000E+00 0. -1.
         21    1    1    2  506  503 -0.21180443809E+01  0.35583779357E+02 -0.72362644481E+02  0.80666249334E+02  0.00000000000E+00 0. -1.
<scales pt_clust_3="130.46899" pt_clust_4="48.12268" pt_clust_5="48.12268" pt_clust_6="35.64676"></scales>
<clustering>
<clus scale="   35.647">  2  6  1 -1</clus>
<clus scale="   48.123">  4  5 -1 -1</clus>
<clus scale="  130.469">  2  3  1 -1</clus>
<clus scale="  144.994">  1  3  2 -1</clus>
</clustering>
</event>
<event>
 6    0  0.5563122E+002  0.1493995E+03  0.7546771E-02  0.1201213E+00
         21   -1    0    0  506  501  0.00000000000E+00  0.00000000000E+00  0.43454181075E+03  0.43454181075E+03  0.00000000000E+00 0.  1.
         21   -1    0    0  503  502 -0.00000000000E+00 -0.00000000000E+00 -0.95013811167E+03  0.95013811167E+03  0.00000000000E+00 0.  1.
         21    1    1    2  503  504 -0.72576406892E+02 -0.56275152004E+02 -0.57308832600E+02  0.10825215871E+03  0.00000000000E+00 0. -1.
         21    1    1    2  504  505 -0.12935628037E+03  0.14487619641E+02  0.11046113808E+03  0.17071790012E+03  0.00000000000E+00 0.  1.
         21    1    1    2  505  501  0.22708364256E+02  0.10372978220E+03  0.24665834395E+03  0.26854399297E+03  0.00000000000E+00 0.  1.
         21    1    1    2  506  502  0.17922432301E+03 -0.61942249834E+02 -0.81540695035E+03  0.83716587063E+03  0.00000000000E+00 0.  1.
<scales pt_clust_3="91.83805" pt_clust_4="149.39950" pt_clust_5="105.29958" pt_clust_6="14000.00000"></scales>
<clustering>
<clus scale="   91.838">  2  3  1 -1</clus>
<clus scale="  105.300">  1  5  2 -1</clus>
<clus scale="  149.399">  1  4  2 -1</clus>
<clus scale="  105.300">  1  3  2 -1</clus>
</clustering>
</event>
<event>
 6    0  0.5563122E+002  0.1053987E+03  0.7546771E-02  0.1269336E+00
         21   -1    0    0  504  501  0.00000000000E+00  0.00000000000E+00  0.66513094534E+03  0.66513094534E+03  0.00000000000E+00 0.  1.
         21   -1    0    0  503  502 -0.00000000000E+00 -0.00000000000E+00 -0.18570034536E+03  0.18570034536E+03  0.00000000000E+00 0.  1.
         21    1    1    2  503  501  0.15903401579E+03  0.53275323565E+02  0.88800914295E+01  0.16795515563E+03  0.00000000000E+00 0.  1.
         21    1    1    2  504  506 -0.85252157802E+02 -0.55838815701E+02  0.53172772373E+03  0.54140583293E+03  0.00000000000E+00 0.  1.
         21    1    1    2  505  502 -0.14515505070E+02 -0.29461505996E+02 -0.66219054780E+02  0.73916462571E+02  0.00000000000E+00 0.  1.
         21    1    1    2  506  505 -0.59266352921E+02  0.32024998132E+02  0.50418396007E+01  0.67553839569E+02  0.00000000000E+00 0.  1.
<scales pt_clust_3="105.39872" pt_clust_4="14000.00000" pt_clust_5="32.84327" pt_clust_6="67.61600"></scales>
<clustering>
<clus scale="   32.843">  2  5  1 -1</clus>
<clus scale="   67.616">  2  6  1 -1</clus>
<clus scale="  105.399">  2  3  1 -1</clus>
<clus scale="  105.399">  1  3  2 -1</clus>
</clustering>
</event>
<event>
 6    0  0.5563122E+002  0.2261466E+03  0.7546771E-02  0.1129382E+00
         21   -1    0    0  503  501  0.00000000000E+00  0.00000000000E+00  0.13195243565E+04  0.13195243565E+04  0.00000000000E+00 0.  1.
         21   -1    0    0  504  502 -0.00000000000E+00 -0.00000000000E+00 -0.57605605593E+02  0.57605605593E+02  0.00000000000E+00 0.  1.
         21    1    1    2  503  502 -0.35837110655E+02  0.47776738958E+02  0.44158405838E+03  0.44560452859E+03  0.00000000000E+00 0.  1.
         21    1    1    2  504  505 -0.94437618614E+02 -0.19473333881E+03  0.32166479248E+03  0.38769546783E+03  0.00000000000E+00 0.  1.
         21    1    1    2  505  506  0.94711177415E+02  0.40695133888E+02  0.27441167909E+03  0.29313490183E+03  0.00000000000E+00 0.  1.
         21    1    1    2  506  501  0.35563551855E+02  0.10626146596E+03  0.22425822094E+03  0.25069506383E+03  0.00000000000E+00 0.  1.
<scales pt_clust_3="59.72366" pt_clust_4="206.47193" pt_clust_5="83.65979" pt_clust_6="83.65979"></scales>
<clustering>
<clus scale="   59.724">  1  3  2 -1</clus>
<clus scale="   83.660">  5  6 -1 -1</clus>
<clus scale="  206.472">  2  4  1 -1</clus>
<clus scale="   59.724">  1  3  2 -1</clus>
</clustering>
</event>
<event>
 6    0  0.5563122E+002  0.9015393E+02  0.7546771E-02  0.1302479E+00
         21   -1    0    0  503  501  0.00000000000E+00  0.00000000000E+00  0.16928209328E+04  0.16928209328E+04  0.00000000000E+00 0.  1.
         21   -1    0    0  506  502 -0.00000000000E+00 -0.00000000000E+00 -0.14015533022E+03  0.14015533022E+03  0.00000000000E+00 0. -1.
         21    1    1    2  503  504 -0.48418075417E+02  0.45618360473E+01  0.12064317540E+04  0.12074115692E+04  0.00000000000E+00 0.  1.
         21    1    1    2  504  502  0.71448340526E+02  0.87503947484E+01  0.18011992096E+03  0.19397066968E+03  0.00000000000E+00 0. -1.
         21    1    1    2  505  501  0.61560522101E+01 -0.98305261245E+02  0.27401016787E+03  0.29117588063E+03  0.00000000000E+00 0. -1.
         21    1    1    2  506  505 -0.29186317319E+02  0.84993030449E+02 -0.10789624029E+03  0.14041814346E+03  0.00000000000E+00 0. -1.
<scales pt_clust_3="48.63250" pt_clust_4="53.84494" pt_clust_5="14000.00000" pt_clust_6="90.15393"></scales>
<clustering>
<clus scale="   48.633">  1  3  2 -1</clus>
<clus scale="   53.845">  1  4  2 -1</clus>
<clus scale="   90.154">  2  6  1 -1</clus>
<clus scale="   48.633">  1  3  2 -1</clus>
</clustering>
</event>
<event>
 6    0  0.5563122E+002  0.1225805E+03  0.7546771E-02  0.1238900E+00
         21   -1    0    0  504  501  0.00000000000E+00  0.00000000000E+00  0.13462457596E+04  0.13462457596E+04  0.00000000000E+00 0. -1.
         21   -1    0    0  505  502 -0.00000000000E+00 -0.00000000000E+00 -0.57864422273E+02  0.57864422273E+02  0.00000000000E+00 0. -1.
         21    1    1    2  503  501  0.93294911318E+02 -0.61536795713E+02  0.21044112420E+03  0.23827753663E+03  0.00000000000E+00 0. -1.
         21    1    1    2  504  506 -0.94288818747E+02  0.46818784728E+02  0.10802483629E+04  0.10853657934E+04  0.00000000000E+00 0. -1.
         21    1    1    2  505  503  0.28454100671E+02 -0.14867017122E+02  0.16316313197E+02  0.36012305112E+02  0.00000000000E+00 0.  1.
         21    1    1    2  506  502 -0.27460193242E+02  0.29585028107E+02 -0.18624462998E+02  0.44454546707E+02  0.00000000000E+00 0. -1.
<scales pt_clust_3="30.10749" pt_clust_4="108.95119" pt_clust_5="30.10749" pt_clust_6="40.36504"></scales>
<clustering>
<clus scale="   30.107">  3  5 -1 -1</clus>
<clus scale="   40.365">  2  6  1 -1</clus>
<clus scale="  108.951">  1  4  2 -1</clus>
<clus scale="  108.951">  1  3  2 -1</clus>
</clustering>
</event>
<event>
 6    0  0.5563122E+002  0.1264615E+03  0.7546771E-02  0.1232803E+00
         21   -1    0    0  504  501  0.00000000000E+00  0.00000000000E+00  0.12140423716E+03  0.12140423716E+03  0.00000000000E+00 0. -1.
         21   -1    0    0  505  502 -0.00000000000E+00 -0.00000000000E+00 -0.19382163367E+03  0.19382163367E+03  0.00000000000E+00 0. -1.
         21    1    1    2  503  502  0.14111956240E+02  0.32331660934E+02 -0.59244773593E+02  0.68952351706E+02  0.00000000000E+00 0. -1.
         21    1    1    2  504  503 -0.41552728849E+02  0.95402436987E+02 -0.22855493740E+02  0.10653932538E+03  0.00000000000E+00 0. -1.
         21    1    1    2  505  506  0.41273857825E+02 -0.86890821875E+02  0.88817822331E+01  0.96604515016E+02  0.00000000000E+00 0. -1.
         21    1    1    2  506  501 -0.13833085216E+02 -0.40843276046E+02  0.80108859170E+00  0.43129678734E+02  0.00000000000E+00 0. -1.
<scales pt_clust_3="35.27724" pt_clust_4="116.74592" pt_clust_5="32.54584" pt_clust_6="32.54584"></scales>
<clustering>
<clus scale="   32.546">  5  6 -1 -1</clus>
<clus scale="   35.277">  2  3  1 -1</clus>
<clus scale="  116.746">  2  4  1 -1</clus>
<clus scale="  126.461">  1  3  2 -1</clus>
</clustering>
</event>
<event>
 6    0  0.5563122E+002  0.7636762E+02  0.7546771E-02  0.1339688E+00
         21   -1    0    0  506  501  0.00000000000E+00  0.00000000000E+00  0.19388462766E+03  0.19388462766E+03  0.00000000000E+00 0.  1.
         21   -1    0    0  504  502 -0.00000000000E+00 -0.00000000000E+00 -0.22158760897E+03  0.22158760897E+03  0.00000000000E+00 0. -1.
         21    1    1    2  503  501  0.59936098438E+02 -0.44928982780E+02  0.10350786351E+03  0.12776864717E+03  0.00000000000E+00 0.  1.
         21    1    1    2  504  505 -0.16634095900E+02  0.53460243891E+02  0.91980878768E+01  0.56738837174E+02  0.00000000000E+00 0. -1.
         21    1    1    2  505  503 -0.83199828947E+02  0.23335412826E+02 -0.53503086595E+01  0.86575855937E+02  0.00000000000E+00 0. -1.
         21    1    1    2  506  502  0.39897826408E+02 -0.31866673937E+02 -0.13505862405E+03  0.14438889635E+03  0.00000000000E+00 0. -1.
<scales pt_clust_3="76.36762" pt_clust_4="44.49470" pt_clust_5="14000.00000" pt_clust_6="51.06194"></scales>
<clustering>
<clus scale="   51.062">  2  6  1 -1</clus>
<clus scale="   44.495">  2  4  1 -1</clus>
<clus scale="   76.368">  1  3  2 -1</clus>
<clus scale="   76.368">  1  3  2 -1</clus>
</clustering>
</event>
<event>
 6    0  0.5563122E+002  0.1560429E+03  0.7546771E-02  0.1193238E+00
         21   -1    0    0  506  501  0.00000000000E+00  0.00000000000E+00  0.41081926233E+02  0.41081926233E+02  0.00000000000E+00 0. -1.
         21   -1    0    0  505  502 -0.00000000000E+00 -0.00000000000E+00 -0.32134180000E+04  0.32134180000E+04  0.00000000000E+00 0. -1.
         21    1    1    2  503  502 -0.42018389631E+02  0.11454945086E+02 -0.18048534749E+04  0.18053788596E+04  0.00000000000E+00 0. -1.
         21    1    1    2  504  501  0.76162185749E+02 -0.27544972905E+02 -0.33544077244E+02  0.87661902720E+02  0.00000000000E+00 0. -1.
         21    1    1    2  505  504  0.68070896508E+02 -0.16898069819E+02 -0.96114068075E+02  0.11898363668E+03  0.00000000000E+00 0. -1.
         21    1    1    2  506  503 -0.10221469263E+03  0.32988097639E+02 -0.12378244535E+04  0.12424755272E+04  0.00000000000E+00 0. -1.
<scales pt_clust_3="43.55182" pt_clust_4="51.26862" pt_clust_5="51.26862" pt_clust_6="145.72782"></scales>
<clustering>
<clus scale="   43.552">  2  3  1 -1</clus>
<clus scale="   51.269">  4  5 -1 -1</clus>
<clus scale="  145.728">  2  6  1 -1</clus>
<clus scale="  156.043">  1  3  2 -1</clus>
</clustering>
</event>
<event>
 6    0  0.5563122E+002  0.7742929E+02  0.7546771E-02  0.1336509E+00
         21   -1    0    0  502  501  0.00000000000E+00  0.00000000000E+00  0.56343413859E+03  0.56343413859E+03  0.00000000000E+00 0.  1.
         21   -1    0    0  505  502 -0.00000000000E+00 -0.00000000000E+00 -0.92225617419E+02  0.92225617419E+02  0.00000000000E+00 0.  1.
         21    1    1    2  503  504  0.12699440471E+03 -0.79617468961E+01  0.16201906071E+03  0.20601248572E+03  0.00000000000E+00 0.  1.
         21    1    1    2  504  501 -0.46117560273E+02  0.94381530477E+00  0.33435926040E+03  0.33752605109E+03  0.00000000000E+00 0.  1.
         21    1    1    2  505  506 -0.33001710348E+02  0.24205839330E+02 -0.41901793308E+02  0.58572995706E+02  0.00000000000E+00 0.  1.
         21    1    1    2  506  503 -0.47875134088E+02 -0.17187907739E+02  0.16731993372E+02  0.53548223487E+02  0.00000000000E+00 0.  1.
<scales pt_clust_3="77.42929" pt_clust_4="47.39845" pt_clust_5="40.92720" pt_clust_6="14000.00000"></scales>
<clustering>
<clus scale="   40.927">  2  5  1 -1</clus>
<clus scale="   47.398">  1  4  2 -1</clus>
<clus scale="   77.429">  1  3  2 -1</clus>
<clus scale="   47.398">  1  3  2 -1</clus>
</clustering>
</event>
<event>
 6    0  0.5563122E+002  0.9972670E+02  0.7546771E-02  0.1280872E+00
         21   -1    0    0  504  501  0.00000000000E+00  0.00000000000E+00  0.50087684514E+03  0.50087684514E+03  0.00000000000E+00 0.  1.
         21   -1    0    0  503  502 -0.00000000000E+00 -0.00000000000E+00 -0.26306082462E+03  0.26306082462E+03  0.00000000000E+00 0.  1.
         21    1    1    2  503  506 -0.63624204848E+02 -0.21850524075E+02 -0.18190011479E+03  0.19394106477E+03  0.00000000000E+00 0.  1.
         21    1    1    2  504  505  0.63228939543E+02  0.12748371737E+02  0.35230287288E+03  0.35815881117E+03  0.00000000000E+00 0.  1.
         21    1    1    2  505  502  0.57019836608E+02  0.80594287462E+02  0.69296811021E+02  0.12061819496E+03  0.00000000000E+00 0.  1.
         21    1    1    2  506  501 -0.56624571304E+02 -0.71492135124E+02 -0.18835485986E+01  0.91219598854E+02  0.00000000000E+00 0.  1.
<scales pt_clust_3="64.62957" pt_clust_4="64.50132" pt_clust_5="99.72670" pt_clust_6="14000.00000"></scales>
<clustering>
<clus scale="   64.501">  1  4  2 -1</clus>
<clus scale="   64.630">  2  3  1 -1</clus>
<clus scale="   99.727">  2  5  1 -1</clus>
<clus scale="   64.501">  1  3  2 -1</clus>
</clustering>
</event>
<event>
 6    0  0.5563122E+002  0.1179701E+03  0.7546771E-02  0.1246484E+00
         21   -1    0    0  505  501  0.00000000000E+00  0.00000000000E+00  0.23859035078E+03  0.23859035078E+03  0.00000000000E+00 0.  1.
         21   -1    0    0  506  502 -0.00000000000E+00 -0.00000000000E+00 -0.74709938056E+03  0.74709938056E+03  0.00000000000E+00 0.  1.
         21    1    1    2  503  501 -0.47886670107E+02  0.53576712253E+02  0.19608124127E+02  0.74485406635E+02  0.00000000000E+00 0.  1.
         21    1    1    2  504  502 -0.51099203891E+02 -0.60716821335E+02  0.30199497766E+02  0.84909779747E+02  0.00000000000E+00 0.  1.
         21    1    1    2  505  504 -0.26141884380E+02  0.19641148544E+02  0.12617738140E+03  0.13034532754E+03  0.00000000000E+00 0.  1.
         21    1    1    2  506  503  0.12512775838E+03 -0.12501039463E+02 -0.68449403308E+03  0.69594921742E+03  0.00000000000E+00 0.  1.
<scales pt_clust_3="117.97014" pt_clust_4="82.08598" pt_clust_5="32.69821" pt_clust_6="14000.00000"></scales>
<clustering>
<clus scale="   32.698">  1  5  2 -1</clus>
<clus scale="   82.086">  1  4  2 -1</clus>
<clus scale="  117.970">  1  3  2 -1</clus>
<clus scale="   32.698">  1  3  2 -1</clus>
</clustering>
</event>
<event>
 6    0  0.5563122E+002  0.1060989E+03  0.7546771E-02  0.1267970E+00
         21   -1    0    0  503  501  0.00000000000E+00  0.00000000000E+00  0.51375127762E+03  0.51375127762E+03  0.00000000000E+00 0. -1.
         21   -1    0    0  506  502 -0.00000000000E+00 -0.00000000000E+00 -0.62304423899E+03  0.62304423899E+03  0.00000000000E+00 0.  1.
         21    1    1    2  503  502  0.87111874713E+02  0.38508444342E+02 -0.52282840428E+03  0.53143289258E+03  0.00000000000E+00 0.  1.
         21    1    1    2  504  505 -0.73908152790E+02 -0.14269848531E+02 -0.49354355183E+01  0.75434754257E+02  0.00000000000E+00 0.  1.
         21    1    1    2  505  501  0.41452626244E+02  0.33638651163E+01  0.45614383283E+03  0.45803584143E+03  0.00000000000E+00 0. -1.
         21    1    1    2  506  504 -0.54656348166E+02 -0.27602460927E+02 -0.37672954407E+02  0.71892028333E+02  0.00000000000E+00 0.  1.
<scales pt_clust_3="98.23127" pt_clust_4="36.16196" pt_clust_5="41.58889" pt_clust_6="36.16196"></scales>
<clustering>
<clus scale="   36.162">  4  6 -1 -1</clus>
<clus scale="   41.589">  1  5  2 -1</clus>
<clus scale="   98.231">  2  3  1 -1</clus>
<clus scale="   41.589">  1  3  2 -1</clus>
</clustering>
</event>
<event>
 6    0  0.5563122E+002  0.8568599E+02  0.7546771E-02  0.1313648E+00
         21   -1    0    0  506  501  0.00000000000E+00  0.00000000000E+00  0.30755523280E+03  0.30755523280E+03  0.00000000000E+00 0.  1.
         21   -1    0    0  503  502 -0.00000000000E+00 -0.00000000000E+00 -0.15471086018E+03  0.15471086018E+03  0.00000000000E+00 0.  1.
         21    1    1    2  503  505 -0.29144177711E+02 -0.74555155138E+01 -0.68446277734E+02  0.74765371274E+02  0.00000000000E+00 0.  1.
         21    1    1    2  504  501 -0.25882711188E+02  0.51869585572E+02  0.40628175435E+02  0.70788539221E+02  0.00000000000E+00 0.  1.
         21    1    1    2  505  504 -0.58714641948E+02 -0.27120528347E+02 -0.34070558760E+02  0.73100856432E+02  0.00000000000E+00 0.  1.
         21    1    1    2  506  502  0.11374153085E+03 -0.17293541711E+02  0.21473303368E+03  0.24361132605E+03  0.00000000000E+00 0.  1.
<scales pt_clust_3="30.08268" pt_clust_4="59.35976" pt_clust_5="85.68599" pt_clust_6="14000.00000"></scales>
<clustering>
<clus scale="   30.083">  2  3  1 -1</clus>
<clus scale="   59.360">  1  4  2 -1</clus>
<clus scale="   85.686">  2  5  1 -1</clus>
<clus scale="   59.360">  1  3  2 -1</clus>
</clustering>
</event>
<event>
 6    0  0.5563122E+002  0.1043993E+03  0.7546771E-02  0.1271308E+00
         21   -1    0    0  504  501  0.00000000000E+00  0.00000000000E+00  0.14024506451E+04  0.14024506451E+04  0.00000000000E+00 0. -1.
         21   -1    0    0  506  502 -0.00000000000E+00 -0.00000000000E+00 -0.82837054746E+02  0.82837054746E+02  0.00000000000E+00 0. -1.
         21    1    1    2  503  502  0.10898981132E+02 -0.85845799813E+02  0.34818756078E+03  0.35877969092E+03  0.00000000000E+00 0. -1.
         21    1    1    2  504  503 -0.30356404773E+02 -0.47772591103E+02  0.97189389733E+03  0.97354069224E+03  0.00000000000E+00 0. -1.
         21    1    1    2  505  501  0.30667367937E+02  0.69897910584E+02  0.29285485972E+02  0.81754786091E+02  0.00000000000E+00 0. -1.
         21    1    1    2  506  505 -0.11209944295E+02  0.63720480332E+02 -0.29753353685E+02  0.71212530642E+02  0.00000000000E+00 0. -1.
<scales pt_clust_3="14000.00000" pt_clust_4="56.60152" pt_clust_5="104.39927" pt_clust_6="62.71016"></scales>
<clustering>
<clus scale="   56.602">  1  4  2 -1</clus>
<clus scale="   62.710">  2  6  1 -1</clus>
<clus scale="  104.399">  2  5  1 -1</clus>
<clus scale="   56.602">  1  3  2 -1</clus>
</clustering>
</event>
<event>
 6    0  0.5563122E+002  0.1110564E+03  0.7546771E-02  0.1258626E+00
         21   -1    0    0  503  501  0.00000000000E+00  0.00000000000E+00  0.78724629346E+03  0.78724629346E+03  0.00000000000E+00 0.  1.
         21   -1    0    0  506  502 -0.00000000000E+00 -0.00000000000E+00 -0.50868653535E+03  0.50868653535E+03  0.00000000000E+00 0.  1.
         21    1    1    2  503  502  0.45340016138E+02 -0.45492140469E+02  0.34358612736E+03  0.34953780742E+03  0.00000000000E+00 0.  1.
         21    1    1    2  504  501  0.58632185488E+02  0.99123016211E+02  0.39674958787E+03  0.41312630150E+03  0.00000000000E+00 0.  1.
         21    1    1    2  505  504 -0.90982664047E+02 -0.24513377040E+02 -0.27967309550E+02  0.98289985322E+02  0.00000000000E+00 0.  1.
         21    1    1    2  506  505 -0.12989537578E+02 -0.29117498702E+02 -0.43380864757E+03  0.43497873456E+03  0.00000000000E+00 0.  1.
<scales pt_clust_3="64.69790" pt_clust_4="111.05636" pt_clust_5="14000.00000" pt_clust_6="31.88349"></scales>
<clustering>
<clus scale="   31.883">  2  6  1 -1</clus>
<clus scale="   64.698">  1  3  2 -1</clus>
<clus scale="  111.056">  1  4  2 -1</clus>
<clus scale="   64.698">  1  3  2 -1</clus>
</clustering>
</event>
<event>
 6    0  0.5563122E+002  0.1108282E+03  0.7546771E-02  0.1259044E+00
         21   -1    0    0  504  501  0.00000000000E+00  0.00000000000E+00  0.22641536395E+03  0.22641536395E+03  0.00000000000E+00 0.  1.
         21   -1    0    0  505  502 -0.00000000000E+00 -0.00000000000E+00 -0.14680244721E+04  0.14680244721E+04  0.00000000000E+00 0.  1.
         21    1    1    2  503  502 -0.63472823065E+02  0.33118651303E+02 -0.52597767885E+03  0.53082780917E+03  0.00000000000E+00 0.  1.
         21    1    1    2  504  506  0.47269280326E+02  0.99875183515E+02  0.19968441499E+03  0.22821766526E+03  0.00000000000E+00 0.  1.
         21    1    1    2  505  501  0.49195295554E+02 -0.56846069282E+01 -0.12943816445E+03  0.13858834828E+03  0.00000000000E+00 0. -1.
         21    1    1    2  506  503 -0.32991752816E+02 -0.12730922789E+03 -0.78587767987E+03  0.79680601339E+03  0.00000000000E+00 0.  1.
<scales pt_clust_3="53.73626" pt_clust_4="110.82815" pt_clust_5="49.52264" pt_clust_6="14000.00000"></scales>
<clustering>
<clus scale="   49.523">  2  5  1 -1</clus>
<clus scale="   53.736">  2  3  1 -1</clus>
<clus scale="  110.828">  1  4  2 -1</clus>
<clus scale="  110.828">  1  3  2 -1</clus>
</clustering>
</event>
<event>
 6    0  0.5563122E+002  0.9448075E+02  0.7546771E-02  0.1292350E+00
         21   -1    0    0  503  501  0.00000000000E+00  0.00000000000E+00  0.19565082976E+03  0.19565082976E+03  0.00000000000E+00 0.  1.
         21   -1    0    0  505  502 -0.00000000000E+00 -0.00000000000E+00 -0.16640448713E+03  0.16640448713E+03  0.00000000000E+00 0.  1.
         21    1    1    2  503  506 -0.61494607322E+02 -0.67792584466E+02 -0.24310741875E+02  0.94701813123E+02  0.00000000000E+00 0.  1.
         21    1    1    2  504  501  0.43381650193E+02  0.10176636813E+02  0.82277319555E+02  0.93568631621E+02  0.00000000000E+00 0.  1.
         21    1    1    2  505  504  0.30782165759E+01  0.10703100970E+03  0.12363460704E+02  0.10778667643E+03  0.00000000000E+00 0.  1.
         21    1    1    2  506  502  0.15034740553E+02 -0.49415062046E+02 -0.41083695760E+02  0.65998195716E+02  0.00000000000E+00 0.  1.
<scales pt_clust_3="94.48075" pt_clust_4="44.55930" pt_clust_5="14000.00000" pt_clust_6="52.23967"></scales>
<clustering>
<clus scale="   44.559">  1  4  2 -1</clus>
<clus scale="   52.240">  2  6  1 -1</clus>
<clus scale="   94.481">  1  3  2 -1</clus>
<clus scale="   44.559">  1  3  2 -1</clus>
</clustering>
</event>
<event>
 6    0  0.5563122E+002  0.8766544E+02  0.7546771E-02  0.1308606E+00
         21   -1    0    0  503  501  0.00000000000E+00  0.00000000000E+00  0.73632818325E+03  0.73632818325E+03  0.00000000000E+00 0.  1.
         21   -1    0    0  506  502 -0.00000000000E+00 -0.00000000000E+00 -0.12553842066E+03  0.12553842066E+03  0.00000000000E+00 0. -1.
         21    1    1    2  503  504 -0.22922178046E+02  0.10166541614E+03  0.48174294674E+03  0.49288695440E+03  0.00000000000E+00 0.  1.
         21    1    1    2  504  502  0.46830794861E+02 -0.43255134319E+02  0.37203232327E+02  0.73811994200E+02  0.00000000000E+00 0.  1.
         21    1    1    2  505  501 -0.41296313629E+02 -0.25500938553E+02  0.18689198965E+03  0.19309142701E+03  0.00000000000E+00 0.  1.
         21    1    1    2  506  505  0.17387696813E+02 -0.32909343266E+02 -0.95048406140E+02  0.10207622830E+03  0.00000000000E+00 0. -1.
<scales pt_clust_3="14000.00000" pt_clust_4="87.66544" pt_clust_5="49.00838" pt_clust_6="37.22038"></scales>
<clustering>
<clus scale="   37.220">  2  6  1 -1</clus>
<clus scale="   49.008">  1  5  2 -1</clus>
<clus scale="   87.665">  2  4  1 -1</clus>
<clus scale="   49.008">  1  3  2 -1</clus>
</clustering>
</event>
<event>
 6    0  0.5563122E+002  0.9275847E+02  0.7546771E-02  0.1296306E+00
         21   -1    0    0  505  501  0.00000000000E+00  0.00000000000E+00  0.11039899659E+04  0.11039899659E+04  0.00000000000E+00 0.  1.
         21   -1    0    0  503  502 -0.00000000000E+00 -0.00000000000E+00 -0.12729930747E+04  0.12729930747E+04  0.00000000000E+00 0.  1.
         21    1    1    2  503  504 -0.60747941930E+02  0.17699952490E+02 -0.31223290484E+03  0.31857964096E+03  0.00000000000E+00 0.  1.
         21    1    1    2  504  501 -0.67213320206E+02 -0.30336885508E+02  0.10944284201E+04  0.10969099889E+04  0.00000000000E+00 0.  1.
         21    1    1    2  505  506  0.65089532626E+02 -0.21471107676E+02 -0.49454329412E+03  0.49927019286E+03  0.00000000000E+00 0.  1.
         21    1    1    2  506  502  0.62871729511E+02  0.34108040694E+02 -0.45665532998E+03  0.46222321794E+03  0.00000000000E+00 0.  1.
<scales pt_clust_3="63.27401" pt_clust_4="73.80483" pt_clust_5="55.00081" pt_clust_6="55.00081"></scales>
<clustering>
<clus scale="   55.001">  5  6 -1 -1</clus>
<clus scale="   63.274">  2  3  1 -1</clus>
<clus scale="   73.805">  1  4  2 -1</clus>
<clus scale="   73.805">  1  3  2 -1</clus>
</clustering>
</event>
<event>
 6    0  0.5563122E+002  0.1432121E+03  0.7546771E-02  0.1209071E+00
         21   -1    0    0  505  501  0.00000000000E+00  0.00000000000E+00  0.19791520730E+04  0.19791520730E+04  0.00000000000E+00 0.  1.
         21   -1    0    0  503  502 -0.00000000000E+00 -0.00000000000E+00 -0.74217774456E+02  0.74217774456E+02  0.00000000000E+00 0. -1.
         21    1    1    2  503  504  0.98888843542E+02  0.93126558757E+02  0.81981076514E+03  0.83098811662E+03  0.00000000000E+00 0.  1.
         21    1    1    2  504  501  0.22124807849E+02  0.27725494842E+02  0.90557151098E+03  0.90626594975E+03  0.00000000000E+00 0.  1.
         21    1    1    2  505  506 -0.43705667437E+02  0.98765446403E+00  0.16545432550E+03  0.17113238926E+03  0.00000000000E+00 0.  1.
         21    1    1    2  506  502 -0.77307983954E+02 -0.12183970806E+03  0.14097696918E+02  0.14498339182E+03  0.00000000000E+00 0. -1.
<scales pt_clust_3="143.21209" pt_clust_4="35.47126" pt_clust_5="40.58847" pt_clust_6="14000.00000"></scales>
<clustering>
<clus scale="   35.471">  1  4  2 -1</clus>
<clus scale="   40.588">  1  5  2 -1</clus>
<clus scale="  143.212">  1  3  2 -1</clus>
<clus scale="   35.471">  1  3  2 -1</clus>
</clustering>
</event>
<event>
 6    0  0.5563122E+002  0.1039865E+03  0.7546771E-02  0.1272129E+00
         21   -1    0    0  503  501  0.00000000000E+00  0.00000000000E+00  0.20529257360E+03  0.20529257360E+03  0.00000000000E+00 0.  1.
         21   -1    0    0  501  502 -0.00000000000E+00 -0.00000000000E+00 -0.28766061241E+03  0.28766061241E+03  0.00000000000E+00 0.  1.
         21    1    1    2  503  504 -0.61621202015E+02 -0.42017389548E+02  0.10131351865E+03  0.12580565418E+03  0.00000000000E+00 0.  1.
         21    1    1    2  504  505  0.46851134211E+02 -0.20791495189E+01  0.30625046839E+02  0.56011116160E+02  0.00000000000E+00 0.  1.
         21    1    1    2  505  506  0.79501731383E+02 -0.21406238966E+02 -0.50218098487E+01  0.82486186321E+02  0.00000000000E+00 0.  1.
         21    1    1    2  506  502 -0.64731663579E+02  0.65502778033E+02 -0.20928479444E+03  0.22865022935E+03  0.00000000000E+00 0.  1.
<scales pt_clust_3="74.58306" pt_clust_4="33.83108" pt_clust_5="33.83108" pt_clust_6="93.82873"></scales>
<clustering>
<clus scale="   33.831">  4  5 -1 -1</clus>
<clus scale="   74.583">  1  3  2 -1</clus>
<clus scale="   93.829">  2  6  1 -1</clus>
<clus scale="   74.583">  1  3  2 -1</clus>
</clustering>
</event>
<event>
 6    0  0.5563122E+002  0.1215641E+03  0.7546771E-02  0.1240539E+00
         21   -1    0    0  506  501  0.00000000000E+00  0.00000000000E+00  0.34938056059E+03  0.34938056059E+03  0.00000000000E+00 0. -1.
         21   -1    0    0  505  502 -0.00000000000E+00 -0.00000000000E+00 -0.64219336831E+03  0.64219336831E+03  0.00000000000E+00 0.  1.
         21    1    1    2  503  502  0.99722708043E+02  0.56423751414E+02 -0.61069905891E+03  0.62135464815E+03  0.00000000000E+00 0.  1.
         21    1    1    2  504  503 -0.21055700949E+01 -0.48907201618E+02  0.71759158118E+02  0.86866130162E+02  0.00000000000E+00 0. -1.
         21    1    1    2  505  501 -0.61597086111E+02  0.40171714928E+02  0.90283377862E+02  0.11644335969E+03  0.00000000000E+00 0. -1.
         21    1    1    2  506  504 -0.36020051837E+02 -0.47688264724E+02  0.15584371521E+03  0.16690979090E+03  0.00000000000E+00 0. -1.
<scales pt_clust_3="113.85480" pt_clust_4="38.55654" pt_clust_5="73.53889" pt_clust_6="38.55654"></scales>
<clustering>
<clus scale="   38.557">  4  6 -1 -1</clus>
<clus scale="   73.539">  1  5  2 -1</clus>
<clus scale="  113.855">  2  3  1 -1</clus>
<clus scale="   73.539">  1  3  2 -1</clus>
</clustering>
</event>
<event>
 6    0  0.5563122E+002  0.1638577E+03  0.7546771E-02  0.1184409E+00
         21   -1    0    0  503  501  0.00000000000E+00  0.00000000000E+00  0.12676290077E+03  0.12676290077E+03  0.00000000000E+00 0.  1.
         21   -1    0    0  505  502 -0.00000000000E+00 -0.00000000000E+00 -0.12969248138E+04  0.12969248138E+04  0.00000000000E+00 0. -1.
         21    1    1    2  503  504 -0.80521904691E+02  0.72143138753E+02  0.40410417302E+02  0.11541841894E+03  0.00000000000E+00 0.  1.
         21    1    1    2  504  506 -0.58123458525E+02 -0.15952967735E+01  0.17347877039E+02  0.60678086987E+02  0.00000000000E+00 0.  1.
         21    1    1    2  505  501  0.60417152052E+02  0.17078403004E+01 -0.11804606378E+03  0.13261984073E+03  0.00000000000E+00 0.  1.
         21    1    1    2  506  502  0.78228211163E+02 -0.72255682280E+02 -0.11098741436E+04  0.11149713679E+04  0.00000000000E+00 0. -1.
<scales pt_clust_3="43.22749" pt_clust_4="43.22749" pt_clust_5="60.44129" pt_clust_6="152.88864"></scales>
<clustering>
<clus scale="   43.227">  3  4 -1 -1</clus>
<clus scale="   60.441">  2  5  1 -1</clus>
<clus scale="  152.889">  2  6  1 -1</clus>
<clus scale="  163.858">  1  3  2 -1</clus>
</clustering>
</event>
<event>
 6    0  0.5563122E+002  0.6735149E+02  0.7546771E-02  0.1369338E+00
         21   -1    0    0  506  501  0.00000000000E+00  0.00000000000E+00  0.20974686074E+02  0.20974686074E+02  0.00000000000E+00 0. -1.
         21   -1    0    0  503  502 -0.00000000000E+00 -0.00000000000E+00 -0.18613845979E+04  0.18613845979E+04  0.00000000000E+00 0.  1.
         21    1    1    2  503  504 -0.46334185946E+02 -0.11214537010E+01 -0.10046369957E+04  0.10057055273E+04  0.00000000000E+00 0.  1.
         21    1    1    2  504  505  0.75711933327E+02  0.20350609352E+02 -0.35626897409E+03  0.36479312775E+03  0.00000000000E+00 0.  1.
         21    1    1    2  505  501 -0.25498225118E+02 -0.74990732317E+02 -0.42987556049E+03  0.43711184716E+03  0.00000000000E+00 0.  1.
         21    1    1    2  506  502 -0.38795222618E+01  0.55761576666E+02 -0.49628381510E+02  0.74748781774E+02  0.00000000000E+00 0. -1.
<scales pt_clust_3="46.34776" pt_clust_4="14000.00000" pt_clust_5="67.35149" pt_clust_6="56.14948"></scales>
<clustering>
<clus scale="   46.348">  2  3  1 -1</clus>
<clus scale="   56.149">  1  6  2 -1</clus>
<clus scale="   67.351">  1  5  2 -1</clus>
<clus scale="   56.149">  1  3  2 -1</clus>
</clustering>
</event>
<event>
 6    0  0.5563122E+002  0.1106024E+03  0.7546771E-02  0.1259458E+00
         21   -1    0    0  503  501  0.00000000000E+00  0.00000000000E+00  0.23622517081E+03  0.23622517081E+03  0.00000000000E+00 0. -1.
         21   -1    0    0  506  502 -0.00000000000E+00 -0.00000000000E+00 -0.92782824786E+03  0.92782824786E+03  0.00000000000E+00 0. -1.
         21    1    1    2  503  505 -0.15206986688E+02 -0.51957601118E+02 -0.17157190877E+03  0.17991043505E+03  0.00000000000E+00 0. -1.
         21    1    1    2  504  501  0.95269049727E+02  0.35155184501E+02  0.21382521689E+03  0.23671354463E+03  0.00000000000E+00 0. -1.
         21    1    1    2  505  502 -0.38557561457E+02 -0.19491805056E+02 -0.77238908515E+02  0.88501214672E+02  0.00000000000E+00 0. -1.
         21    1    1    2  506  504 -0.41504501582E+02  0.36294221673E+02 -0.65661747665E+03  0.65892822433E+03  0.00000000000E+00 0. -1.
<scales pt_clust_3="41.34856" pt_clust_4="100.45174" pt_clust_5="41.34856" pt_clust_6="55.13524"></scales>
<clustering>
<clus scale="   41.349">  3  5 -1 -1</clus>
<clus scale="   55.135">  2  6  1 -1</clus>
<clus scale="  100.452">  1  4  2 -1</clus>
<clus scale="  100.452">  1  3  2 -1</clus>
</clustering>
</event>
<event>
 6    0  0.5563122E+002  0.1046225E+03  0.7546771E-02  0.1270865E+00
         21   -1    0    0  504  501  0.00000000000E+00  0.00000000000E+00  0.13524214699E+04  0.13524214699E+04  0.00000000000E+00 0. -1.
         21   -1    0    0  505  502 -0.00000000000E+00 -0.00000000000E+00 -0.17616094578E+03  0.17616094578E+03  0.00000000000E+00 0. -1.
         21    1    1    2  503  506 -0.53673912675E+01  0.60468798974E+02  0.31535667251E+02  0.68408938359E+02  0.00000000000E+00 0. -1.
         21    1    1    2  504  502  0.64612355389E+02 -0.24914936656E+02 -0.12022422151E+03  0.13874211320E+03  0.00000000000E+00 0. -1.
         21    1    1    2  505  503  0.34315730694E+02  0.13435375626E+02 -0.13036106094E+02  0.39089880448E+02  0.00000000000E+00 0. -1.
         21    1    1    2  506  501 -0.93560694816E+02 -0.48989237944E+02  0.12779851845E+04  0.12823414837E+04  0.00000000000E+00 0. -1.
<scales pt_clust_3="62.12976" pt_clust_4="14000.00000" pt_clust_5="36.85212" pt_clust_6="104.62250"></scales>
<clustering>
<clus scale="   36.852">  2  5  1 -1</clus>
<clus scale="   62.130">  2  3  1 -1</clus>
<clus scale="  104.622">  1  6  2 -1</clus>
<clus scale="  104.622">  1  3  2 -1</clus>
</clustering>
</event>
<event>
 6    0  0.5563122E+002  0.1511786E+03  0.7546771E-02  0.1199032E+00
         21   -1    0    0  505  501  0.00000000000E+00  0.00000000000E+00  0.17013194165E+03  0.17013194165E+03  0.00000000000E+00 0. -1.
         21   -1    0    0  504  502 -0.00000000000E+00 -0.00000000000E+00 -0.49629404333E+03  0.49629404333E+03  0.00000000000E+00 0. -1.
         21    1    1    2  503  502 -0.37226709379E+02 -0.32089415488E+02 -0.16367868716E+02  0.51802177597E+02  0.00000000000E+00 0. -1.
         21    1    1    2  504  501  0.91184087260E+02  0.11712998285E+03 -0.38326518718E+03  0.41100629479E+03  0.00000000000E+00 0. -1.
         21    1    1    2  505  506 -0.32500815291E+02  0.55186551000E+01  0.10125983192E+03  0.10649090154E+03  0.00000000000E+00 0. -1.
         21    1    1    2  506  503 -0.21456562591E+02 -0.90559222465E+02 -0.27788877717E+02  0.97126611062E+02  0.00000000000E+00 0. -1.
<scales pt_clust_3="30.34417" pt_clust_4="145.29771" pt_clust_5="32.96602" pt_clust_6="30.34417"></scales>
<clustering>
<clus scale="   30.344">  3  6 -1 -1</clus>
<clus scale="   32.966">  1  5  2 -1</clus>
<clus scale="  145.298">  2  4  1 -1</clus>
<clus scale="   32.966">  1  3  2 -1</clus>
</clustering>
</event>
<event>
 6    0  0.5563122E+002  0.1119335E+03  0.7546771E-02  0.1257031E+00
         21   -1    0    0  503  501  0.00000000000E+00  0.00000000000E+00  0.62421505566E+03  0.62421505566E+03  0.00000000000E+00 0.  1.
         21   -1    0    0  505  502 -0.00000000000E+00 -0.00000000000E+00 -0.17572379464E+03  0.17572379464E+03  0.00000000000E+00 0. -1.
         21    1    1    2  503  504  0.10640777705E+03  0.74567340492E+00  0.58268294474E+03  0.59231966465E+03  0.00000000000E+00 0.  1.
         21    1    1    2  504  506 -0.31659304928E+02 -0.28971900914E+02 -0.16460595632E+02  0.45963396738E+02  0.00000000000E+00 0. -1.
         21    1    1    2  505  501 -0.37922251731E+02  0.51198141477E+02 -0.49038727438E+02  0.80399898357E+02  0.00000000000E+00 0. -1.
         21    1    1    2  506  502 -0.36826220389E+02 -0.22971913968E+02 -0.68692360644E+02  0.81255890558E+02  0.00000000000E+00 0. -1.
<scales pt_clust_3="104.80373" pt_clust_4="39.08823" pt_clust_5="63.71300" pt_clust_6="39.08823"></scales>
<clustering>
<clus scale="   39.088">  4  6 -1 -1</clus>
<clus scale="   63.713">  2  5  1 -1</clus>
<clus scale="  104.804">  1  3  2 -1</clus>
<clus scale="  104.804">  1  3  2 -1</clus>
</clustering>
</event>
<event>
 6    0  0.5563122E+002  0.1091314E+03  0.7546771E-02  0.1262187E+00
         21   -1    0    0  505  501  0.00000000000E+00  0.00000000000E+00  0.62465988674E+03  0.62465988674E+03  0.00000000000E+00 0.  1.
         21   -1    0    0  503  502 -0.00000000000E+00 -0.00000000000E+00 -0.62208478611E+03  0.62208478611E+03  0.00000000000E+00 0.  1.
         21    1    1    2  503  504 -0.42724145424E+02 -0.56757027757E+02 -0.51991182962E+03  0.52474281641E+03  0.00000000000E+00 0.  1.
         21    1    1    2  504  501  0.13910464723E+02  0.10631435174E+03  0.45405404003E+02  0.11643836622E+03  0.00000000000E+00 0. -1.
         21    1    1    2  505  506  0.30756451604E+02  0.57384534013E+02  0.49312761463E+03  0.49740706506E+03  0.00000000000E+00 0.  1.
         21    1    1    2  506  502 -0.19427709025E+01 -0.10694185799E+03 -0.16046088391E+02  0.10815642516E+03  0.00000000000E+00 0. -1.
<scales pt_clust_3="69.83929" pt_clust_4="109.13135" pt_clust_5="65.10717" pt_clust_6="14000.00000"></scales>
<clustering>
<clus scale="   65.107">  1  5  2 -1</clus>
<clus scale="   69.839">  2  3  1 -1</clus>
<clus scale="  109.131">  2  4  1 -1</clus>
<clus scale="   65.107">  1  3  2 -1</clus>
</clustering>
</event>
<event>
 6    0  0.5563122E+002  0.1108116E+03  0.7546771E-02  0.1259074E+00
         21   -1    0    0  503  501  0.00000000000E+00  0.00000000000E+00  0.10077874942E+03  0.10077874942E+03  0.00000000000E+00 0.  1.
         21   -1    0    0  505  502 -0.00000000000E+00 -0.00000000000E+00 -0.20797749463E+04  0.20797749463E+04  0.00000000000E+00 0.  1.
         21    1    1    2  503  502 -0.31780889188E+02 -0.68885912241E+02 -0.98917894501E+03  0.99208380647E+03  0.00000000000E+00 0.  1.
         21    1    1    2  504  501  0.11020771997E+03  0.20642492119E+02  0.63294741126E+02  0.12875588637E+03  0.00000000000E+00 0.  1.
         21    1    1    2  505  506  0.23922876257E+01  0.32842924169E+02 -0.20590911287E+03  0.20852564224E+03  0.00000000000E+00 0.  1.
         21    1    1    2  506  504 -0.80819118404E+02  0.15400495953E+02 -0.84720288008E+03  0.85118836059E+03  0.00000000000E+00 0.  1.
<scales pt_clust_3="59.87139" pt_clust_4="110.81157" pt_clust_5="32.92994" pt_clust_6="14000.00000"></scales>
<clustering>
<clus scale="   32.930">  2  5  1 -1</clus>
<clus scale="   59.871">  2  3  1 -1</clus>
<clus scale="  110.812">  1  4  2 -1</clus>
<clus scale="  110.812">  1  3  2 -1</clus>
</clustering>
</event>
<event>
 6    0  0.5563122E+002  0.6397339E+02  0.7546771E-02  0.1381875E+00
         21   -1    0    0  506  501  0.00000000000E+00  0.00000000000E+00  0.21721538819E+03  0.21721538819E+03  0.00000000000E+00 0.  1.
         21   -1    0    0  504  502 -0.00000000000E+00 -0.00000000000E+00 -0.17000701565E+03  0.17000701565E+03  0.00000000000E+00 0.  1.
         21    1    1    2  503  501 -0.65496076670E+02  0.19201619255E+02  0.23055677859E+01  0.68291682392E+02  0.00000000000E+00 0.  1.
         21    1    1    2  504  503  0.32030113296E+02  0.77332929215E+02 -0.31706649057E+02  0.89507662762E+02  0.00000000000E+00 0.  1.
         21    1    1    2  505  502 -0.13448237119E+00 -0.39146211174E+02 -0.63349316808E+02  0.74468650282E+02  0.00000000000E+00 0.  1.
         21    1    1    2  506  505  0.33600445745E+02 -0.57388337296E+02  0.13995877061E+03  0.15495440840E+03  0.00000000000E+00 0.  1.
<scales pt_clust_3="63.97339" pt_clust_4="62.62771" pt_clust_5="39.14644" pt_clust_6="14000.00000"></scales>
<clustering>
<clus scale="   39.146">  2  5  1 -1</clus>
<clus scale="   62.628">  2  4  1 -1</clus>
<clus scale="   63.973">  2  3  1 -1</clus>
<clus scale="   63.973">  1  3  2 -1</clus>
</clustering>
</event>
<event>
 6    0  0.5563122E+002  0.1704604E+03  0.7546771E-02  0.1177369E+00
         21   -1    0    0  503  501  0.00000000000E+00  0.00000000000E+00  0.11238967295E+03  0.11238967295E+03  0.00000000000E+00 0.  1.
         21   -1    0    0  505  502 -0.00000000000E+00 -0.00000000000E+00 -0.15773473824E+04  0.15773473824E+04  0.00000000000E+00 0. -1.
         21    1    1    2  503  504  0.37588994000E+02 -0.19105240382E+03 -0.21614179998E+02  0.19591101616E+03  0.00000000000E+00 0.  1.
         21    1    1    2  504  506 -0.93329521326E+02  0.11386511338E+03 -0.50014023311E+03  0.52135968042E+03  0.00000000000E+00 0. -1.
         21    1    1    2  505  501  0.41508826370E+02  0.33837039602E+02 -0.36945492398E+02  0.65060720286E+02  0.00000000000E+00 0.  1.
         21    1    1    2  506  502  0.14231700955E+02  0.43350250834E+02 -0.90625780392E+03  0.90740563847E+03  0.00000000000E+00 0. -1.
<scales pt_clust_3="170.46045" pt_clust_4="14000.00000" pt_clust_5="56.50660" pt_clust_6="45.62659"></scales>
<clustering>
<clus scale="   45.627">  2  6  1 -1</clus>
<clus scale="   56.507">  1  5  2 -1</clus>
<clus scale="  170.460">  1  3  2 -1</clus>
<clus scale="   56.507">  1  3  2 -1</clus>
</clustering>
</event>
<event>
 6    0  0.5563122E+002  0.1033059E+03  0.7546771E-02  0.1273494E+00
         21   -1    0    0  505  501  0.00000000000E+00  0.00000000000E+00  0.19399533992E+03  0.19399533992E+03  0.00000000000E+00 0. -1.
         21   -1    0    0  503  502 -0.00000000000E+00 -0.00000000000E+00 -0.17008863767E+03  0.17008863767E+03  0.00000000000E+00 0.  1.
         21    1    1    2  503  504 -0.52802408407E+02 -0.10013636852E+03 -0.11020163177E+03  0.15798666488E+03  0.00000000000E+00 0.  1.
         21    1    1    2  504  501  0.60863844720E+02  0.48359454772E+02  0.54606482668E+02  0.94999538995E+02  0.00000000000E+00 0. -1.
         21    1    1    2  505  506  0.13627822644E+02  0.28304179205E+02  0.71582088730E+02  0.78171858986E+02  0.00000000000E+00 0. -1.
         21    1    1    2  506  502 -0.21689258956E+02  0.23472734545E+02  0.79197626236E+01  0.32925914735E+02  0.00000000000E+00 0.  1.
<scales pt_clust_3="103.30593" pt_clust_4="14000.00000" pt_clust_5="31.41408" pt_clust_6="34.30543"></scales>
<clustering>
<clus scale="   31.414">  1  5  2 -1</clus>
<clus scale="   34.305">  1  6  2 -1</clus>
<clus scale="  103.306">  2  3  1 -1</clus>
<clus scale="   31.414">  1  3  2 -1</clus>
</clustering>
</event>
<event>
 6    0  0.5563122E+002  0.1127403E+03  0.7546771E-02  0.1255578E+00
         21   -1    0    0  504  501  0.00000000000E+00  0.00000000000E+00  0.22804787514E+03  0.22804787514E+03  0.00000000000E+00 0.  1.
         21   -1    0    0  506  502 -0.00000000000E+00 -0.00000000000E+00 -0.59185687046E+03  0.59185687046E+03  0.00000000000E+00 0.  1.
         21    1    1    2  503  501  0.79164180109E+01 -0.46347316603E+02  0.34940955787E+00  0.47019841742E+02  0.00000000000E+00 0. -1.
         21    1    1    2  504  505 -0.13968866549E+02  0.36273698489E+02  0.93494610450E+02  0.10125291412E+03  0.00000000000E+00 0. -1.
         21    1    1    2  505  502 -0.17616258709E+02  0.11981181126E+03  0.64735722282E+02  0.13731684684E+03  0.00000000000E+00 0.  1.
         21    1    1    2  506  503  0.23668707247E+02 -0.10973819314E+03 -0.52238873761E+03  0.53431514289E+03  0.00000000000E+00 0.  1.
<scales pt_clust_3="40.13556" pt_clust_4="38.87043" pt_clust_5="14000.00000" pt_clust_6="112.74027"></scales>
<clustering>
<clus scale="   38.870">  1  4  2 -1</clus>
<clus scale="   40.136">  1  3  2 -1</clus>
<clus scale="  112.740">  2  6  1 -1</clus>
<clus scale="   38.870">  1  3  2 -1</clus>
</clustering>
</event>
<event>
 6    0  0.5563122E+002  0.1016330E+03  0.7546771E-02  0.1276899E+00
         21   -1    0    0  504  501  0.00000000000E+00  0.00000000000E+00  0.11540566675E+03  0.11540566675E+03  0.00000000000E+00 0. -1.
         21   -1    0    0  506  502 -0.00000000000E+00 -0.00000000000E+00 -0.42628919291E+03  0.42628919291E+03  0.00000000000E+00 0. -1.
         21    1    1    2  503  502  0.40603229368E+02 -0.77603992354E+02 -0.15626421108E+03  0.17913543906E+03  0.00000000000E+00 0. -1.
         21    1    1    2  504  505 -0.90420703651E+00  0.38339082938E+02  0.11661016333E+02  0.40083440132E+02  0.00000000000E+00 0.  1.
         21    1    1    2  505  503 -0.66513499439E+02  0.10264608652E+03 -0.20850677807E+03  0.24173402985E+03  0.00000000000E+00 0. -1.
         21    1    1    2  506  501  0.26814477107E+02 -0.63381177103E+02  0.42226446656E+02  0.80741950624E+02  0.00000000000E+00 0. -1.
<scales pt_clust_3="14000.00000" pt_clust_4="38.34974" pt_clust_5="101.63301" pt_clust_6="45.37654"></scales>
<clustering>
<clus scale="   38.350">  1  4  2 -1</clus>
<clus scale="   45.377">  1  6  2 -1</clus>
<clus scale="  101.633">  1  5  2 -1</clus>
<clus scale="   38.350">  1  3  2 -1</clus>
</clustering>
</event>
<event>
 6    0  0.5563122E+002  0.9114471E+02  0.7546771E-02  0.1300103E+00
         21   -1    0    0  503  501  0.00000000000E+00  0.00000000000E+00  0.36130868360E+03  0.36130868360E+03  0.00000000000E+00 0.  1.
         21   -1    0    0  505  502 -0.00000000000E+00 -0.00000000000E+00 -0.45972377537E+03  0.45972377537E+03  0.00000000000E+00 0. -1.
         21    1    1    2  503  502  0.34101296063E+02 -0.51579393316E+02  0.78044096585E+02  0.99570142210E+02  0.00000000000E+00 0. -1.
         21    1    1    2  504  501 -0.12050671793E+03  0.41900709562E+02  0.17914088630E+03  0.21992952433E+03  0.00000000000E+00 0.  1.
         21    1    1    2  505  506  0.12063507166E+02 -0.34616458812E+02 -0.40177683422E+03  0.40344572366E+03  0.00000000000E+00 0. -1.
         21    1    1    2  506  504  0.74341914699E+02  0.44295142566E+02  0.46176759560E+02  0.98087068768E+02  0.00000000000E+00 0. -1.
<scales pt_clust_3="68.54979" pt_clust_4="91.14471" pt_clust_5="36.65825" pt_clust_6="14000.00000"></scales>
<clustering>
<clus scale="   36.658">  2  5  1 -1</clus>
<clus scale="   68.550">  1  3  2 -1</clus>
<clus scale="   91.145">  1  4  2 -1</clus>
<clus scale="   68.550">  1  3  2 -1</clus>
</clustering>
</event>
<event>
 6    0  0.5563122E+002  0.5405975E+03  0.7546771E-02  0.1003694E+00
         21   -1    0    0  503  501  0.00000000000E+00  0.00000000000E+00  0.18695696021E+04  0.18695696021E+04  0.00000000000E+00 0. -1.
         21   -1    0    0  505  502 -0.00000000000E+00 -0.00000000000E+00 -0.21323120910E+03  0.21323120910E+03  0.00000000000E+00 0.  1.
         21    1    1    2  503  506  0.31755539620E+03 -0.40554774550E+03  0.39676916124E+03  0.65018164450E+03  0.00000000000E+00 0.  1.
         21    1    1    2  504  501 -0.69252024150E+02  0.19259116685E+03  0.45172453372E+03  0.49592565447E+03  0.00000000000E+00 0. -1.
         21    1    1    2  505  504 -0.28433580003E+03  0.17675461908E+03  0.81866886796E+03  0.88448163232E+03  0.00000000000E+00 0. -1.
         21    1    1    2  506  502  0.36032427981E+02  0.36201959579E+02 -0.10824169958E+02  0.52211879863E+02  0.00000000000E+00 0.  1.
<scales pt_clust_3="511.91933" pt_clust_4="137.14425" pt_clust_5="137.14425" pt_clust_6="51.07757"></scales>
<clustering>
<clus scale="   51.078">  2  6  1 -1</clus>
<clus scale="  137.144">  4  5 -1 -1</clus>
<clus scale="  511.919">  2  3  1 -1</clus>
<clus scale="  540.597">  1  3  2 -1</clus>
</clustering>
</event>
<event>
 6    0  0.5563122E+002  0.9439213E+02  0.7546771E-02  0.1292551E+00
         21   -1    0    0  502  501  0.00000000000E+00  0.00000000000E+00  0.32888890328E+03  0.32888890328E+03  0.00000000000E+00 0.  1.
         21   -1    0    0  506  502 -0.00000000000E+00 -0.00000000000E+00 -0.23334208586E+03  0.23334208586E+03  0.00000000000E+00 0.  1.
         21    1    1    2  503  505  0.18865055109E+02  0.56899734793E+02  0.22120202538E+02  0.63896584291E+02  0.00000000000E+00 0.  1.
         21    1    1    2  504  501  0.19500124386E+02 -0.94021950861E+02  0.17133365450E+03  0.19640672916E+03  0.00000000000E+00 0.  1.
         21    1    1    2  505  504 -0.71720500480E+02  0.72608745779E+02  0.72181432643E+02  0.12500407742E+03  0.00000000000E+00 0.  1.
         21    1    1    2  506  503  0.33355320986E+02 -0.35486529710E+02 -0.17008847226E+03  0.17692359827E+03  0.00000000000E+00 0.  1.
<scales pt_clust_3="53.96386" pt_clust_4="94.39213" pt_clust_5="14000.00000" pt_clust_6="48.70186"></scales>
<clustering>
<clus scale="   48.702">  2  6  1 -1</clus>
<clus scale="   53.964">  2  3  1 -1</clus>
<clus scale="   94.392">  1  4  2 -1</clus>
<clus scale="   94.392">  1  3  2 -1</clus>
</clustering>
</event>
<event>
 6    0  0.5563122E+002  0.1938455E+03  0.7546771E-02  0.1155038E+00
         21   -1    0    0  505  501  0.00000000000E+00  0.00000000000E+00  0.24833882982E+04  0.24833882982E+04  0.00000000000E+00 0. -1.
         21   -1    0    0  503  502 -0.00000000000E+00 -0.00000000000E+00 -0.44863280003E+02  0.44863280003E+02  0.00000000000E+00 0. -1.
         21    1    1    2  503  501  0.78053000734E+02  0.23485571789E+03  0.11556833527E+04  0.11818855659E+04  0.00000000000E+00 0. -1.
         21    1    1    2  504  506  0.72007771675E+02 -0.16913811931E+03  0.40823755068E+03  0.44771723260E+03  0.00000000000E+00 0. -1.
         21    1    1    2  505  504 -0.31118196821E+02 -0.62493458287E+02  0.51880778106E+03  0.52348379936E+03  0.00000000000E+00 0. -1.
         21    1    1    2  506  502 -0.11894257559E+03 -0.32241402877E+01  0.35579633375E+03  0.37516498035E+03  0.00000000000E+00 0. -1.
<scales pt_clust_3="193.84546" pt_clust_4="14000.00000" pt_clust_5="69.81242" pt_clust_6="125.62103"></scales>
<clustering>
<clus scale="   69.812">  1  5  2 -1</clus>
<clus scale="  125.621">  2  6  1 -1</clus>
<clus scale="  193.845">  1  3  2 -1</clus>
<clus scale="   69.812">  1  3  2 -1</clus>
</clustering>
</event>
<event>
 6    0  0.5563122E+002  0.3243417E+03  0.7546771E-02  0.1073668E+00
         21   -1    0    0  504  501  0.00000000000E+00  0.00000000000E+00  0.28734070811E+03  0.28734070811E+03  0.00000000000E+00 0. -1.
         21   -1    0    0  503  502 -0.00000000000E+00 -0.00000000000E+00 -0.47933979402E+03  0.47933979402E+03  0.00000000000E+00 0. -1.
         21    1    1    2  503  501 -0.11635253276E+03 -0.26208461065E+03 -0.23822403502E+03  0.37279611838E+03  0.00000000000E+00 0. -1.
         21    1    1    2  504  505  0.20536046310E+02  0.41325475537E+02  0.54917993115E+02  0.71732210995E+02  0.00000000000E+00 0. -1.
         21    1    1    2  505  506  0.14388824753E+03  0.22585545198E+03  0.15203976361E+02  0.26822690742E+03  0.00000000000E+00 0. -1.
         21    1    1    2  506  502 -0.48071761080E+02 -0.50963168726E+01 -0.23897020363E+02  0.53925265333E+02  0.00000000000E+00 0.  1.
<scales pt_clust_3="304.89903" pt_clust_4="45.91506" pt_clust_5="45.91506" pt_clust_6="48.34115"></scales>
<clustering>
<clus scale="   45.915">  4  5 -1 -1</clus>
<clus scale="   48.341">  2  6  1 -1</clus>
<clus scale="  304.899">  2  3  1 -1</clus>
<clus scale="  324.342">  1  3  2 -1</clus>
</clustering>
</event>
<event>
 6    0  0.5563122E+002  0.8522570E+02  0.7546771E-02  0.1314843E+00
         21   -1    0    0  505  501  0.00000000000E+00  0.00000000000E+00  0.56116501012E+02  0.56116501012E+02  0.00000000000E+00 0. -1.
         21   -1    0    0  503  502 -0.00000000000E+00 -0.00000000000E+00 -0.65621441931E+03  0.65621441931E+03  0.00000000000E+00 0. -1.
         21    1    1    2  503  506 -0.28192927606E+02 -0.72672474781E+02 -0.18742280456E+03  0.20298629862E+03  0.00000000000E+00 0. -1.
         21    1    1    2  504  502 -0.29384219718E+02  0.14792086413E+02 -0.55461287474E+02  0.64484049168E+02  0.00000000000E+00 0.  1.
         21    1    1    2  505  504  0.29287778229E+02  0.13294201598E+03 -0.33503568270E+03  0.36163553787E+03  0.00000000000E+00 0. -1.
         21    1    1    2  506  501  0.28289369095E+02 -0.75061627609E+02 -0.22178143560E+02  0.83225034664E+02  0.00000000000E+00 0. -1.
<scales pt_clust_3="77.65753" pt_clust_4="32.89739" pt_clust_5="14000.00000" pt_clust_6="85.22570"></scales>
<clustering>
<clus scale="   32.897">  2  4  1 -1</clus>
<clus scale="   77.658">  2  3  1 -1</clus>
<clus scale="   85.226">  1  6  2 -1</clus>
<clus scale="   85.226">  1  3  2 -1</clus>
</clustering>
</event>
<event>
 6    0  0.5563122E+002  0.7941101E+02  0.7546771E-02  0.1330731E+00
         21   -1    0    0  503  501  0.00000000000E+00  0.00000000000E+00  0.35589816085E+03  0.35589816085E+03  0.00000000000E+00 0. -1.
         21   -1    0    0  505  502 -0.00000000000E+00 -0.00000000000E+00 -0.33120460020E+03  0.33120460020E+03  0.00000000000E+00 0.  1.
         21    1    1    2  503  506  0.44251946319E+02  0.18138902035E+02  0.99515636995E+02  0.11041112501E+03  0.00000000000E+00 0. -1.
         21    1    1    2  504  501  0.64760967750E+02  0.19133504548E+02  0.63294974601E+01  0.67824305955E+02  0.00000000000E+00 0. -1.
         21    1    1    2  505  504  0.61982996947E+02  0.44696300677E+02 -0.24600476025E+03  0.25760045277E+03  0.00000000000E+00 0.  1.
         21    1    1    2  506  502 -0.17099591102E+03 -0.81968707259E+02  0.16485318645E+03  0.25126687731E+03  0.00000000000E+00 0. -1.
<scales pt_clust_3="47.82525" pt_clust_4="74.56166" pt_clust_5="79.41101" pt_clust_6="14000.00000"></scales>
<clustering>
<clus scale="   47.825">  1  3  2 -1</clus>
<clus scale="   74.562">  1  4  2 -1</clus>
<clus scale="   79.411">  2  5  1 -1</clus>
<clus scale="   47.825">  1  3  2 -1</clus>
</clustering>
</event>
<event>
 6    0  0.5563122E+002  0.1621199E+03  0.7546771E-02  0.1186324E+00
         21   -1    0    0  503  501  0.00000000000E+00  0.00000000000E+00  0.73285364837E+03  0.73285364837E+03  0.00000000000E+00 0. -1.
         21   -1    0    0  504  502 -0.00000000000E+00 -0.00000000000E+00 -0.32080656528E+03  0.32080656528E+03  0.00000000000E+00 0.  1.
         21    1    1    2  503  505 -0.13164001407E+03  0.61134908761E+02  0.28080506096E+02  0.14783465493E+03  0.00000000000E+00 0. -1.
         21    1    1    2  504  506  0.76839334114E+02 -0.15898127241E+03  0.21641576131E+03  0.27931185078E+03  0.00000000000E+00 0. -1.
         21    1    1    2  505  502 -0.64315280534E+02  0.18883811842E+02 -0.21126144343E+03  0.22164036442E+03  0.00000000000E+00 0.  1.
         21    1    1    2  506  501  0.11911596049E+03  0.78962551809E+02  0.37881225912E+03  0.40487334352E+03  0.00000000000E+00 0. -1.
<scales pt_clust_3="162.11992" pt_clust_4="14000.00000" pt_clust_5="67.03024" pt_clust_6="137.66964"></scales>
<clustering>
<clus scale="   67.030">  2  5  1 -1</clus>
<clus scale="  137.670">  1  6  2 -1</clus>
<clus scale="  162.120">  2  3  1 -1</clus>
<clus scale="  137.670">  1  3  2 -1</clus>
</clustering>
</event>
<event>
 6    0  0.5563122E+002  0.1003769E+03  0.7546771E-02  0.1279505E+00
         21   -1    0    0  506  501  0.00000000000E+00  0.00000000000E+00  0.17664800165E+03  0.17664800165E+03  0.00000000000E+00 0.  1.
         21   -1    0    0  504  502 -0.00000000000E+00 -0.00000000000E+00 -0.34111059908E+03  0.34111059908E+03  0.00000000000E+00 0. -1.
         21    1    1    2  503  505  0.39583199327E+02  0.41609803570E+02 -0.95101758280E+01  0.58212102404E+02  0.00000000000E+00 0.  1.
         21    1    1    2  504  503 -0.48882611394E+02  0.91998558529E+02  0.99859257267E+02  0.14430909788E+03  0.00000000000E+00 0.  1.
         21    1    1    2  505  501  0.15177141488E+02 -0.32599384229E+02  0.51066666801E+01  0.36320015424E+02  0.00000000000E+00 0. -1.
         21    1    1    2  506  502 -0.58777294206E+01 -0.10100897787E+03 -0.25991834555E+03  0.27891738502E+03  0.00000000000E+00 0. -1.
<scales pt_clust_3="55.62120" pt_clust_4="100.37693" pt_clust_5="35.95922" pt_clust_6="14000.00000"></scales>
<clustering>
<clus scale="   35.959">  1  5  2 -1</clus>
<clus scale="   55.621">  1  3  2 -1</clus>
<clus scale="  100.377">  1  4  2 -1</clus>
<clus scale="   35.959">  1  3  2 -1</clus>
</clustering>
</event>
<event>
 6    0  0.5563122E+002  0.1544347E+03  0.7546771E-02  0.1195127E+00
         21   -1    0    0  505  501  0.00000000000E+00  0.00000000000E+00  0.12349338208E+03  0.12349338208E+03  0.00000000000E+00 0. -1.
         21   -1    0    0  506  502 -0.00000000000E+00 -0.00000000000E+00 -0.47087286781E+03  0.47087286781E+03  0.00000000000E+00 0. -1.
         21    1    1    2  503  501  0.23671302505E+01 -0.33594381032E+02  0.68110223112E+02  0.75981499293E+02  0.00000000000E+00 0. -1.
         21    1    1    2  504  503 -0.58272266136E+02  0.32710016352E+02 -0.74328217822E+02  0.99951418875E+02  0.00000000000E+00 0.  1.
         21    1    1    2  505  502  0.11004614231E+03 -0.85563858626E+02 -0.21433826220E+03  0.25567991314E+03  0.00000000000E+00 0. -1.
         21    1    1    2  506  504 -0.54141006425E+02  0.86448223306E+02 -0.12682322882E+03  0.16275341857E+03  0.00000000000E+00 0. -1.
<scales pt_clust_3="33.67767" pt_clust_4="33.53403" pt_clust_5="148.77357" pt_clust_6="33.53403"></scales>
<clustering>
<clus scale="   33.534">  4  6 -1 -1</clus>
<clus scale="   33.678">  1  3  2 -1</clus>
<clus scale="  148.774">  2  5  1 -1</clus>
<clus scale="   33.678">  1  3  2 -1</clus>
</clustering>
</event>
<event>
 6    0  0.5563122E+002  0.1630331E+03  0.7546771E-02  0.1185314E+00
         21   -1    0    0  504  501  0.00000000000E+00  0.00000000000E+00  0.26097758989E+03  0.26097758989E+03  0.00000000000E+00 0.  1.
         21   -1    0    0  506  502 -0.00000000000E+00 -0.00000000000E+00 -0.39822108068E+03  0.39822108068E+03  0.00000000000E+00 0.  1.
         21    1    1    2  503  505 -0.87805715781E+02 -0.42192969754E+02 -0.17123537810E+02  0.98910595831E+02  0.00000000000E+00 0.  1.
         21    1    1    2  504  503 -0.22181565790E+02 -0.11656595270E+03 -0.47144597875E+02  0.12768028939E+03  0.00000000000E+00 0. -1.
         21    1    1    2  505  502  0.26377562131E+02  0.11641203193E+03 -0.22460456205E+03  0.25435161933E+03  0.00000000000E+00 0.  1.
         21    1    1    2  506  501  0.83609719440E+02  0.42346890528E+02  0.15162920696E+03  0.17825616602E+03  0.00000000000E+00 0.  1.
<scales pt_clust_3="90.20654" pt_clust_4="90.20654" pt_clust_5="129.10596" pt_clust_6="93.72217"></scales>
<clustering>
<clus scale="   90.207">  3  4 -1 -1</clus>
<clus scale="   93.722">  1  6  2 -1</clus>
<clus scale="  129.106">  2  5  1 -1</clus>
<clus scale="   93.722">  1  3  2 -1</clus>
</clustering>
</event>
<event>
 6    0  0.5563122E+002  0.4015630E+03  0.7546771E-02  0.1043240E+00
         21   -1    0    0  505  501  0.00000000000E+00  0.00000000000E+00  0.54013419028E+03  0.54013419028E+03  0.00000000000E+00 0. -1.
         21   -1    0    0  504  502 -0.00000000000E+00 -0.00000000000E+00 -0.44587888358E+03  0.44587888358E+03  0.00000000000E+00 0. -1.
         21    1    1    2  503  501 -0.72366622382E+02 -0.12226422496E+03  0.25706250225E+02  0.14438240904E+03  0.00000000000E+00 0. -1.
         21    1    1    2  504  506  0.20501088359E+03 -0.77310865683E+02 -0.58332259048E+02  0.22673571574E+03  0.00000000000E+00 0. -1.
         21    1    1    2  505  502 -0.31602353003E+03  0.24628750551E+03  0.14194523065E+03  0.42506100198E+03  0.00000000000E+00 0. -1.
         21    1    1    2  506  503  0.18337926881E+03 -0.46712414869E+02 -0.15063915126E+02  0.18983394710E+03  0.00000000000E+00 0. -1.
<scales pt_clust_3="142.07557" pt_clust_4="40.66449" pt_clust_5="399.17199" pt_clust_6="40.66449"></scales>
<clustering>
<clus scale="   40.664">  4  6 -1 -1</clus>
<clus scale="  142.076">  1  3  2 -1</clus>
<clus scale="  399.172">  1  5  2 -1</clus>
<clus scale="  142.076">  1  3  2 -1</clus>
</clustering>
</event>
<event>
 6    0  0.5563122E+002  0.9497158E+02  0.7546771E-02  0.1291240E+00
         21   -1    0    0  505  501  0.00000000000E+00  0.00000000000E+00  0.19226130434E+03  0.19226130434E+03  0.00000000000E+00 0. -1.
         21   -1    0    0  506  502 -0.00000000000E+00 -0.00000000000E+00 -0.10651038872E+04  0.10651038872E+04  0.00000000000E+00 0.  1.
         21    1    1    2  503  501  0.34617232456E+01 -0.95130536347E+02  0.16012870569E+03  0.18628742540E+03  0.00000000000E+00 0. -1.
         21    1    1    2  504  502  0.43883559394E+02  0.15248996104E+02 -0.63122714865E+03  0.63293444515E+03  0.00000000000E+00 0.  1.
         21    1    1    2  505  504 -0.49127734033E+02 -0.89038416541E+01 -0.35437316186E+02  0.61225942425E+02  0.00000000000E+00 0. -1.
         21    1    1    2  506  503  0.17824513938E+01  0.88785381896E+02 -0.36630682375E+03  0.37691737861E+03  0.00000000000E+00 0.  1.
<scales pt_clust_3="94.97158" pt_clust_4="46.45749" pt_clust_5="44.81219" pt_clust_6="14000.00000"></scales>
<clustering>
<clus scale="   46.457">  2  4  1 -1</clus>
<clus scale="   44.812">  2  5  1 -1</clus>
<clus scale="   94.972">  1  3  2 -1</clus>
<clus scale="   94.972">  1  3  2 -1</clus>
</clustering>
</event>
<event>
 6    0  0.5563122E+002  0.1939905E+03  0.7546771E-02  0.1154911E+00
         21   -1    0    0  504  501  0.00000000000E+00  0.00000000000E+00  0.19611087895E+03  0.19611087895E+03  0.00000000000E+00 0.  1.
         21   -1    0    0  506  502 -0.00000000000E+00 -0.00000000000E+00 -0.31344101936E+03  0.31344101936E+03  0.00000000000E+00 0.  1.
         21    1    1    2  503  505  0.15605067034E+01 -0.88511431235E+02 -0.53433793915E+02  0.10340154241E+03  0.00000000000E+00 0.  1.
         21    1    1    2  504  502  0.49323501945E+02  0.16802215103E+03 -0.55651683178E+02  0.18374264862E+03  0.00000000000E+00 0.  1.
         21    1    1    2  505  501 -0.11399164409E+02  0.33032347229E+02  0.71054974526E+02  0.79182613733E+02  0.00000000000E+00 0.  1.
         21    1    1    2  506  503 -0.39484844240E+02 -0.11254306702E+03 -0.79299637847E+02  0.14322509355E+03  0.00000000000E+00 0.  1.
<scales pt_clust_3="31.60027" pt_clust_4="190.49138" pt_clust_5="34.94391" pt_clust_6="31.60027"></scales>
<clustering>
<clus scale="   31.600">  3  6 -1 -1</clus>
<clus scale="   34.944">  1  5  2 -1</clus>
<clus scale="  190.491">  1  4  2 -1</clus>
<clus scale="   34.944">  1  3  2 -1</clus>
</clustering>
</event>
<event>
 6    0  0.5563122E+002  0.8665530E+02  0.7546771E-02  0.1311160E+00
         21   -1    0    0  504  501  0.00000000000E+00  0.00000000000E+00  0.70862831628E+02  0.70862831628E+02  0.00000000000E+00 0.  1.
         21   -1    0    0  501  502 -0.00000000000E+00 -0.00000000000E+00 -0.56133380456E+03  0.56133380456E+03  0.00000000000E+00 0.  1.
         21    1    1    2  503  502  0.13953377232E+02 -0.72503660561E+02 -0.41422492483E+03  0.42075380673E+03  0.00000000000E+00 0.  1.
         21    1    1    2  504  505 -0.55863290639E+02 -0.31969017143E+02  0.79477439412E+01  0.64852848294E+02  0.00000000000E+00 0.  1.
         21    1    1    2  505  506 -0.29421048540E+01  0.45358962180E+02 -0.37412916398E+02  0.58871196220E+02  0.00000000000E+00 0.  1.
         21    1    1    2  506  503  0.44852018261E+02  0.59113715523E+02 -0.46780875646E+02  0.87718784939E+02  0.00000000000E+00 0.  1.
<scales pt_clust_3="76.02693" pt_clust_4="64.36401" pt_clust_5="32.54461" pt_clust_6="32.54461"></scales>
<clustering>
<clus scale="   32.545">  5  6 -1 -1</clus>
<clus scale="   64.364">  1  4  2 -1</clus>
<clus scale="   76.027">  2  3  1 -1</clus>
<clus scale="   64.364">  1  3  2 -1</clus>
</clustering>
</event>
<event>
 6    0  0.5563122E+002  0.1215266E+03  0.7546771E-02  0.1240600E+00
         21   -1    0    0  506  501  0.00000000000E+00  0.00000000000E+00  0.16280931951E+03  0.16280931951E+03  0.00000000000E+00 0.  1.
         21   -1    0    0  501  502 -0.00000000000E+00 -0.00000000000E+00 -0.91924476121E+03  0.91924476121E+03  0.00000000000E+00 0.  1.
         21    1    1    2  503  502  0.25448797225E+02  0.25728178100E+02 -0.82742074174E+03  0.82821172673E+03  0.00000000000E+00 0.  1.
         21    1    1    2  504  503  0.44754289152E+02 -0.11377155914E+03  0.17595362278E+02  0.12351724916E+03  0.00000000000E+00 0.  1.
         21    1    1    2  505  504 -0.36990948609E+02  0.37439454611E+02  0.50709196079E+01  0.52874920957E+02  0.00000000000E+00 0.  1.
         21    1    1    2  506  505 -0.33212137768E+02  0.50603926431E+02  0.48319018153E+02  0.77450183864E+02  0.00000000000E+00 0.  1.
<scales pt_clust_3="36.18813" pt_clust_4="115.38924" pt_clust_5="35.55710" pt_clust_6="35.55710"></scales>
<clustering>
<clus scale="   35.557">  5  6 -1 -1</clus>
<clus scale="   36.188">  2  3  1 -1</clus>
<clus scale="  115.389">  2  4  1 -1</clus>
<clus scale="  121.527">  1  3  2 -1</clus>
</clustering>
</event>
<event>
 6    0  0.5563122E+002  0.8765980E+02  0.7546771E-02  0.1308620E+00
         21   -1    0    0  504  501  0.00000000000E+00  0.00000000000E+00  0.45250206665E+03  0.45250206665E+03  0.00000000000E+00 0. -1.
         21   -1    0    0  503  502 -0.00000000000E+00 -0.00000000000E+00 -0.30529048505E+03  0.30529048505E+03  0.00000000000E+00 0.  1.
         21    1    1    2  503  506  0.46184791137E+02  0.52873550314E+02 -0.18388311820E+03  0.19682898266E+03  0.00000000000E+00 0.  1.
         21    1    1    2  504  502 -0.10356652332E+03  0.41420637451E+02 -0.17465748837E+02  0.11290148955E+03  0.00000000000E+00 0.  1.
         21    1    1    2  505  501  0.14949630539E+02 -0.30270298047E+02  0.36742348474E+03  0.36897127197E+03  0.00000000000E+00 0. -1.
         21    1    1    2  506  505  0.42432101644E+02 -0.64023889719E+02 -0.18863036104E+02  0.79090807530E+02  0.00000000000E+00 0.  1.
<scales pt_clust_3="69.25040" pt_clust_4="14000.00000" pt_clust_5="33.76066" pt_clust_6="87.65980"></scales>
<clustering>
<clus scale="   33.761">  1  5  2 -1</clus>
<clus scale="   69.250">  2  3  1 -1</clus>
<clus scale="   87.660">  2  6  1 -1</clus>
<clus scale="   33.761">  1  3  2 -1</clus>
</clustering>
</event>
<event>
 6    0  0.5563122E+002  0.1341427E+03  0.7546771E-02  0.1221435E+00
         21   -1    0    0  503  501  0.00000000000E+00  0.00000000000E+00  0.14152995670E+04  0.14152995670E+04  0.00000000000E+00 0.  1.
         21   -1    0    0  505  502 -0.00000000000E+00 -0.00000000000E+00 -0.22143597877E+02  0.22143597877E+02  0.00000000000E+00 0. -1.
         21    1    1    2  503  502 -0.66964038837E+02 -0.98544223586E+02  0.24254813428E+03  0.27023090856E+03  0.00000000000E+00 0. -1.
         21    1    1    2  504  506  0.67536009529E+02  0.66095083540E+02  0.52310091991E+03  0.53156772388E+03  0.00000000000E+00 0.  1.
         21    1    1    2  505  504  0.14977593808E+02  0.62345854685E+02  0.32486928191E+03  0.33113650394E+03  0.00000000000E+00 0.  1.
         21    1    1    2  506  501 -0.15549564500E+02 -0.29896714639E+02  0.30263763300E+03  0.30450802848E+03  0.00000000000E+00 0. -1.
<scales pt_clust_3="126.86497" pt_clust_4="36.10263" pt_clust_5="36.10263" pt_clust_6="33.69870"></scales>
<clustering>
<clus scale="   33.699">  1  6  2 -1</clus>
<clus scale="   36.103">  4  5 -1 -1</clus>
<clus scale="  126.865">  2  3  1 -1</clus>
<clus scale="   33.699">  1  3  2 -1</clus>
</clustering>
</event>
<event>
 6    0  0.5563122E+002  0.7756086E+02  0.7546771E-02  0.1336119E+00
         21   -1    0    0  506  501  0.00000000000E+00  0.00000000000E+00  0.21028774177E+03  0.21028774177E+03  0.00000000000E+00 0. -1.
         21   -1    0    0  505  502 -0.00000000000E+00 -0.00000000000E+00 -0.21312997467E+03  0.21312997467E+03  0.00000000000E+00 0.  1.
         21    1    1    2  503  504 -0.12493245939E+00 -0.50943879832E+02  0.92717258200E+01  0.51780878712E+02  0.00000000000E+00 0. -1.
         21    1    1    2  504  502  0.73043286310E+01 -0.50120288831E+02 -0.13837894577E+03  0.14735714846E+03  0.00000000000E+00 0.  1.
         21    1    1    2  505  501 -0.75453115623E+02  0.77603217385E+02  0.10028467338E+03  0.14755489731E+03  0.00000000000E+00 0. -1.
         21    1    1    2  506  503  0.68273719451E+02  0.23460951278E+02  0.25980313669E+02  0.76724791957E+02  0.00000000000E+00 0.  1.
<scales pt_clust_3="66.13837" pt_clust_4="50.64974" pt_clust_5="14000.00000" pt_clust_6="77.56086"></scales>
<clustering>
<clus scale="   50.650">  2  4  1 -1</clus>
<clus scale="   66.138">  2  3  1 -1</clus>
<clus scale="   77.561">  2  6  1 -1</clus>
<clus scale="   77.561">  1  3  2 -1</clus>
</clustering>
</event>
<event>
 6    0  0.5563122E+002  0.1096992E+03  0.7546771E-02  0.1261128E+00
         21   -1    0    0  503  501  0.00000000000E+00  0.00000000000E+00  0.49965811174E+03  0.49965811174E+03  0.00000000000E+00 0.  1.
         21   -1    0    0  504  502 -0.00000000000E+00 -0.00000000000E+00 -0.46027049243E+02  0.46027049243E+02  0.00000000000E+00 0.  1.
         21    1    1    2  503  505  0.29781320979E+02 -0.11302172476E+02  0.54979620430E+02  0.63540733743E+02  0.00000000000E+00 0. -1.
         21    1    1    2  504  501 -0.89607335487E+02 -0.71874029382E+02  0.34091691666E+03  0.35974948887E+03  0.00000000000E+00 0.  1.
         21    1    1    2  505  506  0.44618194262E+02  0.34426042187E+02  0.36150974235E+02  0.66953928772E+02  0.00000000000E+00 0.  1.
         21    1    1    2  506  502  0.15207820246E+02  0.48750159670E+02  0.21583551168E+02  0.55441009600E+02  0.00000000000E+00 0.  1.
<scales pt_clust_3="31.85383" pt_clust_4="104.32692" pt_clust_5="31.68175" pt_clust_6="31.68175"></scales>
<clustering>
<clus scale="   31.854">  1  3  2 -1</clus>
<clus scale="   31.682">  5  6 -1 -1</clus>
<clus scale="  104.327">  1  4  2 -1</clus>
<clus scale="   31.854">  1  3  2 -1</clus>
</clustering>
</event>
<event>
 6    0  0.5563122E+002  0.1281554E+03  0.7546771E-02  0.1230219E+00
         21   -1    0    0  504  501  0.00000000000E+00  0.00000000000E+00  0.11855941574E+04  0.11855941574E+04  0.00000000000E+00 0.  1.
         21   -1    0    0  505  502 -0.00000000000E+00 -0.00000000000E+00 -0.21811030106E+03  0.21811030106E+03  0.00000000000E+00 0. -1.
         21    1    1    2  503  506  0.69493622867E+02 -0.10155440488E+03 -0.59215757664E+02  0.13656195197E+03  0.00000000000E+00 0. -1.
         21    1    1    2  504  503  0.42457128494E+02  0.30190308763E+02  0.95593881793E+03  0.95735734505E+03  0.00000000000E+00 0.  1.
         21    1    1    2  505  501 -0.63908816625E+02  0.10460213560E+03  0.16095916642E+03  0.20232102429E+03  0.00000000000E+00 0. -1.
         21    1    1    2  506  502 -0.48041934737E+02 -0.33238039484E+02 -0.90198370338E+02  0.10746413715E+03  0.00000000000E+00 0. -1.
<scales pt_clust_3="128.15538" pt_clust_4="52.09666" pt_clust_5="14000.00000" pt_clust_6="56.45489"></scales>
<clustering>
<clus scale="   52.097">  1  4  2 -1</clus>
<clus scale="   56.455">  2  6  1 -1</clus>
<clus scale="  128.155">  2  3  1 -1</clus>
<clus scale="   52.097">  1  3  2 -1</clus>
</clustering>
</event>
<event>
 6    0  0.5563122E+002  0.8500360E+02  0.7546771E-02  0.1315423E+00
         21   -1    0    0  503  501  0.00000000000E+00  0.00000000000E+00  0.48215430065E+03  0.48215430065E+03  0.00000000000E+00 0.  1.
         21   -1    0    0  504  502 -0.00000000000E+00 -0.00000000000E+00 -0.17787138323E+03  0.17787138323E+03  0.00000000000E+00 0. -1.
         21    1    1    2  503  502 -0.32563633701E+02 -0.19552779629E+02  0.18035008511E+02  0.42047151664E+02  0.00000000000E+00 0.  1.
         21    1    1    2  504  505  0.36245243300E+02 -0.12559053414E+02 -0.14273417586E+03  0.14779882422E+03  0.00000000000E+00 0. -1.
         21    1    1    2  505  506  0.80869932741E+02  0.38954119194E+02  0.12057134623E+03  0.15031573090E+03  0.00000000000E+00 0. -1.
         21    1    1    2  506  501 -0.84551542341E+02 -0.68422861502E+01  0.30841073853E+03  0.31986397708E+03  0.00000000000E+00 0.  1.
<scales pt_clust_3="37.98291" pt_clust_4="30.67248" pt_clust_5="85.00360" pt_clust_6="14000.00000"></scales>
<clustering>
<clus scale="   37.983">  2  3  1 -1</clus>
<clus scale="   30.672">  2  4  1 -1</clus>
<clus scale="   85.004">  2  5  1 -1</clus>
<clus scale="   85.004">  1  3  2 -1</clus>
</clustering>
</event>
<event>
 6    0  0.5563122E+002  0.7456636E+02  0.7546771E-02  0.1345219E+00
         21   -1    0    0  505  501  0.00000000000E+00  0.00000000000E+00  0.27941108285E+03  0.27941108285E+03  0.00000000000E+00 0. -1.
         21   -1    0    0  506  502 -0.00000000000E+00 -0.00000000000E+00 -0.35835138572E+03  0.35835138572E+03  0.00000000000E+00 0.  1.
         21    1    1    2  503  501  0.44015953949E+02 -0.36885864811E+02  0.20374480225E+03  0.21168352715E+03  0.00000000000E+00 0. -1.
         21    1    1    2  504  503  0.24677299765E+00  0.61489186027E+02 -0.12083894477E+03  0.13558403840E+03  0.00000000000E+00 0.  1.
         21    1    1    2  505  502 -0.84562025202E+02 -0.35926514431E+02  0.28031056048E+02  0.96058266946E+02  0.00000000000E+00 0. -1.
         21    1    1    2  506  504  0.40299298256E+02  0.11323193214E+02 -0.18987721638E+03  0.19443663607E+03  0.00000000000E+00 0.  1.
<scales pt_clust_3="57.99785" pt_clust_4="14000.00000" pt_clust_5="74.56636" pt_clust_6="41.85986"></scales>
<clustering>
<clus scale="   41.860">  2  6  1 -1</clus>
<clus scale="   57.998">  1  3  2 -1</clus>
<clus scale="   74.566">  1  5  2 -1</clus>
<clus scale="   57.998">  1  3  2 -1</clus>
</clustering>
</event>
<event>
 6    0  0.5563122E+002  0.1424047E+03  0.7546771E-02  0.1210129E+00
         21   -1    0    0  503  501  0.00000000000E+00  0.00000000000E+00  0.23027253742E+03  0.23027253742E+03  0.00000000000E+00 0.  1.
         21   -1    0    0  505  502 -0.00000000000E+00 -0.00000000000E+00 -0.29578229445E+03  0.29578229445E+03  0.00000000000E+00 0.  1.
         21    1    1    2  503  504  0.42471239867E+02 -0.68417708453E+01 -0.26897556438E+02  0.50735535737E+02  0.00000000000E+00 0. -1.
         21    1    1    2  504  502  0.14973362034E+03  0.73282769876E+02 -0.80949965689E+01  0.16690131931E+03  0.00000000000E+00 0.  1.
         21    1    1    2  505  506 -0.81883753240E+02 -0.67868319695E+02 -0.12431783386E+03  0.16360312246E+03  0.00000000000E+00 0.  1.
         21    1    1    2  506  501 -0.11032110696E+03  0.14273206649E+01  0.93800629838E+02  0.14481485436E+03  0.00000000000E+00 0.  1.
<scales pt_clust_3="35.13661" pt_clust_4="35.13661" pt_clust_5="106.35346" pt_clust_6="124.47846"></scales>
<clustering>
<clus scale="   35.137">  3  4 -1 -1</clus>
<clus scale="  106.353">  2  5  1 -1</clus>
<clus scale="  124.478">  1  6  2 -1</clus>
<clus scale="  124.478">  1  3  2 -1</clus>
</clustering>
</event>
<event>
 6    0  0.5563122E+002  0.8725261E+02  0.7546771E-02  0.1309645E+00
         21   -1    0    0  506  501  0.00000000000E+00  0.00000000000E+00  0.61917706941E+03  0.61917706941E+03  0.00000000000E+00 0.  1.
         21   -1    0    0  504  502 -0.00000000000E+00 -0.00000000000E+00 -0.11433295039E+03  0.11433295039E+03  0.00000000000E+00 0. -1.
         21    1    1    2  503  501 -0.15144314376E+02 -0.34345485865E+02  0.28762092347E+03  0.29005992187E+03  0.00000000000E+00 0.  1.
         21    1    1    2  504  503  0.42130967362E+02  0.36418135058E+02  0.12179400559E+03  0.13392191295E+03  0.00000000000E+00 0. -1.
         21    1    1    2  505  502 -0.79185023951E+02  0.41694167246E+02 -0.80813160087E+02  0.12057959381E+03  0.00000000000E+00 0. -1.
         21    1    1    2  506  505  0.52198370964E+02 -0.43766816439E+02  0.17624235005E+03  0.18894859117E+03  0.00000000000E+00 0.  1.
<scales pt_clust_3="37.53615" pt_clust_4="43.01406" pt_clust_5="14000.00000" pt_clust_6="87.25261"></scales>
<clustering>
<clus scale="   37.536">  1  3  2 -1</clus>
<clus scale="   43.014">  1  4  2 -1</clus>
<clus scale="   87.253">  1  6  2 -1</clus>
<clus scale="   37.536">  1  3  2 -1</clus>
</clustering>
</event>
<event>
 6    0  0.5563122E+002  0.1402248E+03  0.7546771E-02  0.1213027E+00
         21   -1    0    0  504  501  0.00000000000E+00  0.00000000000E+00  0.17633821391E+03  0.17633821391E+03  0.00000000000E+00 0.  1.
         21   -1    0    0  503  502 -0.00000000000E+00 -0.00000000000E+00 -0.46348667724E+03  0.46348667724E+03  0.00000000000E+00 0.  1.
         21    1    1    2  503  506 -0.62723561199E+02 -0.11309505447E+02 -0.88397672207E+02  0.10897843133E+03  0.00000000000E+00 0.  1.
         21    1    1    2  504  502  0.99531599122E+01 -0.71530929835E+02 -0.19166311787E+03  0.20481818783E+03  0.00000000000E+00 0.  1.
         21    1    1    2  505  501  0.93309626990E+02  0.10446045991E+03  0.12403348430E+03  0.18709083195E+03  0.00000000000E+00 0.  1.
         21    1    1    2  506  505 -0.40539225704E+02 -0.21620024625E+02 -0.13112115755E+03  0.13893744004E+03  0.00000000000E+00 0.  1.
<scales pt_clust_3="33.16898" pt_clust_4="72.22008" pt_clust_5="134.67289" pt_clust_6="33.16898"></scales>
<clustering>
<clus scale="   33.169">  3  6 -1 -1</clus>
<clus scale="   72.220">  2  4  1 -1</clus>
<clus scale="  134.673">  1  5  2 -1</clus>
<clus scale="  134.673">  1  3  2 -1</clus>
</clustering>
</event>
<event>
 6    0  0.5563122E+002  0.1068888E+03  0.7546771E-02  0.1266442E+00
         21   -1    0    0  504  501  0.00000000000E+00  0.00000000000E+00  0.14591032208E+04  0.14591032208E+04  0.00000000000E+00 0.  1.
         21   -1    0    0  505  502 -0.00000000000E+00 -0.00000000000E+00 -0.59878684762E+02  0.59878684762E+02  0.00000000000E+00 0.  1.
         21    1    1    2  503  501 -0.49459145798E+02  0.12530555904E+03  0.23631507361E+03  0.27201563235E+03  0.00000000000E+00 0.  1.
         21    1    1    2  504  506  0.92760838446E+02 -0.36691530416E+01  0.10256882950E+04  0.10298808254E+04  0.00000000000E+00 0.  1.
         21    1    1    2  505  503  0.63802325010E+01 -0.31538858865E+02 -0.13252091949E+02  0.34799783423E+02  0.00000000000E+00 0.  1.
         21    1    1    2  506  502 -0.49681925149E+02 -0.90097547134E+02  0.15047325936E+03  0.18228566446E+03  0.00000000000E+00 0.  1.
<scales pt_clust_3="106.88880" pt_clust_4="93.29692" pt_clust_5="32.17774" pt_clust_6="14000.00000"></scales>
<clustering>
<clus scale="   32.178">  2  5  1 -1</clus>
<clus scale="   93.297">  1  4  2 -1</clus>
<clus scale="  106.889">  2  3  1 -1</clus>
<clus scale="   93.297">  1  3  2 -1</clus>
</clustering>
</event>
<event>
 6    0  0.5563122E+002  0.9411698E+02  0.7546771E-02  0.1293177E+00
         21   -1    0    0  504  501  0.00000000000E+00  0.00000000000E+00  0.35179126020E+03  0.35179126020E+03  0.00000000000E+00 0.  1.
         21   -1    0    0  506  502 -0.00000000000E+00 -0.00000000000E+00 -0.58985241168E+03  0.58985241168E+03  0.00000000000E+00 0.  1.
         21    1    1    2  503  502 -0.45453587098E+02  0.10462787807E+03  0.17445167473E+03  0.20843802020E+03  0.00000000000E+00 0.  1.
         21    1    1    2  504  503 -0.78195837600E+02  0.48415399153E+01  0.11082553206E+03  0.13572150929E+03  0.00000000000E+00 0.  1.
         21    1    1    2  505  501  0.43766526788E+02 -0.59713933306E+02 -0.89697526699E+01  0.74576934510E+02  0.00000000000E+00 0. -1.
         21    1    1    2  506  505  0.79882897910E+02 -0.49755484684E+02 -0.51436860560E+03  0.52290720788E+03  0.00000000000E+00 0.  1.
<scales pt_clust_3="94.11698" pt_clust_4="63.93763" pt_clust_5="74.03555" pt_clust_6="14000.00000"></scales>
<clustering>
<clus scale="   74.036">  1  5  2 -1</clus>
<clus scale="   63.938">  1  4  2 -1</clus>
<clus scale="   94.117">  1  3  2 -1</clus>
<clus scale="   74.036">  1  3  2 -1</clus>
</clustering>
</event>
<event>
 6    0  0.5563122E+002  0.1507009E+03  0.7546771E-02  0.1199614E+00
         21   -1    0    0  503  501  0.00000000000E+00  0.00000000000E+00  0.79293774283E+03  0.79293774283E+03  0.00000000000E+00 0. -1.
         21   -1    0    0  506  502 -0.00000000000E+00 -0.00000000000E+00 -0.29402507868E+03  0.29402507868E+03  0.00000000000E+00 0. -1.
         21    1    1    2  503  505 -0.12511386467E+03 -0.13591147106E+03  0.37873253774E+03  0.42138313000E+03  0.00000000000E+00 0. -1.
         21    1    1    2  504  502  0.38257676141E+02 -0.47632152800E+02 -0.23413740546E+03  0.24197685096E+03  0.00000000000E+00 0. -1.
         21    1    1    2  505  504  0.48635526488E+02  0.14295119268E+03  0.15402330656E+03  0.21569338629E+03  0.00000000000E+00 0. -1.
         21    1    1    2  506  501  0.38220662043E+02  0.40592431176E+02  0.20029422531E+03  0.20790945426E+03  0.00000000000E+00 0. -1.
<scales pt_clust_3="150.70094" pt_clust_4="61.04372" pt_clust_5="14000.00000" pt_clust_6="55.75450"></scales>
<clustering>
<clus scale="   55.755">  1  6  2 -1</clus>
<clus scale="   61.044">  2  4  1 -1</clus>
<clus scale="  150.701">  1  3  2 -1</clus>
<clus scale="   55.755">  1  3  2 -1</clus>
</clustering>
</event>
<event>
 6    0  0.5563122E+002  0.1553975E+03  0.7546771E-02  0.1193993E+00
         21   -1    0    0  505  501  0.00000000000E+00  0.00000000000E+00  0.65733117523E+03  0.65733117523E+03  0.00000000000E+00 0.  1.
         21   -1    0    0  503  502 -0.00000000000E+00 -0.00000000000E+00 -0.87322471902E+03  0.87322471902E+03  0.00000000000E+00 0. -1.
         21    1    1    2  503  504 -0.70283121564E+02  0.14050182541E+03 -0.81450197981E+03  0.82951428875E+03  0.00000000000E+00 0. -1.
         21    1    1    2  504  501  0.12576150937E+03  0.58101650050E+01  0.44821358184E+03  0.46555894385E+03  0.00000000000E+00 0.  1.
         21    1    1    2  505  506  0.33939554278E+00 -0.78231643409E+02  0.11819725913E+03  0.14174236235E+03  0.00000000000E+00 0.  1.
         21    1    1    2  506  502 -0.55817783350E+02 -0.68080347002E+02  0.32197595053E+02  0.93740299302E+02  0.00000000000E+00 0. -1.
<scales pt_clust_3="155.39749" pt_clust_4="14000.00000" pt_clust_5="78.23238" pt_clust_6="95.42113"></scales>
<clustering>
<clus scale="   78.232">  1  5  2 -1</clus>
<clus scale="   95.421">  1  6  2 -1</clus>
<clus scale="  155.397">  2  3  1 -1</clus>
<clus scale="   78.232">  1  3  2 -1</clus>
</clustering>
</event>
<event>
 6    0  0.5563122E+002  0.1109368E+03  0.7546771E-02  0.1258845E+00
         21   -1    0    0  506  501  0.00000000000E+00  0.00000000000E+00  0.21705837929E+03  0.21705837929E+03  0.00000000000E+00 0.  1.
         21   -1    0    0  503  502 -0.00000000000E+00 -0.00000000000E+00 -0.56074332700E+03  0.56074332700E+03  0.00000000000E+00 0.  1.
         21    1    1    2  503  501  0.38821713995E+02  0.10577974164E+03  0.35677707543E+02  0.11819212341E+03  0.00000000000E+00 0.  1.
         21    1    1    2  504  502 -0.83561376083E+01  0.31609041920E+02 -0.47652079153E+03  0.47764110096E+03  0.00000000000E+00 0.  1.
         21    1    1    2  505  504 -0.29199926947E+02 -0.25017562995E+02  0.99397503840E+01  0.39715397890E+02  0.00000000000E+00 0.  1.
         21    1    1    2  506  505 -0.12656494406E+01 -0.11237122057E+03  0.87218385894E+02  0.14225308404E+03  0.00000000000E+00 0.  1.
<scales pt_clust_3="110.93676" pt_clust_4="32.69490" pt_clust_5="36.30101" pt_clust_6="14000.00000"></scales>
<clustering>
<clus scale="   32.695">  2  4  1 -1</clus>
<clus scale="   36.301">  2  5  1 -1</clus>
<clus scale="  110.937">  2  3  1 -1</clus>
<clus scale="  110.937">  1  3  2 -1</clus>
</clustering>
</event>
<event>
 6    0  0.5563122E+002  0.9553104E+02  0.7546771E-02  0.1289985E+00
         21   -1    0    0  506  501  0.00000000000E+00  0.00000000000E+00  0.31765825876E+02  0.31765825876E+02  0.00000000000E+00 0.  1.
         21   -1    0    0  504  502 -0.00000000000E+00 -0.00000000000E+00 -0.17453651993E+04  0.17453651993E+04  0.00000000000E+00 0.  1.
         21    1    1    2  503  502 -0.14704288544E+03  0.10263929110E+02 -0.32580442527E+03  0.35759681475E+03  0.00000000000E+00 0.  1.
         21    1    1    2  504  505  0.87564798770E+02 -0.21824382193E+02 -0.12084466356E+04  0.12118115236E+04  0.00000000000E+00 0.  1.
         21    1    1    2  505  501  0.31538200103E+02  0.34103088851E+02 -0.16067890395E+03  0.16725844944E+03  0.00000000000E+00 0. -1.
         21    1    1    2  506  503  0.27939886569E+02 -0.22542635768E+02 -0.18669408610E+02  0.40464237380E+02  0.00000000000E+00 0.  1.
<scales pt_clust_3="95.53104" pt_clust_4="14000.00000" pt_clust_5="47.17145" pt_clust_6="35.89997"></scales>
<clustering>
<clus scale="   35.900">  1  6  2 -1</clus>
<clus scale="   47.171">  1  5  2 -1</clus>
<clus scale="   95.531">  1  3  2 -1</clus>
<clus scale="   35.900">  1  3  2 -1</clus>
</clustering>
</event>
<event>
 6    0  0.5563122E+002  0.1114020E+03  0.7546771E-02  0.1257995E+00
         21   -1    0    0  505  501  0.00000000000E+00  0.00000000000E+00  0.22927277331E+03  0.22927277331E+03  0.00000000000E+00 0.  1.
         21   -1    0    0  503  502 -0.00000000000E+00 -0.00000000000E+00 -0.46671743948E+03  0.46671743948E+03  0.00000000000E+00 0. -1.
         21    1    1    2  503  506 -0.10162350940E+03  0.59475697501E+02 -0.32640918753E+03  0.34699806046E+03  0.00000000000E+00 0. -1.
         21    1    1    2  504  501  0.12457495393E+03 -0.36966840655E+01  0.11178212468E+03  0.16741513677E+03  0.00000000000E+00 0.  1.
         21    1    1    2  505  502 -0.57351959698E+02  0.44927856147E+02 -0.57225595238E+00  0.72856619576E+02  0.00000000000E+00 0.  1.
         21    1    1    2  506  504  0.34400515161E+02 -0.10070686958E+03 -0.22245347378E+02  0.10872039599E+03  0.00000000000E+00 0. -1.
<scales pt_clust_3="111.40200" pt_clust_4="87.96068" pt_clust_5="72.85437" pt_clust_6="14000.00000"></scales>
<clustering>
<clus scale="   72.854">  1  5  2 -1</clus>
<clus scale="   87.961">  1  4  2 -1</clus>
<clus scale="  111.402">  2  3  1 -1</clus>
<clus scale="   72.854">  1  3  2 -1</clus>
</clustering>
</event>
<event>
 6    0  0.5563122E+002  0.9861579E+02  0.7546771E-02  0.1283234E+00
         21   -1    0    0  504  501  0.00000000000E+00  0.00000000000E+00  0.25438862386E+03  0.25438862386E+03  0.00000000000E+00 0.  1.
         21   -1    0    0  505  502 -0.00000000000E+00 -0.00000000000E+00 -0.81377352513E+03  0.81377352513E+03  0.00000000000E+00 0.  1.
         21    1    1    2  503  501  0.62689407067E+02 -0.39939004171E+02  0.14257337943E+03  0.16078636240E+03  0.00000000000E+00 0.  1.
         21    1    1    2  504  506 -0.26682383609E+02 -0.14465008356E+02  0.49390101898E+02  0.57970408204E+02  0.00000000000E+00 0.  1.
         21    1    1    2  505  503 -0.89858124079E+02  0.41861808508E+02 -0.78058827564E+03  0.78685764249E+03  0.00000000000E+00 0.  1.
         21    1    1    2  506  502  0.53851100622E+02  0.12542204019E+02  0.29239893045E+02  0.62547735891E+02  0.00000000000E+00 0.  1.
<scales pt_clust_3="14000.00000" pt_clust_4="30.35105" pt_clust_5="98.61579" pt_clust_6="48.63470"></scales>
<clustering>
<clus scale="   30.351">  1  4  2 -1</clus>
<clus scale="   48.635">  1  6  2 -1</clus>
<clus scale="   98.616">  2  5  1 -1</clus>
<clus scale="   30.351">  1  3  2 -1</clus>
</clustering>
</event>
<event>
 6    0  0.5563122E+002  0.1237087E+03  0.7546771E-02  0.1237101E+00
         21   -1    0    0  506  501  0.00000000000E+00  0.00000000000E+00  0.13570194649E+04  0.13570194649E+04  0.00000000000E+00 0.  1.
         21   -1    0    0  505  502 -0.00000000000E+00 -0.00000000000E+00 -0.13554009961E+03  0.13554009961E+03  0.00000000000E+00 0.  1.
         21    1    1    2  503  502 -0.36869460167E+02  0.41617547298E+02  0.33845857217E+03  0.34299501806E+03  0.00000000000E+00 0.  1.
         21    1    1    2  504  503 -0.61707065943E+02 -0.10332104544E+02  0.49528452676E+03  0.49922066946E+03  0.00000000000E+00 0.  1.
         21    1    1    2  505  501  0.84259320143E+02 -0.69092482353E+02 -0.10773113962E+03  0.15322990111E+03  0.00000000000E+00 0.  1.
         21    1    1    2  506  504  0.14317205968E+02  0.37807039599E+02  0.49546740593E+03  0.49711397584E+03  0.00000000000E+00 0.  1.
<scales pt_clust_3="54.44096" pt_clust_4="54.44096" pt_clust_5="108.62888" pt_clust_6="40.42715"></scales>
<clustering>
<clus scale="   40.427">  1  6  2 -1</clus>
<clus scale="   54.441">  3  4 -1 -1</clus>
<clus scale="  108.629">  2  5  1 -1</clus>
<clus scale="   40.427">  1  3  2 -1</clus>
</clustering>
</event>
<event>
 6    0  0.5563122E+002  0.1907993E+03  0.7546771E-02  0.1157742E+00
         21   -1    0    0  506  501  0.00000000000E+00  0.00000000000E+00  0.20545468322E+03  0.20545468322E+03  0.00000000000E+00 0. -1.
         21   -1    0    0  505  502 -0.00000000000E+00 -0.00000000000E+00 -0.11438076831E+04  0.11438076831E+04  0.00000000000E+00 0. -1.
         21    1    1    2  503  502  0.52359143793E+02  0.96647120939E+01 -0.52296114861E+03  0.52566457894E+03  0.00000000000E+00 0. -1.
         21    1    1    2  504  503  0.56849704333E+02 -0.36316369989E+02 -0.32107349229E+03  0.32808376226E+03  0.00000000000E+00 0. -1.
         21    1    1    2  505  501 -0.18336949480E+03  0.53890046072E+02  0.14730440186E+03  0.24130291233E+03  0.00000000000E+00 0. -1.
         21    1    1    2  506  504  0.74160646678E+02 -0.27238388177E+02 -0.24162276083E+03  0.25421111277E+03  0.00000000000E+00 0. -1.
<scales pt_clust_3="53.24365" pt_clust_4="32.50405" pt_clust_5="187.52878" pt_clust_6="32.50405"></scales>
<clustering>
<clus scale="   32.504">  4  6 -1 -1</clus>
<clus scale="   53.244">  2  3  1 -1</clus>
<clus scale="  187.529">  1  5  2 -1</clus>
<clus scale="  187.529">  1  3  2 -1</clus>
</clustering>
</event>
<event>
 6    0  0.5563122E+002  0.8290718E+02  0.7546771E-02  0.1320998E+00
         21   -1    0    0  506  501  0.00000000000E+00  0.00000000000E+00  0.69530488144E+03  0.69530488144E+03  0.00000000000E+00 0. -1.
         21   -1    0    0  503  502 -0.00000000000E+00 -0.00000000000E+00 -0.21368957738E+03  0.21368957738E+03  0.00000000000E+00 0.  1.
         21    1    1    2  503  505 -0.48659761460E+02  0.35153236287E+02  0.57051484907E+01  0.60299843499E+02  0.00000000000E+00 0. -1.
         21    1    1    2  504  501  0.80855175349E+02 -0.15778863093E+02  0.60429693431E+03  0.60988631459E+03  0.00000000000E+00 0. -1.
         21    1    1    2  505  504 -0.10857270493E+03  0.80599413771E+01 -0.11165165983E+03  0.15594578563E+03  0.00000000000E+00 0.  1.
         21    1    1    2  506  502  0.76377291045E+02 -0.27434314572E+02 -0.16735118915E+02  0.82862515098E+02  0.00000000000E+00 0.  1.
<scales pt_clust_3="60.02935" pt_clust_4="82.90718" pt_clust_5="14000.00000" pt_clust_6="65.89491"></scales>
<clustering>
<clus scale="   60.029">  2  3  1 -1</clus>
<clus scale="   65.895">  2  6  1 -1</clus>
<clus scale="   82.907">  1  4  2 -1</clus>
<clus scale="   82.907">  1  3  2 -1</clus>
</clustering>
</event>
<event>
 6    0  0.5563122E+002  0.1761958E+03  0.7546771E-02  0.1171536E+00
         21   -1    0    0  505  501  0.00000000000E+00  0.00000000000E+00  0.37043648120E+03  0.37043648120E+03  0.00000000000E+00 0. -1.
         21   -1    0    0  506  502 -0.00000000000E+00 -0.00000000000E+00 -0.15009799579E+04  0.15009799579E+04  0.00000000000E+00 0. -1.
         21    1    1    2  503  501  0.64232084701E+02  0.42808553263E+02  0.13075845844E+03  0.15184237679E+03  0.00000000000E+00 0. -1.
         21    1    1    2  504  502  0.16209551985E+03 -0.68364613145E+02  0.14181250444E+02  0.17649301898E+03  0.00000000000E+00 0. -1.
         21    1    1    2  505  504 -0.49826427771E+02  0.15661780558E+02  0.12291590332E+03  0.13355254982E+03  0.00000000000E+00 0. -1.
         21    1    1    2  506  503 -0.17650117678E+03  0.98942793234E+01 -0.13983990889E+04  0.14095284935E+04  0.00000000000E+00 0. -1.
<scales pt_clust_3="62.72809" pt_clust_4="176.19578" pt_clust_5="52.22992" pt_clust_6="14000.00000"></scales>
<clustering>
<clus scale="   52.230">  1  5  2 -1</clus>
<clus scale="   62.728">  1  3  2 -1</clus>
<clus scale="  176.196">  1  4  2 -1</clus>
<clus scale="   52.230">  1  3  2 -1</clus>
</clustering>
</event>
<event>
 6    0  0.5563122E+002  0.1178787E+03  0.7546771E-02  0.1246638E+00
         21   -1    0    0  506  501  0.00000000000E+00  0.00000000000E+00  0.49003908557E+03  0.49003908557E+03  0.00000000000E+00 0. -1.
         21   -1    0    0  505  502 -0.00000000000E+00 -0.00000000000E+00 -0.93099891141E+02  0.93099891141E+02  0.00000000000E+00 0. -1.
         21    1    1    2  503  504  0.66026775388E+01  0.42375212115E+02 -0.20298953334E+01  0.42934536535E+02  0.00000000000E+00 0. -1.
         21    1    1    2  504  502 -0.46881487609E+02  0.65460644724E+02 -0.32864774483E+02  0.86965874283E+02  0.00000000000E+00 0. -1.
         21    1    1    2  505  501  0.50834850269E+02 -0.40509715673E+02  0.15374916036E+03  0.16692520294E+03  0.00000000000E+00 0. -1.
         21    1    1    2  506  503 -0.10556040199E+02 -0.67326141165E+02  0.27808470389E+03  0.28631336295E+03  0.00000000000E+00 0. -1.
<scales pt_clust_3="35.79495" pt_clust_4="35.79495" pt_clust_5="65.00169" pt_clust_6="107.19077"></scales>
<clustering>
<clus scale="   35.795">  3  4 -1 -1</clus>
<clus scale="   65.002">  1  5  2 -1</clus>
<clus scale="  107.191">  1  6  2 -1</clus>
<clus scale="   65.002">  1  3  2 -1</clus>
</clustering>
</event>
<event>
 6    0  0.5563122E+002  0.1983532E+03  0.7546771E-02  0.1151136E+00
         21   -1    0    0  504  501  0.00000000000E+00  0.00000000000E+00  0.85564079573E+03  0.85564079573E+03  0.00000000000E+00 0. -1.
         21   -1    0    0  506  502 -0.00000000000E+00 -0.00000000000E+00 -0.15793203661E+03  0.15793203661E+03  0.00000000000E+00 0. -1.
         21    1    1    2  503  502  0.10569702322E+03 -0.27114700309E+02  0.29718431490E+03  0.31658424583E+03  0.00000000000E+00 0. -1.
         21    1    1    2  504  503  0.95008722560E+02  0.62908335797E+00  0.44402404237E+03  0.45407532779E+03  0.00000000000E+00 0.  1.
         21    1    1    2  505  501 -0.13792615855E+03  0.22207198551E+02  0.33310534247E+02  0.14361885869E+03  0.00000000000E+00 0. -1.
         21    1    1    2  506  505 -0.62779587226E+02  0.42784184000E+01 -0.76810132391E+02  0.99294400014E+02  0.00000000000E+00 0. -1.
<scales pt_clust_3="55.53459" pt_clust_4="55.53459" pt_clust_5="189.21396" pt_clust_6="62.92521"></scales>
<clustering>
<clus scale="   55.535">  3  4 -1 -1</clus>
<clus scale="   62.925">  2  6  1 -1</clus>
<clus scale="  189.214">  2  5  1 -1</clus>
<clus scale="  198.353">  1  3  2 -1</clus>
</clustering>
</event>
<event>
 6    0  0.5563122E+002  0.7758872E+02  0.7546771E-02  0.1336037E+00
         21   -1    0    0  503  501  0.00000000000E+00  0.00000000000E+00  0.33000146293E+03  0.33000146293E+03  0.00000000000E+00 0. -1.
         21   -1    0    0  505  502 -0.00000000000E+00 -0.00000000000E+00 -0.43830635526E+03  0.43830635526E+03  0.00000000000E+00 0. -1.
         21    1    1    2  503  504 -0.51425418313E+02  0.11302381212E+02  0.21102690638E+03  0.21749637396E+03  0.00000000000E+00 0. -1.
         21    1    1    2  504  506 -0.68232361323E+02  0.23372868304E+02  0.42645152936E+02  0.83788753263E+02  0.00000000000E+00 0. -1.
         21    1    1    2  505  501  0.79367551801E+02 -0.36044506726E+02  0.14523166960E+02  0.88370453901E+02  0.00000000000E+00 0. -1.
         21    1    1    2  506  502  0.40290227834E+02  0.13692572106E+01 -0.37650011861E+03  0.37865223707E+03  0.00000000000E+00 0. -1.
<scales pt_clust_3="50.57526" pt_clust_4="14000.00000" pt_clust_5="77.58872" pt_clust_6="40.31349"></scales>
<clustering>
<clus scale="   40.313">  2  6  1 -1</clus>
<clus scale="   50.575">  1  3  2 -1</clus>
<clus scale="   77.589">  1  5  2 -1</clus>
<clus scale="   50.575">  1  3  2 -1</clus>
</clustering>
</event>
<event>
 6    0  0.5563122E+002  0.6693235E+02  0.7546771E-02  0.1370847E+00
         21   -1    0    0  505  501  0.00000000000E+00  0.00000000000E+00  0.43839048841E+03  0.43839048841E+03  0.00000000000E+00 0. -1.
         21   -1    0    0  506  502 -0.00000000000E+00 -0.00000000000E+00 -0.17304309313E+03  0.17304309313E+03  0.00000000000E+00 0.  1.
         21    1    1    2  503  502  0.83797331445E+02  0.68845610838E+02 -0.10424190021E+03  0.15042634294E+03  0.00000000000E+00 0.  1.
         21    1    1    2  504  501 -0.35505169156E+02 -0.88691812668E+02  0.34539080216E+03  0.35835968089E+03  0.00000000000E+00 0. -1.
         21    1    1    2  505  503  0.83327172161E+01  0.37072206399E+02  0.20906615458E+02  0.43368989306E+02  0.00000000000E+00 0.  1.
         21    1    1    2  506  504 -0.56624879505E+02 -0.17226004569E+02  0.32918778672E+01  0.59278568406E+02  0.00000000000E+00 0. -1.
<scales pt_clust_3="66.93235" pt_clust_4="14000.00000" pt_clust_5="37.99714" pt_clust_6="57.79832"></scales>
<clustering>
<clus scale="   37.997">  1  5  2 -1</clus>
<clus scale="   57.798">  2  6  1 -1</clus>
<clus scale="   66.932">  2  3  1 -1</clus>
<clus scale="   37.997">  1  3  2 -1</clus>
</clustering>
</event>
<event>
 6    0  0.5563122E+002  0.8649317E+02  0.7546771E-02  0.1311573E+00
         21   -1    0    0  503  501  0.00000000000E+00  0.00000000000E+00  0.46155191992E+02  0.46155191992E+02  0.00000000000E+00 0.  1.
         21   -1    0    0  504  502 -0.00000000000E+00 -0.00000000000E+00 -0.72860482607E+03  0.72860482607E+03  0.00000000000E+00 0.  1.
         21    1    1    2  503  506 -0.10779525572E+03 -0.19893218221E+02 -0.16221621365E+03  0.19577961400E+03  0.00000000000E+00 0.  1.
         21    1    1    2  504  505  0.67125237119E+02  0.97638086363E+01 -0.12889206032E+03  0.14565127061E+03  0.00000000000E+00 0.  1.
         21    1    1    2  505  501  0.72753438215E+01  0.59027385957E+02 -0.28975061840E+02  0.66156761780E+02  0.00000000000E+00 0.  1.
         21    1    1    2  506  502  0.33394674782E+02 -0.48897976372E+02 -0.36236629827E+03  0.36717237167E+03  0.00000000000E+00 0.  1.
<scales pt_clust_3="86.49317" pt_clust_4="14000.00000" pt_clust_5="53.90669" pt_clust_6="59.21331"></scales>
<clustering>
<clus scale="   59.213">  2  6  1 -1</clus>
<clus scale="   53.907">  1  5  2 -1</clus>
<clus scale="   86.493">  1  3  2 -1</clus>
<clus scale="   53.907">  1  3  2 -1</clus>
</clustering>
</event>
<event>
 6    0  0.5563122E+002  0.1064504E+03  0.7546771E-02  0.1267288E+00
         21   -1    0    0  505  501  0.00000000000E+00  0.00000000000E+00  0.25349285866E+03  0.25349285866E+03  0.00000000000E+00 0. -1.
         21   -1    0    0  506  502 -0.00000000000E+00 -0.00000000000E+00 -0.15208323980E+03  0.15208323980E+03  0.00000000000E+00 0. -1.
         21    1    1    2  503  502 -0.35149447379E+02 -0.94815732212E+02 -0.68859565998E+02  0.12234028999E+03  0.00000000000E+00 0. -1.
         21    1    1    2  504  501 -0.16119680492E+02 -0.43844560291E+02  0.29088752632E+02  0.55030401561E+02  0.00000000000E+00 0. -1.
         21    1    1    2  505  503  0.35930326871E+02 -0.17492089446E+01  0.15612024305E+02  0.39214581776E+02  0.00000000000E+00 0.  1.
         21    1    1    2  506  504  0.15338800999E+02  0.14040950145E+03  0.12556840793E+03  0.18899082513E+03  0.00000000000E+00 0. -1.
<scales pt_clust_3="106.45041" pt_clust_4="45.16648" pt_clust_5="35.97288" pt_clust_6="14000.00000"></scales>
<clustering>
<clus scale="   35.973">  1  5  2 -1</clus>
<clus scale="   45.166">  1  4  2 -1</clus>
<clus scale="  106.450">  2  3  1 -1</clus>
<clus scale="   35.973">  1  3  2 -1</clus>
</clustering>
</event>
<event>
 6    0  0.5563122E+002  0.9526538E+02  0.7546771E-02  0.1290580E+00
         21   -1    0    0  506  501  0.00000000000E+00  0.00000000000E+00  0.33911525288E+03  0.33911525288E+03  0.00000000000E+00 0. -1.
         21   -1    0    0  503  502 -0.00000000000E+00 -0.00000000000E+00 -0.25059716939E+03  0.25059716939E+03  0.00000000000E+00 0. -1.
         21    1    1    2  503  505  0.70621520991E+02 -0.50112907151E+02  0.61338131582E+01  0.86812017337E+02  0.00000000000E+00 0. -1.
         21    1    1    2  504  502 -0.89593461076E+01  0.36339523773E+02 -0.16341442982E+03  0.16764577760E+03  0.00000000000E+00 0. -1.
         21    1    1    2  505  501 -0.82257099683E+02 -0.64589682289E+02  0.23005919553E+03  0.25271583044E+03  0.00000000000E+00 0. -1.
         21    1    1    2  506  504  0.20594924799E+02  0.78363065667E+02  0.15739504620E+02  0.82538796902E+02  0.00000000000E+00 0. -1.
<scales pt_clust_3="74.07093" pt_clust_4="37.42768" pt_clust_5="95.26538" pt_clust_6="14000.00000"></scales>
<clustering>
<clus scale="   37.428">  2  4  1 -1</clus>
<clus scale="   74.071">  2  3  1 -1</clus>
<clus scale="   95.265">  1  5  2 -1</clus>
<clus scale="   95.265">  1  3  2 -1</clus>
</clustering>
</event>
<event>
 6    0  0.5563122E+002  0.1393393E+03  0.7546771E-02  0.1214221E+00
         21   -1    0    0  504  501  0.00000000000E+00  0.00000000000E+00  0.43134128150E+02  0.43134128150E+02  0.00000000000E+00 0. -1.
         21   -1    0    0  503  502 -0.00000000000E+00 -0.00000000000E+00 -0.11201804230E+04  0.11201804230E+04  0.00000000000E+00 0. -1.
         21    1    1    2  503  501  0.61218174637E+02 -0.96248548345E+01 -0.27201332977E+02  0.67677287566E+02  0.00000000000E+00 0. -1.
         21    1    1    2  504  506 -0.79033603318E+02  0.11840151655E+02 -0.21144683028E+03  0.22604482229E+03  0.00000000000E+00 0. -1.
         21    1    1    2  505  502  0.10496617878E+03 -0.55739858112E+02 -0.57243668362E+03  0.58464398331E+03  0.00000000000E+00 0. -1.
         21    1    1    2  506  505 -0.87150750099E+02  0.53524561292E+02 -0.26596144799E+03  0.28494845801E+03  0.00000000000E+00 0. -1.
<scales pt_clust_3="61.97018" pt_clust_4="31.94114" pt_clust_5="134.57255" pt_clust_6="31.94114"></scales>
<clustering>
<clus scale="   31.941">  4  6 -1 -1</clus>
<clus scale="   61.970">  1  3  2 -1</clus>
<clus scale="  134.573">  2  5  1 -1</clus>
<clus scale="   61.970">  1  3  2 -1</clus>
</clustering>
</event>
<event>
 6    0  0.5563122E+002  0.1516565E+03  0.7546771E-02  0.1198452E+00
         21   -1    0    0  503  501  0.00000000000E+00  0.00000000000E+00  0.33799137651E+02  0.33799137651E+02  0.00000000000E+00 0. -1.
         21   -1    0    0  504  502 -0.00000000000E+00 -0.00000000000E+00 -0.76895884959E+03  0.76895884959E+03  0.00000000000E+00 0. -1.
         21    1    1    2  503  506  0.62200291315E+02  0.67945068791E+02 -0.92375270026E+02  0.13045535299E+03  0.00000000000E+00 0. -1.
         21    1    1    2  504  505 -0.61365934680E+02 -0.25288457478E+02 -0.26555327213E+03  0.27372216636E+03  0.00000000000E+00 0. -1.
         21    1    1    2  505  501 -0.36783778801E+02 -0.72926941327E+02 -0.24303141913E+03  0.25638965626E+03  0.00000000000E+00 0.  1.
         21    1    1    2  506  502  0.35949422166E+02  0.30270330014E+02 -0.13419975065E+03  0.14219081162E+03  0.00000000000E+00 0. -1.
<scales pt_clust_3="43.56510" pt_clust_4="50.03246" pt_clust_5="149.53313" pt_clust_6="43.56510"></scales>
<clustering>
<clus scale="   43.565">  3  6 -1 -1</clus>
<clus scale="   50.032">  4  5 -1 -1</clus>
<clus scale="  149.533">  2  4  1 -1</clus>
<clus scale="  151.656">  1  3  2 -1</clus>
</clustering>
</event>
<event>
 6    0  0.5563122E+002  0.1079012E+03  0.7546771E-02  0.1264507E+00
         21   -1    0    0  504  501  0.00000000000E+00  0.00000000000E+00  0.91300115717E+03  0.91300115717E+03  0.00000000000E+00 0.  1.
         21   -1    0    0  506  502 -0.00000000000E+00 -0.00000000000E+00 -0.29850417315E+03  0.29850417315E+03  0.00000000000E+00 0.  1.
         21    1    1    2  503  502  0.59303678896E+02 -0.75801792665E+02 -0.24291577791E+03  0.26128703232E+03  0.00000000000E+00 0.  1.
         21    1    1    2  504  505 -0.29077059811E+02  0.35732263309E+02  0.44070835243E+02  0.63753498472E+02  0.00000000000E+00 0.  1.
         21    1    1    2  505  503 -0.55768080016E+02  0.67783667249E+02  0.17217937731E+02  0.89449212820E+02  0.00000000000E+00 0.  1.
         21    1    1    2  506  501  0.25541460931E+02 -0.27714137892E+02  0.79612398895E+03  0.79701558670E+03  0.00000000000E+00 0.  1.
<scales pt_clust_3="99.20762" pt_clust_4="30.74037" pt_clust_5="30.74037" pt_clust_6="37.68872"></scales>
<clustering>
<clus scale="   30.740">  4  5 -1 -1</clus>
<clus scale="   37.689">  1  6  2 -1</clus>
<clus scale="   99.208">  2  3  1 -1</clus>
<clus scale="   37.689">  1  3  2 -1</clus>
</clustering>
</event>
<event>
 6    0  0.5563122E+002  0.2427744E+03  0.7546771E-02  0.1117958E+00
         21   -1    0    0  504  501  0.00000000000E+00  0.00000000000E+00  0.34663825729E+02  0.34663825729E+02  0.00000000000E+00 0.  1.
         21   -1    0    0  505  502 -0.00000000000E+00 -0.00000000000E+00 -0.20401569274E+04  0.20401569274E+04  0.00000000000E+00 0.  1.
         21    1    1    2  503  501 -0.55307391067E+02 -0.40294507759E+02 -0.11738845236E+03  0.13587716368E+03  0.00000000000E+00 0.  1.
         21    1    1    2  504  506  0.42242709722E+02 -0.68443131082E+01 -0.16894752495E+03  0.17428298062E+03  0.00000000000E+00 0.  1.
         21    1    1    2  505  503 -0.16773279563E+03 -0.28323474164E+02 -0.46183899089E+03  0.49217046176E+03  0.00000000000E+00 0.  1.
         21    1    1    2  506  502  0.18079747697E+03  0.75462295031E+02 -0.12573181335E+04  0.12724901471E+04  0.00000000000E+00 0.  1.
<scales pt_clust_3="42.47112" pt_clust_4="31.22408" pt_clust_5="42.47112" pt_clust_6="242.73186"></scales>
<clustering>
<clus scale="   31.224">  4  6 -1 -1</clus>
<clus scale="   42.471">  3  5 -1 -1</clus>
<clus scale="  242.732">  2  4  1 -1</clus>
<clus scale="  242.774">  1  3  2 -1</clus>
</clustering>
</event>
<event>
 6    0  0.5563122E+002  0.1510938E+03  0.7546771E-02  0.1199135E+00
         21   -1    0    0  503  501  0.00000000000E+00  0.00000000000E+00  0.42080982248E+03  0.42080982248E+03  0.00000000000E+00 0.  1.
         21   -1    0    0  504  502 -0.00000000000E+00 -0.00000000000E+00 -0.19454113357E+03  0.19454113357E+03  0.00000000000E+00 0. -1.
         21    1    1    2  503  505  0.49632037812E+02  0.96460892719E+02 -0.14739660966E+02  0.10947739770E+03  0.00000000000E+00 0.  1.
         21    1    1    2  504  506 -0.25273890245E+02 -0.26858002716E+02  0.38699632515E+02  0.53458239728E+02  0.00000000000E+00 0.  1.
         21    1    1    2  505  502  0.21936700348E+02  0.32243095673E+02 -0.11210327664E+03  0.11869279959E+03  0.00000000000E+00 0. -1.
         21    1    1    2  506  501 -0.46294847914E+02 -0.10184598568E+03  0.31441199400E+03  0.33372251903E+03  0.00000000000E+00 0.  1.
<scales pt_clust_3="138.90654" pt_clust_4="34.13363" pt_clust_5="38.99790" pt_clust_6="34.13363"></scales>
<clustering>
<clus scale="   34.134">  4  6 -1 -1</clus>
<clus scale="   38.998">  2  5  1 -1</clus>
<clus scale="  138.907">  2  3  1 -1</clus>
<clus scale="  151.094">  1  3  2 -1</clus>
</clustering>
</event>
<event>
 6    0  0.5563122E+002  0.1688822E+03  0.7546771E-02  0.1179019E+00
         21   -1    0    0  505  501  0.00000000000E+00  0.00000000000E+00  0.52476975265E+03  0.52476975265E+03  0.00000000000E+00 0.  1.
         21   -1    0    0  504  502 -0.00000000000E+00 -0.00000000000E+00 -0.20671566882E+03  0.20671566882E+03  0.00000000000E+00 0.  1.
         21    1    1    2  503  502 -0.56287752628E+02 -0.83687699607E+01 -0.11880685852E+02  0.58133450808E+02  0.00000000000E+00 0. -1.
         21    1    1    2  504  501  0.54206771361E+02 -0.62364005337E+02  0.35368187702E+02  0.89880765041E+02  0.00000000000E+00 0. -1.
         21    1    1    2  505  506  0.15561584020E+03  0.19795692349E+02  0.37230027712E+03  0.40399957364E+03  0.00000000000E+00 0.  1.
         21    1    1    2  506  503 -0.15353485893E+03  0.50937082949E+02 -0.77733695148E+02  0.17947163198E+03  0.00000000000E+00 0.  1.
<scales pt_clust_3="30.17238" pt_clust_4="82.62955" pt_clust_5="161.03840" pt_clust_6="30.17238"></scales>
<clustering>
<clus scale="   30.172">  3  6 -1 -1</clus>
<clus scale="   82.630">  2  4  1 -1</clus>
<clus scale="  161.038">  1  5  2 -1</clus>
<clus scale="  161.038">  1  3  2 -1</clus>
</clustering>
</event>
<event>
 6    0  0.5563122E+002  0.6718886E+02  0.7546771E-02  0.1369922E+00
         21   -1    0    0  505  501  0.00000000000E+00  0.00000000000E+00  0.21094890103E+02  0.21094890103E+02  0.00000000000E+00 0. -1.
         21   -1    0    0  506  502 -0.00000000000E+00 -0.00000000000E+00 -0.27574664475E+04  0.27574664475E+04  0.00000000000E+00 0.  1.
         21    1    1    2  503  502  0.20087615088E+02 -0.25548945434E+02 -0.20344004674E+03  0.20601969204E+03  0.00000000000E+00 0. -1.
         21    1    1    2  504  501  0.16541782539E+00 -0.55516027228E+02 -0.11616995029E+03  0.12875369506E+03  0.00000000000E+00 0. -1.
         21    1    1    2  505  503  0.12036555261E+02  0.11828818012E+03 -0.25385411333E+03  0.28031925205E+03  0.00000000000E+00 0. -1.
         21    1    1    2  506  504 -0.32289588175E+02 -0.37223207455E+02 -0.21629074470E+04  0.21634686984E+04  0.00000000000E+00 0.  1.
<scales pt_clust_3="32.50017" pt_clust_4="56.75291" pt_clust_5="14000.00000" pt_clust_6="67.18886"></scales>
<clustering>
<clus scale="   32.500">  2  3  1 -1</clus>
<clus scale="   56.753">  1  4  2 -1</clus>
<clus scale="   67.189">  2  6  1 -1</clus>
<clus scale="   56.753">  1  3  2 -1</clus>
</clustering>
</event>
<event>
 6    0  0.5563122E+002  0.1887469E+03  0.7546771E-02  0.1159596E+00
         21   -1    0    0  506  501  0.00000000000E+00  0.00000000000E+00  0.33552422540E+03  0.33552422540E+03  0.00000000000E+00 0. -1.
         21   -1    0    0  503  502 -0.00000000000E+00 -0.00000000000E+00 -0.27839342805E+03  0.27839342805E+03  0.00000000000E+00 0. -1.
         21    1    1    2  503  504  0.49236144418E+02  0.75045651453E+02  0.58674772507E+01  0.89947067815E+02  0.00000000000E+00 0.  1.
         21    1    1    2  504  501  0.11205470479E+03 -0.17827093035E+03  0.17888604289E+03  0.27629150876E+03  0.00000000000E+00 0. -1.
         21    1    1    2  505  502 -0.46637651254E+02  0.39591571960E+02  0.47412299181E+01  0.61359940889E+02  0.00000000000E+00 0.  1.
         21    1    1    2  506  505 -0.11465319795E+03  0.63633706934E+02 -0.13236395271E+03  0.18631913599E+03  0.00000000000E+00 0. -1.
<scales pt_clust_3="91.58994" pt_clust_4="14000.00000" pt_clust_5="61.17649" pt_clust_6="188.74689"></scales>
<clustering>
<clus scale="   61.176">  2  5  1 -1</clus>
<clus scale="   91.590">  2  3  1 -1</clus>
<clus scale="  188.747">  2  6  1 -1</clus>
<clus scale="  188.747">  1  3  2 -1</clus>
</clustering>
</event>
<event>
 6    0  0.5563122E+002  0.2340461E+03  0.7546771E-02  0.1123824E+00
         21   -1    0    0  503  501  0.00000000000E+00  0.00000000000E+00  0.85963051990E+03  0.85963051990E+03  0.00000000000E+00 0. -1.
         21   -1    0    0  505  502 -0.00000000000E+00 -0.00000000000E+00 -0.14552632381E+03  0.14552632381E+03  0.00000000000E+00 0. -1.
         21    1    1    2  503  504  0.15687721968E+02 -0.86741392373E+02  0.24973442709E+03  0.26483477462E+03  0.00000000000E+00 0. -1.
         21    1    1    2  504  502  0.24072982484E+03  0.44673293076E+02  0.13789742703E+03  0.28100222786E+03  0.00000000000E+00 0. -1.
         21    1    1    2  505  506 -0.22745408993E+03  0.31987085684E+02  0.13713628533E+03  0.26751616293E+03  0.00000000000E+00 0. -1.
         21    1    1    2  506  501 -0.28963456873E+02  0.10081013614E+02  0.18933605663E+03  0.19180367830E+03  0.00000000000E+00 0.  1.
<scales pt_clust_3="82.98960" pt_clust_4="234.04606" pt_clust_5="14000.00000" pt_clust_6="30.66771"></scales>
<clustering>
<clus scale="   30.668">  1  6  2 -1</clus>
<clus scale="   82.990">  1  3  2 -1</clus>
<clus scale="  234.046">  1  4  2 -1</clus>
<clus scale="   30.668">  1  3  2 -1</clus>
</clustering>
</event>
<event>
 6    0  0.5563122E+002  0.7769026E+02  0.7546771E-02  0.1335737E+00
         21   -1    0    0  503  501  0.00000000000E+00  0.00000000000E+00  0.10185855788E+03  0.10185855788E+03  0.00000000000E+00 0. -1.
         21   -1    0    0  505  502 -0.00000000000E+00 -0.00000000000E+00 -0.12573491538E+04  0.12573491538E+04  0.00000000000E+00 0. -1.
         21    1    1    2  503  504 -0.44245097936E+02 -0.27928767386E+02 -0.45019881058E+02  0.69024882685E+02  0.00000000000E+00 0. -1.
         21    1    1    2  504  502  0.49887125931E+02  0.19457657468E+02 -0.11316342637E+04  0.11329004513E+04  0.00000000000E+00 0. -1.
         21    1    1    2  505  506  0.42441585339E+02  0.60804280535E+02 -0.17765341131E+02  0.76249957659E+02  0.00000000000E+00 0. -1.
         21    1    1    2  506  501 -0.48083613333E+02 -0.52333170616E+02  0.38928889995E+02  0.81032420020E+02  0.00000000000E+00 0. -1.
<scales pt_clust_3="52.32251" pt_clust_4="53.18553" pt_clust_5="14000.00000" pt_clust_6="77.69026"></scales>
<clustering>
<clus scale="   52.323">  1  3  2 -1</clus>
<clus scale="   53.186">  2  4  1 -1</clus>
<clus scale="   77.690">  1  6  2 -1</clus>
<clus scale="   52.323">  1  3  2 -1</clus>
</clustering>
</event>
<event>
 6    0  0.5563122E+002  0.1067539E+03  0.7546771E-02  0.1266702E+00
         21   -1    0    0  505  501  0.00000000000E+00  0.00000000000E+00  0.57550964961E+03  0.57550964961E+03  0.00000000000E+00 0. -1.
         21   -1    0    0  504  502 -0.00000000000E+00 -0.00000000000E+00 -0.83543428045E+02  0.83543428045E+02  0.00000000000E+00 0. -1.
         21    1    1    2  503  506  0.43742710615E+02  0.30916153835E+02  0.16953644056E+03  0.17779718214E+03  0.00000000000E+00 0. -1.
         21    1    1    2  504  501 -0.79300357962E+02  0.47146750621E+02  0.11435055916E+03  0.14692655733E+03  0.00000000000E+00 0. -1.
         21    1    1    2  505  503 -0.33346481947E+02  0.13825333353E+02  0.21619672891E+03  0.21918976548E+03  0.00000000000E+00 0. -1.
         21    1    1    2  506  502  0.68904129294E+02 -0.91888237809E+02 -0.81175070692E+01  0.11513957270E+03  0.00000000000E+00 0. -1.
<scales pt_clust_3="46.63881" pt_clust_4="14000.00000" pt_clust_5="36.09886" pt_clust_6="106.75387"></scales>
<clustering>
<clus scale="   36.099">  1  5  2 -1</clus>
<clus scale="   46.639">  1  3  2 -1</clus>
<clus scale="  106.754">  2  6  1 -1</clus>
<clus scale="   36.099">  1  3  2 -1</clus>
</clustering>
</event>
<event>
 6    0  0.5563122E+002  0.1364266E+03  0.7546771E-02  0.1218220E+00
         21   -1    0    0  506  501  0.00000000000E+00  0.00000000000E+00  0.31394971033E+03  0.31394971033E+03  0.00000000000E+00 0. -1.
         21   -1    0    0  504  502 -0.00000000000E+00 -0.00000000000E+00 -0.55446471727E+03  0.55446471727E+03  0.00000000000E+00 0. -1.
         21    1    1    2  503  502  0.37131890564E+02 -0.19690213212E+02 -0.32033878955E+03  0.32308423342E+03  0.00000000000E+00 0. -1.
         21    1    1    2  504  501  0.34143953668E+02  0.54056864968E+01 -0.22309368811E+02  0.41142908931E+02  0.00000000000E+00 0. -1.
         21    1    1    2  505  503  0.53307712683E+02 -0.22607798710E+02 -0.18241137571E+03  0.19138112442E+03  0.00000000000E+00 0. -1.
         21    1    1    2  506  505 -0.12458355691E+03  0.36892325425E+02  0.28454452714E+03  0.31280616083E+03  0.00000000000E+00 0. -1.
<scales pt_clust_3="41.39008" pt_clust_4="34.56922" pt_clust_5="41.39008" pt_clust_6="129.08828"></scales>
<clustering>
<clus scale="   34.569">  2  4  1 -1</clus>
<clus scale="   41.390">  3  5 -1 -1</clus>
<clus scale="  129.088">  1  6  2 -1</clus>
<clus scale="  129.088">  1  3  2 -1</clus>
</clustering>
</event>
<event>
 6    0  0.5563122E+002  0.5464426E+02  0.7546771E-02  0.1421789E+00
         21   -1    0    0  505  501  0.00000000000E+00  0.00000000000E+00  0.36896797415E+03  0.36896797415E+03  0.00000000000E+00 0. -1.
         21   -1    0    0  504  502 -0.00000000000E+00 -0.00000000000E+00 -0.32210102957E+03  0.32210102957E+03  0.00000000000E+00 0.  1.
         21    1    1    2  503  502 -0.28128188613E+02  0.29106332364E+02 -0.84508150574E+02  0.93701660027E+02  0.00000000000E+00 0.  1.
         21    1    1    2  504  506  0.22138292808E+00  0.38386457526E+02 -0.22764706468E+02  0.44629597717E+02  0.00000000000E+00 0.  1.
         21    1    1    2  505  503  0.55144805045E+02 -0.11395090933E+03 -0.17679770589E+03  0.21744697761E+03  0.00000000000E+00 0.  1.
         21    1    1    2  506  501 -0.27237999359E+02  0.46458119444E+02  0.33093750751E+03  0.33529076837E+03  0.00000000000E+00 0. -1.
<scales pt_clust_3="49.65459" pt_clust_4="38.38710" pt_clust_5="14000.00000" pt_clust_6="54.64426"></scales>
<clustering>
<clus scale="   38.387">  2  4  1 -1</clus>
<clus scale="   49.655">  2  3  1 -1</clus>
<clus scale="   54.644">  1  6  2 -1</clus>
<clus scale="   54.644">  1  3  2 -1</clus>
</clustering>
</event>
<event>
 6    0  0.5563122E+002  0.6145793E+02  0.7546771E-02  0.1391813E+00
         21   -1    0    0  505  501  0.00000000000E+00  0.00000000000E+00  0.48623223495E+03  0.48623223495E+03  0.00000000000E+00 0.  1.
         21   -1    0    0  503  502 -0.00000000000E+00 -0.00000000000E+00 -0.34269507148E+03  0.34269507148E+03  0.00000000000E+00 0.  1.
         21    1    1    2  503  504  0.78336134995E+02 -0.63644722145E+02 -0.18858611796E+03  0.21389699528E+03  0.00000000000E+00 0.  1.
         21    1    1    2  504  501 -0.40278565974E+02  0.45886689290E+02  0.43763362516E+03  0.44187231301E+03  0.00000000000E+00 0.  1.
         21    1    1    2  505  506 -0.50242870029E+02 -0.18884982373E+02  0.70704808926E+01  0.54138528315E+02  0.00000000000E+00 0.  1.
         21    1    1    2  506  502  0.12185301008E+02  0.36643015228E+02 -0.11258082462E+03  0.11901946983E+03  0.00000000000E+00 0.  1.
<scales pt_clust_3="61.45793" pt_clust_4="14000.00000" pt_clust_5="51.24916" pt_clust_6="38.61596"></scales>
<clustering>
<clus scale="   38.616">  2  6  1 -1</clus>
<clus scale="   51.249">  2  5  1 -1</clus>
<clus scale="   61.458">  2  3  1 -1</clus>
<clus scale="   61.458">  1  3  2 -1</clus>
</clustering>
</event>
<event>
 6    0  0.5563122E+002  0.1157772E+03  0.7546771E-02  0.1250231E+00
         21   -1    0    0  503  501  0.00000000000E+00  0.00000000000E+00  0.33962487773E+02  0.33962487773E+02  0.00000000000E+00 0. -1.
         21   -1    0    0  506  502 -0.00000000000E+00 -0.00000000000E+00 -0.55736631180E+03  0.55736631180E+03  0.00000000000E+00 0. -1.
         21    1    1    2  503  504  0.20536227838E+02 -0.54344953233E+02 -0.97437333236E+02  0.11344225185E+03  0.00000000000E+00 0. -1.
         21    1    1    2  504  502  0.38746150992E+02 -0.50830440816E+02 -0.21543096826E+03  0.22471203799E+03  0.00000000000E+00 0. -1.
         21    1    1    2  505  501 -0.43651776872E+02  0.12161828663E+02 -0.82831513166E+02  0.94416350670E+02  0.00000000000E+00 0. -1.
         21    1    1    2  506  505 -0.15630601958E+02  0.93013565386E+02 -0.12770400936E+03  0.15875815907E+03  0.00000000000E+00 0. -1.
<scales pt_clust_3="41.39860" pt_clust_4="41.39860" pt_clust_5="45.31432" pt_clust_6="107.32600"></scales>
<clustering>
<clus scale="   41.399">  3  4 -1 -1</clus>
<clus scale="   45.314">  1  5  2 -1</clus>
<clus scale="  107.326">  1  6  2 -1</clus>
<clus scale="   45.314">  1  3  2 -1</clus>
</clustering>
</event>
<event>
 6    0  0.5563122E+002  0.9084291E+02  0.7546771E-02  0.1300823E+00
         21   -1    0    0  503  501  0.00000000000E+00  0.00000000000E+00  0.50346298466E+03  0.50346298466E+03  0.00000000000E+00 0. -1.
         21   -1    0    0  504  502 -0.00000000000E+00 -0.00000000000E+00 -0.14947274613E+04  0.14947274613E+04  0.00000000000E+00 0. -1.
         21    1    1    2  503  506 -0.10256184206E+01  0.79403414497E+02  0.11469374695E+03  0.13950128930E+03  0.00000000000E+00 0.  1.
         21    1    1    2  504  505  0.32359879208E+01 -0.74397674590E+02 -0.14636104730E+04  0.14655037026E+04  0.00000000000E+00 0. -1.
         21    1    1    2  505  501 -0.21674815185E+02 -0.50473636919E+02  0.33377419078E+03  0.33826409219E+03  0.00000000000E+00 0. -1.
         21    1    1    2  506  502  0.19464445685E+02  0.45467897012E+02  0.23878058649E+02  0.54921361867E+02  0.00000000000E+00 0.  1.
<scales pt_clust_3="40.74261" pt_clust_4="74.74789" pt_clust_5="54.93073" pt_clust_6="40.74261"></scales>
<clustering>
<clus scale="   40.743">  3  6 -1 -1</clus>
<clus scale="   54.931">  1  5  2 -1</clus>
<clus scale="   74.748">  2  4  1 -1</clus>
<clus scale="   54.931">  1  3  2 -1</clus>
</clustering>
</event>
<event>
 6    0  0.5563122E+002  0.8474267E+02  0.7546771E-02  0.1316107E+00
         21   -1    0    0  505  501  0.00000000000E+00  0.00000000000E+00  0.15592343207E+04  0.15592343207E+04  0.00000000000E+00 0. -1.
         21   -1    0    0  504  502 -0.00000000000E+00 -0.00000000000E+00 -0.16087044730E+02  0.16087044730E+02  0.00000000000E+00 0. -1.
         21    1    1    2  503  506 -0.24864195938E+02 -0.62138282360E+02  0.29292870430E+03  0.30047732057E+03  0.00000000000E+00 0. -1.
         21    1    1    2  504  501  0.41161852961E+02  0.14696071759E+02  0.27161772608E+03  0.27511172600E+03  0.00000000000E+00 0. -1.
         21    1    1    2  505  503 -0.19487034140E+02  0.10256506967E+03  0.88441101095E+03  0.89055161237E+03  0.00000000000E+00 0. -1.
         21    1    1    2  506  502  0.31893771166E+01 -0.55122859069E+02  0.94189834663E+02  0.10918070650E+03  0.00000000000E+00 0. -1.
<scales pt_clust_3="14000.00000" pt_clust_4="43.70667" pt_clust_5="84.74267" pt_clust_6="54.34417"></scales>
<clustering>
<clus scale="   43.707">  1  4  2 -1</clus>
<clus scale="   54.344">  2  6  1 -1</clus>
<clus scale="   84.743">  1  5  2 -1</clus>
<clus scale="   43.707">  1  3  2 -1</clus>
</clustering>
</event>
<event>
 6    0  0.5563122E+002  0.9982301E+02  0.7546771E-02  0.1280669E+00
         21   -1    0    0  505  501  0.00000000000E+00  0.00000000000E+00  0.72069048773E+03  0.72069048773E+03  0.00000000000E+00 0.  1.
         21   -1    0    0  504  502 -0.00000000000E+00 -0.00000000000E+00 -0.40803975766E+03  0.40803975766E+03  0.00000000000E+00 0. -1.
         21    1    1    2  503  506 -0.31133954735E+02  0.73575685503E+02  0.25311256014E+03  0.26542168851E+03  0.00000000000E+00 0.  1.
         21    1    1    2  504  501 -0.47784601874E+02  0.11029798703E+02  0.94248191417E+02  0.10624380557E+03  0.00000000000E+00 0. -1.
         21    1    1    2  505  503  0.57111209361E+02  0.13342793920E+02  0.35235557992E+03  0.35720326858E+03  0.00000000000E+00 0.  1.
         21    1    1    2  506  502  0.21807347248E+02 -0.97948278126E+02 -0.38706560140E+03  0.39986148273E+03  0.00000000000E+00 0. -1.
<scales pt_clust_3="99.82301" pt_clust_4="49.04105" pt_clust_5="35.68467" pt_clust_6="14000.00000"></scales>
<clustering>
<clus scale="   49.041">  1  4  2 -1</clus>
<clus scale="   35.685">  1  5  2 -1</clus>
<clus scale="   99.823">  1  3  2 -1</clus>
<clus scale="   49.041">  1  3  2 -1</clus>
</clustering>
</event>
<event>
 6    0  0.5563122E+002  0.1263570E+03  0.7546771E-02  0.1232964E+00
         21   -1    0    0  505  501  0.00000000000E+00  0.00000000000E+00  0.69872622167E+03  0.69872622167E+03  0.00000000000E+00 0.  1.
         21   -1    0    0  503  502 -0.00000000000E+00 -0.00000000000E+00 -0.54235544727E+03  0.54235544727E+03  0.00000000000E+00 0.  1.
         21    1    1    2  503  504  0.13360145269E+03 -0.11544703026E+02 -0.45383771734E+03  0.47323493320E+03  0.00000000000E+00 0.  1.
         21    1    1    2  504  506 -0.81001754133E+02 -0.95607435290E+02 -0.47940436819E+01  0.12539955626E+03  0.00000000000E+00 0.  1.
         21    1    1    2  505  502 -0.49476840221E+02  0.55658146524E+02  0.99050764449E+02  0.12392272161E+03  0.00000000000E+00 0.  1.
         21    1    1    2  506  501 -0.31228583316E+01  0.51493991792E+02  0.51595177098E+03  0.51852445787E+03  0.00000000000E+00 0.  1.
<scales pt_clust_3="14000.00000" pt_clust_4="126.35695" pt_clust_5="101.29708" pt_clust_6="51.58860"></scales>
<clustering>
<clus scale="   51.589">  1  6  2 -1</clus>
<clus scale="  101.297">  1  5  2 -1</clus>
<clus scale="  126.357">  1  4  2 -1</clus>
<clus scale="   51.589">  1  3  2 -1</clus>
</clustering>
</event>
<event>
 6    0  0.5563122E+002  0.9969728E+02  0.7546771E-02  0.1280934E+00
         21   -1    0    0  502  501  0.00000000000E+00  0.00000000000E+00  0.17318347885E+03  0.17318347885E+03  0.00000000000E+00 0.  1.
         21   -1    0    0  506  502 -0.00000000000E+00 -0.00000000000E+00 -0.36128905232E+03  0.36128905232E+03  0.00000000000E+00 0. -1.
         21    1    1    2  503  501  0.16271394363E+02  0.66367213535E+02  0.11519717675E+03  0.13393937001E+03  0.00000000000E+00 0.  1.
         21    1    1    2  504  505 -0.28204884778E+02 -0.52661292433E+02 -0.46146565195E+02  0.75486639383E+02  0.00000000000E+00 0. -1.
         21    1    1    2  505  503  0.21061689529E+02 -0.88033791141E+02 -0.47096232475E+02  0.10203723958E+03  0.00000000000E+00 0. -1.
         21    1    1    2  506  504 -0.91281991137E+01  0.74327870039E+02 -0.21005995254E+03  0.22300928220E+03  0.00000000000E+00 0. -1.
<scales pt_clust_3="68.33275" pt_clust_4="44.30557" pt_clust_5="44.30557" pt_clust_6="83.45760"></scales>
<clustering>
<clus scale="   44.306">  4  5 -1 -1</clus>
<clus scale="   68.333">  1  3  2 -1</clus>
<clus scale="   83.458">  2  6  1 -1</clus>
<clus scale="   68.333">  1  3  2 -1</clus>
</clustering>
</event>
<event>
 6    0  0.5563122E+002  0.6101484E+02  0.7546771E-02  0.1393622E+00
         21   -1    0    0  504  501  0.00000000000E+00  0.00000000000E+00  0.71180075774E+03  0.71180075774E+03  0.00000000000E+00 0.  1.
         21   -1    0    0  505  502 -0.00000000000E+00 -0.00000000000E+00 -0.51518858856E+03  0.51518858856E+03  0.00000000000E+00 0.  1.
         21    1    1    2  503  501 -0.17928422473E+02  0.40056834008E+02  0.34024480478E+03  0.34306341318E+03  0.00000000000E+00 0.  1.
         21    1    1    2  504  502  0.60866340989E+02 -0.10725656658E+03  0.32218143666E+03  0.34497762343E+03  0.00000000000E+00 0.  1.
         21    1    1    2  505  506  0.42976014071E+01  0.60624112526E+02 -0.48407900745E+03  0.48787932714E+03  0.00000000000E+00 0.  1.
         21    1    1    2  506  503 -0.47235519923E+02  0.65756200432E+01  0.18264935185E+02  0.51068982550E+02  0.00000000000E+00 0.  1.
<scales pt_clust_3="43.88597" pt_clust_4="61.01484" pt_clust_5="14000.00000" pt_clust_6="49.99295"></scales>
<clustering>
<clus scale="   43.886">  1  3  2 -1</clus>
<clus scale="   49.993">  1  6  2 -1</clus>
<clus scale="   61.015">  1  4  2 -1</clus>
<clus scale="   43.886">  1  3  2 -1</clus>
</clustering>
</event>
<event>
 6    0  0.5563122E+002  0.9904411E+02  0.7546771E-02  0.1282319E+00
         21   -1    0    0  503  501  0.00000000000E+00  0.00000000000E+00  0.15097564283E+04  0.15097564283E+04  0.00000000000E+00 0.  1.
         21   -1    0    0  505  502 -0.00000000000E+00 -0.00000000000E+00 -0.19813948221E+03  0.19813948221E+03  0.00000000000E+00 0.  1.
         21    1    1    2  503  506  0.14770179881E+02 -0.31912267030E+02  0.13431554907E+04  0.13436157275E+04  0.00000000000E+00 0.  1.
         21    1    1    2  504  501 -0.44165118953E+02 -0.94550197873E+01  0.32966000300E+02  0.55917012680E+02  0.00000000000E+00 0.  1.
         21    1    1    2  505  504  0.60625338859E+01  0.10427935864E+03 -0.16034577908E+03  0.19136799059E+03  0.00000000000E+00 0.  1.
         21    1    1    2  506  502  0.23332405186E+02 -0.62912071826E+02  0.95841234210E+02  0.11699517976E+03  0.00000000000E+00 0.  1.
<scales pt_clust_3="35.16463" pt_clust_4="44.05547" pt_clust_5="14000.00000" pt_clust_6="99.04411"></scales>
<clustering>
<clus scale="   35.165">  1  3  2 -1</clus>
<clus scale="   44.055">  1  4  2 -1</clus>
<clus scale="   99.044">  1  6  2 -1</clus>
<clus scale="   35.165">  1  3  2 -1</clus>
</clustering>
</event>
<event>
 6    0  0.5563122E+002  0.1528527E+03  0.7546771E-02  0.1197011E+00
         21   -1    0    0  506  501  0.00000000000E+00  0.00000000000E+00  0.18764360751E+03  0.18764360751E+03  0.00000000000E+00 0. -1.
         21   -1    0    0  504  502 -0.00000000000E+00 -0.00000000000E+00 -0.58164854267E+03  0.58164854267E+03  0.00000000000E+00 0.  1.
         21    1    1    2  503  505  0.11059614745E+03 -0.53765944287E+01  0.77077960942E+02  0.13491266679E+03  0.00000000000E+00 0. -1.
         21    1    1    2  504  503 -0.12373756085E+03 -0.37491071295E+02 -0.47976180194E+03  0.49687820539E+03  0.00000000000E+00 0.  1.
         21    1    1    2  505  501  0.32434899327E+02  0.17560787422E+02  0.63892060714E+02  0.73773974893E+02  0.00000000000E+00 0. -1.
         21    1    1    2  506  502 -0.19293485930E+02  0.25306878302E+02 -0.55213154881E+02  0.63727303102E+02  0.00000000000E+00 0. -1.
<scales pt_clust_3="32.12931" pt_clust_4="142.45250" pt_clust_5="32.12931" pt_clust_6="31.82258"></scales>
<clustering>
<clus scale="   31.823">  2  6  1 -1</clus>
<clus scale="   32.129">  3  5 -1 -1</clus>
<clus scale="  142.453">  2  4  1 -1</clus>
<clus scale="  152.853">  1  3  2 -1</clus>
</clustering>
</event>
<event>
 6    0  0.5563122E+002  0.8566520E+02  0.7546771E-02  0.1313702E+00
         21   -1    0    0  504  501  0.00000000000E+00  0.00000000000E+00  0.95515144614E+02  0.95515144614E+02  0.00000000000E+00 0. -1.
         21   -1    0    0  505  502 -0.00000000000E+00 -0.00000000000E+00 -0.22337479402E+03  0.22337479402E+03  0.00000000000E+00 0. -1.
         21    1    1    2  503  506 -0.50026970986E+02  0.42247480243E+01 -0.81025621432E+02  0.95318925982E+02  0.00000000000E+00 0.  1.
         21    1    1    2  504  503 -0.53215593294E+02 -0.65605745829E+02 -0.18876227258E+02  0.86558218621E+02  0.00000000000E+00 0. -1.
         21    1    1    2  505  501  0.81112385315E+02  0.39565053129E+02  0.66603488510E+01  0.90492942970E+02  0.00000000000E+00 0. -1.
         21    1    1    2  506  502  0.22130178966E+02  0.21815944676E+02 -0.34618149567E+02  0.46519851059E+02  0.00000000000E+00 0. -1.
<scales pt_clust_3="42.02542" pt_clust_4="85.66520" pt_clust_5="14000.00000" pt_clust_6="31.07540"></scales>
<clustering>
<clus scale="   31.075">  2  6  1 -1</clus>
<clus scale="   42.025">  2  3  1 -1</clus>
<clus scale="   85.665">  2  4  1 -1</clus>
<clus scale="   85.665">  1  3  2 -1</clus>
</clustering>
</event>
<event>
 6    0  0.5563122E+002  0.1289664E+03  0.7546771E-02  0.1228998E+00
         21   -1    0    0  503  501  0.00000000000E+00  0.00000000000E+00  0.35795684605E+03  0.35795684605E+03  0.00000000000E+00 0. -1.
         21   -1    0    0  506  502 -0.00000000000E+00 -0.00000000000E+00 -0.48652679234E+03  0.48652679234E+03  0.00000000000E+00 0.  1.
         21    1    1    2  503  502 -0.24237932759E+02  0.20774762001E+02 -0.23666832757E+02  0.39738987070E+02  0.00000000000E+00 0.  1.
         21    1    1    2  504  505 -0.62971701514E+02  0.82417806610E+02  0.70374241540E+02  0.12534218727E+03  0.00000000000E+00 0. -1.
         21    1    1    2  505  501 -0.38314489456E+02  0.14414555661E+01  0.23482817876E+03  0.23793770495E+03  0.00000000000E+00 0. -1.
         21    1    1    2  506  504  0.12552412373E+03 -0.10463402418E+03 -0.41010553383E+03  0.44146475910E+03  0.00000000000E+00 0.  1.
<scales pt_clust_3="31.92285" pt_clust_4="14000.00000" pt_clust_5="38.42712" pt_clust_6="128.96639"></scales>
<clustering>
<clus scale="   31.923">  2  3  1 -1</clus>
<clus scale="   38.427">  1  5  2 -1</clus>
<clus scale="  128.966">  2  6  1 -1</clus>
<clus scale="   38.427">  1  3  2 -1</clus>
</clustering>
</event>
<event>
 6    0  0.5563122E+002  0.9958016E+02  0.7546771E-02  0.1281181E+00
         21   -1    0    0  503  501  0.00000000000E+00  0.00000000000E+00  0.17002835882E+04  0.17002835882E+04  0.00000000000E+00 0. -1.
         21   -1    0    0  501  502 -0.00000000000E+00 -0.00000000000E+00 -0.49759914645E+03  0.49759914645E+03  0.00000000000E+00 0.  1.
         21    1    1    2  503  506 -0.12990509789E+02 -0.36299821175E+02  0.16438410896E+04  0.16442931485E+04  0.00000000000E+00 0. -1.
         21    1    1    2  504  505 -0.65359412493E+02  0.12400326536E+03 -0.37015934940E+03  0.39581132699E+03  0.00000000000E+00 0.  1.
         21    1    1    2  505  502  0.64826983006E+01 -0.42375964095E+02 -0.57536763314E+02  0.71751145237E+02  0.00000000000E+00 0.  1.
         21    1    1    2  506  504  0.71867223981E+02 -0.45327480089E+02 -0.13460535080E+02  0.86027113973E+02  0.00000000000E+00 0.  1.
<scales pt_clust_3="38.55425" pt_clust_4="99.58016" pt_clust_5="47.21396" pt_clust_6="14000.00000"></scales>
<clustering>
<clus scale="   38.554">  1  3  2 -1</clus>
<clus scale="   47.214">  2  5  1 -1</clus>
<clus scale="   99.580">  2  4  1 -1</clus>
<clus scale="   38.554">  1  3  2 -1</clus>
</clustering>
</event>
<event>
 6    0  0.5563122E+002  0.1503729E+03  0.7546771E-02  0.1200016E+00
         21   -1    0    0  502  501  0.00000000000E+00  0.00000000000E+00  0.60884604335E+03  0.60884604335E+03  0.00000000000E+00 0.  1.
         21   -1    0    0  503  502 -0.00000000000E+00 -0.00000000000E+00 -0.11699429643E+04  0.11699429643E+04  0.00000000000E+00 0. -1.
         21    1    1    2  503  506  0.21594258474E+02  0.39562432709E+02 -0.86482699799E+03  0.86600071278E+03  0.00000000000E+00 0. -1.
         21    1    1    2  504  501 -0.25177858264E+02 -0.14510357552E+03  0.58865542990E+03  0.60679830861E+03  0.00000000000E+00 0.  1.
         21    1    1    2  505  504 -0.84456872993E+01  0.43606579736E+02 -0.79167615077E+02  0.90776509666E+02  0.00000000000E+00 0. -1.
         21    1    1    2  506  505  0.12029287090E+02  0.61934563071E+02 -0.20575773778E+03  0.21521347659E+03  0.00000000000E+00 0. -1.
<scales pt_clust_3="45.07214" pt_clust_4="146.00128" pt_clust_5="30.20157" pt_clust_6="30.20157"></scales>
<clustering>
<clus scale="   30.202">  5  6 -1 -1</clus>
<clus scale="   45.072">  2  3  1 -1</clus>
<clus scale="  146.001">  1  4  2 -1</clus>
<clus scale="  146.001">  1  3  2 -1</clus>
</clustering>
</event>
<event>
 6    0  0.5563122E+002  0.1433197E+03  0.7546771E-02  0.1208931E+00
         21   -1    0    0  504  501  0.00000000000E+00  0.00000000000E+00  0.16375718367E+03  0.16375718367E+03  0.00000000000E+00 0.  1.
         21   -1    0    0  503  502 -0.00000000000E+00 -0.00000000000E+00 -0.10679535619E+04  0.10679535619E+04  0.00000000000E+00 0.  1.
         21    1    1    2  503  506 -0.12812428157E+03 -0.52212664590E+02 -0.10101360851E+04  0.10195670181E+04  0.00000000000E+00 0.  1.
         21    1    1    2  504  502  0.72230732265E+02 -0.20389857039E+02  0.69208687752E+02  0.10209244543E+03  0.00000000000E+00 0.  1.
         21    1    1    2  505  501  0.34046804677E+01  0.39261351538E+02  0.25287459234E+02  0.46824151548E+02  0.00000000000E+00 0. -1.
         21    1    1    2  506  505  0.52488868841E+02  0.33341170091E+02  0.11443559872E+02  0.63227130552E+02  0.00000000000E+00 0.  1.
<scales pt_clust_3="134.80965" pt_clust_4="75.05348" pt_clust_5="38.73028" pt_clust_6="38.73028"></scales>
<clustering>
<clus scale="   38.730">  5  6 -1 -1</clus>
<clus scale="   75.053">  1  4  2 -1</clus>
<clus scale="  134.810">  2  3  1 -1</clus>
<clus scale="   75.053">  1  3  2 -1</clus>
</clustering>
</event>
<event>
 6    0  0.5563122E+002  0.9803994E+02  0.7546771E-02  0.1284473E+00
         21   -1    0    0  506  501  0.00000000000E+00  0.00000000000E+00  0.60043316011E+03  0.60043316011E+03  0.00000000000E+00 0.  1.
         21   -1    0    0  501  502 -0.00000000000E+00 -0.00000000000E+00 -0.10740118261E+03  0.10740118261E+03  0.00000000000E+00 0.  1.
         21    1    1    2  503  504 -0.58622614359E+02 -0.22473743283E+02  0.14351349974E+02  0.64402183950E+02  0.00000000000E+00 0.  1.
         21    1    1    2  504  502  0.75262642899E+02 -0.59982208933E+01  0.90183920972E+01  0.76037986994E+02  0.00000000000E+00 0.  1.
         21    1    1    2  505  503 -0.50641505759E+02 -0.52029511039E+02 -0.15652911455E+02  0.74274125787E+02  0.00000000000E+00 0.  1.
         21    1    1    2  506  505  0.34001477219E+02  0.80501475215E+02  0.48531514689E+03  0.49312004600E+03  0.00000000000E+00 0.  1.
<scales pt_clust_3="38.78948" pt_clust_4="75.50129" pt_clust_5="38.78948" pt_clust_6="88.72309"></scales>
<clustering>
<clus scale="   38.789">  3  5 -1 -1</clus>
<clus scale="   75.501">  2  4  1 -1</clus>
<clus scale="   88.723">  1  6  2 -1</clus>
<clus scale="   88.723">  1  3  2 -1</clus>
</clustering>
</event>
<event>
 6    0  0.5563122E+002  0.1381142E+03  0.7546771E-02  0.1215889E+00
         21   -1    0    0  506  501  0.00000000000E+00  0.00000000000E+00  0.27949738055E+03  0.27949738055E+03  0.00000000000E+00 0.  1.
         21   -1    0    0  503  502 -0.00000000000E+00 -0.00000000000E+00 -0.66959920903E+02  0.66959920903E+02  0.00000000000E+00 0.  1.
         21    1    1    2  503  505  0.77351835931E+02 -0.37042545560E+02  0.39879167132E+02  0.94582264060E+02  0.00000000000E+00 0.  1.
         21    1    1    2  504  502 -0.54726787751E+02  0.90066457621E+01  0.31592307370E+02  0.63829576611E+02  0.00000000000E+00 0.  1.
         21    1    1    2  505  501  0.31074704455E+02 -0.29597837675E+02  0.69133951703E+02  0.81370587622E+02  0.00000000000E+00 0.  1.
         21    1    1    2  506  504 -0.53699752635E+02  0.57633737473E+02  0.71932033442E+02  0.10667487316E+03  0.00000000000E+00 0.  1.
<scales pt_clust_3="37.95053" pt_clust_4="38.97249" pt_clust_5="37.95053" pt_clust_6="135.47870"></scales>
<clustering>
<clus scale="   37.951">  3  5 -1 -1</clus>
<clus scale="   38.972">  4  6 -1 -1</clus>
<clus scale="  135.479">  2  4  1 -1</clus>
<clus scale="  138.114">  1  3  2 -1</clus>
</clustering>
</event>
<event>
 6    0  0.5563122E+002  0.1726055E+03  0.7546771E-02  0.1175158E+00
         21   -1    0    0  503  501  0.00000000000E+00  0.00000000000E+00  0.18369386684E+03  0.18369386684E+03  0.00000000000E+00 0. -1.
         21   -1    0    0  506  502 -0.00000000000E+00 -0.00000000000E+00 -0.39667347329E+03  0.39667347329E+03  0.00000000000E+00 0. -1.
         21    1    1    2  503  504 -0.36007180140E+02 -0.44242838157E+02 -0.23042491329E+02  0.61521558469E+02  0.00000000000E+00 0. -1.
         21    1    1    2  504  502 -0.72899524756E+02 -0.79130810624E+01 -0.20291872270E+02  0.76083622691E+02  0.00000000000E+00 0. -1.
         21    1    1    2  505  501  0.14943918990E+03  0.17341591545E+03  0.17548455257E+01  0.22892844011E+03  0.00000000000E+00 0. -1.
         21    1    1    2  506  505 -0.40532485004E+02 -0.12125999623E+03 -0.17140008838E+03  0.21383371886E+03  0.00000000000E+00 0. -1.
<scales pt_clust_3="43.89141" pt_clust_4="43.89141" pt_clust_5="165.27631" pt_clust_6="127.85487"></scales>
<clustering>
<clus scale="   43.891">  3  4 -1 -1</clus>
<clus scale="  127.855">  2  6  1 -1</clus>
<clus scale="  165.276">  2  5  1 -1</clus>
<clus scale="  172.606">  1  3  2 -1</clus>
</clustering>
</event>
