<event>
 4    0  0.2202290E-002  0.3747790E+03  0.7546771E-02  0.1052881E+00
         21   -1    0    0  502  501  0.00000000000E+00  0.00000000000E+00  0.58053342982E+03  0.58053342982E+03  0.00000000000E+00 0.  1.
         21   -1    0    0  501  502 -0.00000000000E+00 -0.00000000000E+00 -0.24194862421E+03  0.24194862421E+03  0.00000000000E+00 0.  1.
         25    1    1    2    0    0  0.12589247219E+03  0.23490549085E+03 -0.85233268176E+02  0.30646241889E+03  0.12500000000E+03 0.  0.
         25    1    1    2    0    0 -0.12589247219E+03 -0.23490549085E+03  0.42381807379E+03  0.51601963515E+03  0.12500000000E+03 0.  0.
</event>
<event>
 4    0  0.2202290E-002  0.2639358E+03  0.7546771E-02  0.1104801E+00
         21   -1    0    0  502  501  0.00000000000E+00  0.00000000000E+00  0.45054984368E+03  0.45054984368E+03  0.00000000000E+00 0.  1.
         21   -1    0    0  501  502 -0.00000000000E+00 -0.00000000000E+00 -0.15461581027E+03  0.15461581027E+03  0.00000000000E+00 0.  1.
         25    1    1    2    0    0 -0.16777260931E+03 -0.14288014564E+03  0.23279279239E+03  0.34406375665E+03  0.12500000000E+03 0.  0.
         25    1    1    2    0    0  0.16777260931E+03  0.14288014564E+03  0.63141241023E+02  0.26110189729E+03  0.12500000000E+03 0.  0.
</event>
<event>
 4    0  0.2202290E-002  0.2129805E+03  0.7546771E-02  0.1139227E+00
         21   -1    0    0  502  501  0.00000000000E+00  0.00000000000E+00  0.10131352217E+04  0.10131352217E+04  0.00000000000E+00 0.  1.
         21   -1    0    0  501  502 -0.00000000000E+00 -0.00000000000E+00 -0.44772597747E+02  0.44772597747E+02  0.00000000000E+00 0.  1.
         25    1    1    2    0    0  0.92116298850E+02  0.47533881486E+02  0.82643627974E+03  0.84223916252E+03  0.12500000000E+03 0.  0.
         25    1    1    2    0    0 -0.92116298850E+02 -0.47533881486E+02  0.14192634423E+03  0.21566865694E+03  0.12500000000E+03 0.  0.
</event>
<event>
 4    0  0.2202290E-002  0.2069401E+03  0.7546771E-02  0.1144012E+00
         21   -1    0    0  502  501  0.00000000000E+00  0.00000000000E+00  0.58515777788E+03  0.58515777788E+03  0.00000000000E+00 0. -1.
         21   -1    0    0  501  502 -0.00000000000E+00 -0.00000000000E+00 -0.73184004747E+02  0.73184004747E+02  0.00000000000E+00 0. -1.
         25    1    1    2    0    0 -0.26098872137E+02  0.12287420007E+03  0.42597138475E+03  0.46136302495E+03  0.12500000000E+03 0.  0.
         25    1    1    2    0    0  0.26098872137E+02 -0.12287420007E+03  0.86002388391E+02  0.19697875768E+03  0.12500000000E+03 0.  0.
</event>
<event>
 4    0  0.2202290E-002  0.2903548E+03  0.7546771E-02  0.1090164E+00
         21   -1    0    0  502  501  0.00000000000E+00  0.00000000000E+00  0.11434338630E+04  0.11434338630E+04  0.00000000000E+00 0. -1.
         21   -1    0    0  501  502 -0.00000000000E+00 -0.00000000000E+00 -0.73730451245E+02  0.73730451245E+02  0.00000000000E+00 0. -1.
         25    1    1    2    0    0 -0.26153492693E+03  0.50849362258E+01  0.50141285880E+03  0.57919446609E+03  0.12500000000E+03 0.  0.
         25    1    1    2    0    0  0.26153492693E+03 -0.50849362258E+01  0.56829055299E+03  0.63796984819E+03  0.12500000000E+03 0.  0.
</event>
<event>
 4    0  0.2202290E-002  0.2321114E+03  0.7546771E-02  0.1125162E+00
         21   -1    0    0  502  501  0.00000000000E+00  0.00000000000E+00  0.61996487220E+03  0.61996487220E+03  0.00000000000E+00 0. -1.
         21   -1    0    0  501  502 -0.00000000000E+00 -0.00000000000E+00 -0.86901246737E+02  0.86901246737E+02  0.00000000000E+00 0. -1.
         25    1    1    2    0    0  0.10020045825E+03  0.14981447741E+03  0.15090571075E+03  0.26623681754E+03  0.12500000000E+03 0.  0.
         25    1    1    2    0    0 -0.10020045825E+03 -0.14981447741E+03  0.38215791471E+03  0.44062930140E+03  0.12500000000E+03 0.  0.
</event>
<event>
 4    0  0.2202290E-002  0.2759231E+03  0.7546771E-02  0.1097937E+00
         21   -1    0    0  502  501  0.00000000000E+00  0.00000000000E+00  0.54722025327E+03  0.54722025327E+03  0.00000000000E+00 0. -1.
         21   -1    0    0  501  502 -0.00000000000E+00 -0.00000000000E+00 -0.13912776912E+03  0.13912776912E+03  0.00000000000E+00 0. -1.
         25    1    1    2    0    0 -0.22353785611E+03 -0.46140154979E+02  0.31810691073E+03  0.41099281462E+03  0.12500000000E+03 0.  0.
         25    1    1    2    0    0  0.22353785611E+03  0.46140154979E+02  0.89985573421E+02  0.27535520776E+03  0.12500000000E+03 0.  0.
</event>
<event>
 4    0  0.2202290E-002  0.2147198E+03  0.7546771E-02  0.1137882E+00
         21   -1    0    0  502  501  0.00000000000E+00  0.00000000000E+00  0.43983023838E+03  0.43983023838E+03  0.00000000000E+00 0.  1.
         21   -1    0    0  501  502 -0.00000000000E+00 -0.00000000000E+00 -0.10482357208E+03  0.10482357208E+03  0.00000000000E+00 0.  1.
         25    1    1    2    0    0 -0.31596711231E+02  0.49455899626E+02  0.37604096493E+03  0.40059461488E+03  0.12500000000E+03 0.  0.
         25    1    1    2    0    0  0.31596711231E+02 -0.49455899626E+02 -0.41034298627E+02  0.14405919558E+03  0.12500000000E+03 0.  0.
</event>
<event>
 4    0  0.2202290E-002  0.2055161E+03  0.7546771E-02  0.1145167E+00
         21   -1    0    0  502  501  0.00000000000E+00  0.00000000000E+00  0.51326029458E+03  0.51326029458E+03  0.00000000000E+00 0. -1.
         21   -1    0    0  501  502 -0.00000000000E+00 -0.00000000000E+00 -0.82291321415E+02  0.82291321415E+02  0.00000000000E+00 0. -1.
         25    1    1    2    0    0  0.11376343626E+03 -0.65618569883E+01  0.46347435321E+02  0.17538033572E+03  0.12500000000E+03 0.  0.
         25    1    1    2    0    0 -0.11376343626E+03  0.65618569883E+01  0.38462153784E+03  0.42017128027E+03  0.12500000000E+03 0.  0.
</event>
<event>
 4    0  0.2202290E-002  0.2264510E+03  0.7546771E-02  0.1129163E+00
         21   -1    0    0  502  501  0.00000000000E+00  0.00000000000E+00  0.52214782278E+03  0.52214782278E+03  0.00000000000E+00 0. -1.
         21   -1    0    0  501  502 -0.00000000000E+00 -0.00000000000E+00 -0.98209877026E+02  0.98209877026E+02  0.00000000000E+00 0. -1.
         25    1    1    2    0    0 -0.39693035384E+02 -0.18374265816E+03  0.18753642123E+03  0.29348221543E+03  0.12500000000E+03 0.  0.
         25    1    1    2    0    0  0.39693035384E+02  0.18374265816E+03  0.23640152453E+03  0.32687548438E+03  0.12500000000E+03 0.  0.
</event>
<event>
 4    0  0.2202290E-002  0.1871161E+03  0.7546771E-02  0.1161088E+00
         21   -1    0    0  502  501  0.00000000000E+00  0.00000000000E+00  0.44081150406E+03  0.44081150406E+03  0.00000000000E+00 0. -1.
         21   -1    0    0  501  502 -0.00000000000E+00 -0.00000000000E+00 -0.79427254958E+02  0.79427254958E+02  0.00000000000E+00 0. -1.
         25    1    1    2    0    0 -0.58895971649E+02 -0.33119943039E+02  0.11448749379E+02  0.14255434040E+03  0.12500000000E+03 0.  0.
         25    1    1    2    0    0  0.58895971649E+02  0.33119943039E+02  0.34993549973E+03  0.37768441862E+03  0.12500000000E+03 0.  0.
</event>
<event>
 4    0  0.2202290E-002  0.2188206E+03  0.7546771E-02  0.1134765E+00
         21   -1    0    0  502  501  0.00000000000E+00  0.00000000000E+00  0.47934121942E+03  0.47934121942E+03  0.00000000000E+00 0.  1.
         21   -1    0    0  501  502 -0.00000000000E+00 -0.00000000000E+00 -0.99892253469E+02  0.99892253469E+02  0.00000000000E+00 0.  1.
         25    1    1    2    0    0  0.89519040416E+02  0.13033894860E+03  0.30246272644E+03  0.36347022025E+03  0.12500000000E+03 0.  0.
         25    1    1    2    0    0 -0.89519040416E+02 -0.13033894860E+03  0.76986239509E+02  0.21576325264E+03  0.12500000000E+03 0.  0.
</event>
<event>
 4    0  0.2202290E-002  0.2357867E+03  0.7546771E-02  0.1122632E+00
         21   -1    0    0  502  501  0.00000000000E+00  0.00000000000E+00  0.28167568933E+03  0.28167568933E+03  0.00000000000E+00 0. -1.
         21   -1    0    0  501  502 -0.00000000000E+00 -0.00000000000E+00 -0.19737372778E+03  0.19737372778E+03  0.00000000000E+00 0. -1.
         25    1    1    2    0    0 -0.41310662612E+02 -0.17201308545E+03  0.13676890746E+03  0.25617534319E+03  0.12500000000E+03 0.  0.
         25    1    1    2    0    0  0.41310662612E+02  0.17201308545E+03 -0.52466945911E+02  0.22287407392E+03  0.12500000000E+03 0.  0.
</event>
<event>
 4    0  0.2202290E-002  0.2691193E+03  0.7546771E-02  0.1101785E+00
         21   -1    0    0  502  501  0.00000000000E+00  0.00000000000E+00  0.55717458360E+03  0.55717458360E+03  0.00000000000E+00 0.  1.
         21   -1    0    0  501  502 -0.00000000000E+00 -0.00000000000E+00 -0.12998650620E+03  0.12998650620E+03  0.00000000000E+00 0.  1.
         25    1    1    2    0    0  0.11358186882E+03  0.11742649029E+03  0.43512871993E+03  0.48130221738E+03  0.12500000000E+03 0.  0.
         25    1    1    2    0    0 -0.11358186882E+03 -0.11742649029E+03 -0.79406425383E+01  0.20585887241E+03  0.12500000000E+03 0.  0.
</event>
<event>
 4    0  0.2202290E-002  0.2303345E+03  0.7546771E-02  0.1126405E+00
         21   -1    0    0  502  501  0.00000000000E+00  0.00000000000E+00  0.21129770833E+03  0.21129770833E+03  0.00000000000E+00 0.  1.
         21   -1    0    0  501  502 -0.00000000000E+00 -0.00000000000E+00 -0.25108649029E+03  0.25108649029E+03  0.00000000000E+00 0.  1.
         25    1    1    2    0    0  0.12060794530E+03  0.30519518219E+02 -0.16860565731E+03  0.24398890372E+03  0.12500000000E+03 0.  0.
         25    1    1    2    0    0 -0.12060794530E+03 -0.30519518219E+02  0.12881687536E+03  0.21839529491E+03  0.12500000000E+03 0.  0.
</event>
<event>
 4    0  0.2202290E-002  0.2666141E+03  0.7546771E-02  0.1103233E+00
         21   -1    0    0  502  501  0.00000000000E+00  0.00000000000E+00  0.27460199093E+03  0.27460199093E+03  0.00000000000E+00 0. -1.
         21   -1    0    0  501  502 -0.00000000000E+00 -0.00000000000E+00 -0.25885856752E+03  0.25885856752E+03  0.00000000000E+00 0. -1.
         25    1    1    2    0    0  0.22749972616E+03  0.59502794010E+02 -0.48369775050E+01  0.26635522193E+03  0.12500000000E+03 0.  0.
         25    1    1    2    0    0 -0.22749972616E+03 -0.59502794010E+02  0.20580400915E+02  0.26710533652E+03  0.12500000000E+03 0.  0.
</event>
<event>
 4    0  0.2202290E-002  0.1623422E+03  0.7546771E-02  0.1186077E+00
         21   -1    0    0  502  501  0.00000000000E+00  0.00000000000E+00  0.72245817764E+02  0.72245817764E+02  0.00000000000E+00 0.  1.
         21   -1    0    0  501  502 -0.00000000000E+00 -0.00000000000E+00 -0.36479618767E+03  0.36479618767E+03  0.00000000000E+00 0.  1.
         25    1    1    2    0    0  0.91732971957E+02  0.45885123933E+02 -0.12678688045E+03  0.20547577910E+03  0.12500000000E+03 0.  0.
         25    1    1    2    0    0 -0.91732971957E+02 -0.45885123933E+02 -0.16576348946E+03  0.23156622634E+03  0.12500000000E+03 0.  0.
</event>
<event>
 4    0  0.2202290E-002  0.1880992E+03  0.7546771E-02  0.1160187E+00
         21   -1    0    0  502  501  0.00000000000E+00  0.00000000000E+00  0.30839706611E+03  0.30839706611E+03  0.00000000000E+00 0.  1.
         21   -1    0    0  501  502 -0.00000000000E+00 -0.00000000000E+00 -0.11472650597E+03  0.11472650597E+03  0.00000000000E+00 0.  1.
         25    1    1    2    0    0 -0.13700195723E+03 -0.13110983613E+02  0.64728405625E+02  0.19686594594E+03  0.12500000000E+03 0.  0.
         25    1    1    2    0    0  0.13700195723E+03  0.13110983613E+02  0.12894215451E+03  0.22625762614E+03  0.12500000000E+03 0.  0.
</event>
<event>
 4    0  0.2202290E-002  0.3231550E+03  0.7546771E-02  0.1074206E+00
         21   -1    0    0  502  501  0.00000000000E+00  0.00000000000E+00  0.25446176280E+03  0.25446176280E+03  0.00000000000E+00 0. -1.
         21   -1    0    0  501  502 -0.00000000000E+00 -0.00000000000E+00 -0.41039223578E+03  0.41039223578E+03  0.00000000000E+00 0. -1.
         25    1    1    2    0    0 -0.13882969263E+03  0.26092598430E+03 -0.38819761177E+02  0.32324607762E+03  0.12500000000E+03 0.  0.
         25    1    1    2    0    0  0.13882969263E+03 -0.26092598430E+03 -0.11711071181E+03  0.34160792096E+03  0.12500000000E+03 0.  0.
</event>
<event>
 4    0  0.2202290E-002  0.2305668E+03  0.7546771E-02  0.1126241E+00
         21   -1    0    0  502  501  0.00000000000E+00  0.00000000000E+00  0.34332969749E+03  0.34332969749E+03  0.00000000000E+00 0.  1.
         21   -1    0    0  501  502 -0.00000000000E+00 -0.00000000000E+00 -0.15483962867E+03  0.15483962867E+03  0.00000000000E+00 0.  1.
         25    1    1    2    0    0  0.26003560734E+02  0.90229487517E+02 -0.88830831605E+02  0.17981507788E+03  0.12500000000E+03 0.  0.
         25    1    1    2    0    0 -0.26003560734E+02 -0.90229487517E+02  0.27732090042E+03  0.31835424828E+03  0.12500000000E+03 0.  0.
</event>
<event>
 4    0  0.2202290E-002  0.1910415E+03  0.7546771E-02  0.1157525E+00
         21   -1    0    0  502  501  0.00000000000E+00  0.00000000000E+00  0.49717420153E+03  0.49717420153E+03  0.00000000000E+00 0. -1.
         21   -1    0    0  501  502 -0.00000000000E+00 -0.00000000000E+00 -0.73408594685E+02  0.73408594685E+02  0.00000000000E+00 0. -1.
         25    1    1    2    0    0 -0.12729805941E+03  0.58862699396E+02  0.16010333053E+03  0.24683534949E+03  0.12500000000E+03 0.  0.
         25    1    1    2    0    0  0.12729805941E+03 -0.58862699396E+02  0.26366227632E+03  0.32374744673E+03  0.12500000000E+03 0.  0.
</event>
<event>
 4    0  0.2202290E-002  0.2214516E+03  0.7546771E-02  0.1132805E+00
         21   -1    0    0  502  501  0.00000000000E+00  0.00000000000E+00  0.41035897309E+03  0.41035897309E+03  0.00000000000E+00 0.  1.
         21   -1    0    0  501  502 -0.00000000000E+00 -0.00000000000E+00 -0.11950709542E+03  0.11950709542E+03  0.00000000000E+00 0.  1.
         25    1    1    2    0    0 -0.11282591962E+03  0.31772256693E+02  0.31324172838E+03  0.35704977920E+03  0.12500000000E+03 0.  0.
         25    1    1    2    0    0  0.11282591962E+03 -0.31772256693E+02 -0.22389850709E+02  0.17281628930E+03  0.12500000000E+03 0.  0.
</event>
<event>
 4    0  0.2202290E-002  0.6155110E+03  0.7546771E-02  0.9873738E-01
         21   -1    0    0  502  501  0.00000000000E+00  0.00000000000E+00  0.20734227228E+04  0.20734227228E+04  0.00000000000E+00 0. -1.
         21   -1    0    0  501  502 -0.00000000000E+00 -0.00000000000E+00 -0.18271901006E+03  0.18271901006E+03  0.00000000000E+00 0. -1.
         25    1    1    2    0    0  0.49816028045E+03  0.13869076254E+03  0.37800163187E+03  0.65261705948E+03  0.12500000000E+03 0.  0.
         25    1    1    2    0    0 -0.49816028045E+03 -0.13869076254E+03  0.15127020809E+04  0.16035246734E+04  0.12500000000E+03 0.  0.
</event>
<event>
 4    0  0.2202290E-002  0.2038323E+03  0.7546771E-02  0.1146545E+00
         21   -1    0    0  502  501  0.00000000000E+00  0.00000000000E+00  0.40899165407E+03  0.40899165407E+03  0.00000000000E+00 0. -1.
         21   -1    0    0  501  502 -0.00000000000E+00 -0.00000000000E+00 -0.10158542979E+03  0.10158542979E+03  0.00000000000E+00 0. -1.
         25    1    1    2    0    0  0.12386324761E+03 -0.58778391762E+02  0.47980279967E+02  0.19163535872E+03  0.12500000000E+03 0.  0.
         25    1    1    2    0    0 -0.12386324761E+03  0.58778391762E+02  0.25942594431E+03  0.31894172513E+03  0.12500000000E+03 0.  0.
</event>
<event>
 4    0  0.2202290E-002  0.2618753E+03  0.7546771E-02  0.1106022E+00
         21   -1    0    0  502  501  0.00000000000E+00  0.00000000000E+00  0.78020446348E+02  0.78020446348E+02  0.00000000000E+00 0. -1.
         21   -1    0    0  501  502 -0.00000000000E+00 -0.00000000000E+00 -0.87898314374E+03  0.87898314374E+03  0.00000000000E+00 0. -1.
         25    1    1    2    0    0 -0.17721134844E+03  0.25349228360E+01 -0.66867339652E+03  0.70296472107E+03  0.12500000000E+03 0.  0.
         25    1    1    2    0    0  0.17721134844E+03 -0.25349228360E+01 -0.13228930087E+03  0.25403886902E+03  0.12500000000E+03 0.  0.
</event>
<event>
 4    0  0.2202290E-002  0.1936275E+03  0.7546771E-02  0.1155230E+00
         21   -1    0    0  502  501  0.00000000000E+00  0.00000000000E+00  0.14636618259E+04  0.14636618259E+04  0.00000000000E+00 0. -1.
         21   -1    0    0  501  502 -0.00000000000E+00 -0.00000000000E+00 -0.25614939906E+02  0.25614939906E+02  0.00000000000E+00 0.  1.
         25    1    1    2    0    0 -0.34467573145E+02  0.13938425676E+03  0.58302249300E+03  0.61331575226E+03  0.12500000000E+03 0.  0.
         25    1    1    2    0    0  0.34467573145E+02 -0.13938425676E+03  0.85502439303E+03  0.87596101358E+03  0.12500000000E+03 0.  0.
</event>
<event>
 4    0  0.2202290E-002  0.2213109E+03  0.7546771E-02  0.1132909E+00
         21   -1    0    0  502  501  0.00000000000E+00  0.00000000000E+00  0.31337053173E+03  0.31337053173E+03  0.00000000000E+00 0. -1.
         21   -1    0    0  501  502 -0.00000000000E+00 -0.00000000000E+00 -0.15629589930E+03  0.15629589930E+03  0.00000000000E+00 0. -1.
         25    1    1    2    0    0  0.10732118400E+03  0.14755525452E+03  0.86968855779E+02  0.23765304868E+03  0.12500000000E+03 0.  0.
         25    1    1    2    0    0 -0.10732118400E+03 -0.14755525452E+03  0.70105776645E+02  0.23201338235E+03  0.12500000000E+03 0.  0.
</event>
<event>
 4    0  0.2202290E-002  0.4588856E+03  0.7546771E-02  0.1025105E+00
         21   -1    0    0  502  501  0.00000000000E+00  0.00000000000E+00  0.38838141256E+03  0.38838141256E+03  0.00000000000E+00 0.  1.
         21   -1    0    0  501  502 -0.00000000000E+00 -0.00000000000E+00 -0.54218864112E+03  0.54218864112E+03  0.00000000000E+00 0.  1.
         25    1    1    2    0    0 -0.13211165243E+03  0.25426100078E+02  0.34949759667E+03  0.39480823871E+03  0.12500000000E+03 0.  0.
         25    1    1    2    0    0  0.13211165243E+03 -0.25426100078E+02 -0.50330482523E+03  0.53576181496E+03  0.12500000000E+03 0.  0.
</event>
<event>
 4    0  0.2202290E-002  0.1780430E+03  0.7546771E-02  0.1169711E+00
         21   -1    0    0  502  501  0.00000000000E+00  0.00000000000E+00  0.11795984973E+03  0.11795984973E+03  0.00000000000E+00 0. -1.
         21   -1    0    0  501  502 -0.00000000000E+00 -0.00000000000E+00 -0.26872952630E+03  0.26872952630E+03  0.00000000000E+00 0. -1.
         25    1    1    2    0    0  0.82193392023E+02  0.53299204373E+02 -0.16278637266E+03  0.22742243074E+03  0.12500000000E+03 0.  0.
         25    1    1    2    0    0 -0.82193392023E+02 -0.53299204373E+02  0.12016696092E+02  0.15926694530E+03  0.12500000000E+03 0.  0.
</event>
<event>
 4    0  0.2202290E-002  0.1872350E+03  0.7546771E-02  0.1160979E+00
         21   -1    0    0  502  501  0.00000000000E+00  0.00000000000E+00  0.18474898602E+03  0.18474898602E+03  0.00000000000E+00 0.  1.
         21   -1    0    0  501  502 -0.00000000000E+00 -0.00000000000E+00 -0.18975446341E+03  0.18975446341E+03  0.00000000000E+00 0.  1.
         25    1    1    2    0    0 -0.44991894509E+02 -0.72196464465E+01  0.12924949771E+03  0.18549077207E+03  0.12500000000E+03 0.  0.
         25    1    1    2    0    0  0.44991894509E+02  0.72196464465E+01 -0.13425497509E+03  0.18901267736E+03  0.12500000000E+03 0.  0.
</event>
<event>
 4    0  0.2202290E-002  0.2888006E+03  0.7546771E-02  0.1090977E+00
         21   -1    0    0  502  501  0.00000000000E+00  0.00000000000E+00  0.10766661626E+03  0.10766661626E+03  0.00000000000E+00 0. -1.
         21   -1    0    0  501  502 -0.00000000000E+00 -0.00000000000E+00 -0.77466712786E+03  0.77466712786E+03  0.00000000000E+00 0. -1.
         25    1    1    2    0    0 -0.71875677610E+02 -0.96134022555E+02 -0.68641134052E+03  0.70795013364E+03  0.12500000000E+03 0.  0.
         25    1    1    2    0    0  0.71875677610E+02  0.96134022555E+02  0.19410828923E+02  0.17438361048E+03  0.12500000000E+03 0.  0.
</event>
<event>
 4    0  0.2202290E-002  0.2827089E+03  0.7546771E-02  0.1094219E+00
         21   -1    0    0  502  501  0.00000000000E+00  0.00000000000E+00  0.96318395495E+02  0.96318395495E+02  0.00000000000E+00 0. -1.
         21   -1    0    0  501  502 -0.00000000000E+00 -0.00000000000E+00 -0.82979320109E+03  0.82979320109E+03  0.00000000000E+00 0. -1.
         25    1    1    2    0    0  0.82756808250E+02  0.22279593322E+03 -0.51151203503E+03  0.57771643490E+03  0.12500000000E+03 0.  0.
         25    1    1    2    0    0 -0.82756808250E+02 -0.22279593322E+03 -0.22196277057E+03  0.34839516169E+03  0.12500000000E+03 0.  0.
</event>
<event>
 4    0  0.2202290E-002  0.2398745E+03  0.7546771E-02  0.1119876E+00
         21   -1    0    0  502  501  0.00000000000E+00  0.00000000000E+00  0.44118343345E+03  0.44118343345E+03  0.00000000000E+00 0. -1.
         21   -1    0    0  501  502 -0.00000000000E+00 -0.00000000000E+00 -0.13042143607E+03  0.13042143607E+03  0.00000000000E+00 0. -1.
         25    1    1    2    0    0  0.16847633694E+03  0.21592374560E+02  0.29156447448E+03  0.35984072800E+03  0.12500000000E+03 0.  0.
         25    1    1    2    0    0 -0.16847633694E+03 -0.21592374560E+02  0.19197522911E+02  0.21176414152E+03  0.12500000000E+03 0.  0.
</event>
<event>
 4    0  0.2202290E-002  0.2154556E+03  0.7546771E-02  0.1137317E+00
         21   -1    0    0  502  501  0.00000000000E+00  0.00000000000E+00  0.17372574611E+04  0.17372574611E+04  0.00000000000E+00 0.  1.
         21   -1    0    0  501  502 -0.00000000000E+00 -0.00000000000E+00 -0.26720913987E+02  0.26720913987E+02  0.00000000000E+00 0.  1.
         25    1    1    2    0    0  0.12058452260E+03 -0.10214760926E+03  0.11676008050E+04  0.11848592325E+04  0.12500000000E+03 0.  0.
         25    1    1    2    0    0 -0.12058452260E+03  0.10214760926E+03  0.54293574212E+03  0.57911914253E+03  0.12500000000E+03 0.  0.
</event>
<event>
 4    0  0.2202290E-002  0.3082611E+03  0.7546771E-02  0.1081182E+00
         21   -1    0    0  502  501  0.00000000000E+00  0.00000000000E+00  0.58960098216E+03  0.58960098216E+03  0.00000000000E+00 0. -1.
         21   -1    0    0  501  502 -0.00000000000E+00 -0.00000000000E+00 -0.16116811116E+03  0.16116811116E+03  0.00000000000E+00 0. -1.
         25    1    1    2    0    0 -0.10291880209E+03 -0.40495077522E+02  0.52981725239E+03  0.55548488014E+03  0.12500000000E+03 0.  0.
         25    1    1    2    0    0  0.10291880209E+03  0.40495077522E+02 -0.10138438139E+03  0.19528421318E+03  0.12500000000E+03 0.  0.
</event>
<event>
 4    0  0.2202290E-002  0.2702121E+03  0.7546771E-02  0.1101158E+00
         21   -1    0    0  502  501  0.00000000000E+00  0.00000000000E+00  0.63626204667E+02  0.63626204667E+02  0.00000000000E+00 0.  1.
         21   -1    0    0  501  502 -0.00000000000E+00 -0.00000000000E+00 -0.11475550997E+04  0.11475550997E+04  0.00000000000E+00 0.  1.
         25    1    1    2    0    0 -0.78198248420E+02  0.19614068682E+03 -0.28837117689E+03  0.37864108433E+03  0.12500000000E+03 0.  0.
         25    1    1    2    0    0  0.78198248420E+02 -0.19614068682E+03 -0.79555771813E+03  0.83254022002E+03  0.12500000000E+03 0.  0.
</event>
<event>
 4    0  0.2202290E-002  0.2300693E+03  0.7546771E-02  0.1126591E+00
         21   -1    0    0  502  501  0.00000000000E+00  0.00000000000E+00  0.21739329618E+03  0.21739329618E+03  0.00000000000E+00 0.  1.
         21   -1    0    0  501  502 -0.00000000000E+00 -0.00000000000E+00 -0.24348448001E+03  0.24348448001E+03  0.00000000000E+00 0.  1.
         25    1    1    2    0    0 -0.25724473395E+02  0.18735313834E+03 -0.52401796279E+02  0.23266691908E+03  0.12500000000E+03 0.  0.
         25    1    1    2    0    0  0.25724473395E+02 -0.18735313834E+03  0.26310612450E+02  0.22821085712E+03  0.12500000000E+03 0.  0.
</event>
<event>
 4    0  0.2202290E-002  0.2273989E+03  0.7546771E-02  0.1128484E+00
         21   -1    0    0  502  501  0.00000000000E+00  0.00000000000E+00  0.23443879430E+03  0.23443879430E+03  0.00000000000E+00 0.  1.
         21   -1    0    0  501  502 -0.00000000000E+00 -0.00000000000E+00 -0.22057037473E+03  0.22057037473E+03  0.00000000000E+00 0.  1.
         25    1    1    2    0    0 -0.69862408484E+02 -0.36800495838E+01  0.18362591029E+03  0.23289004662E+03  0.12500000000E+03 0.  0.
         25    1    1    2    0    0  0.69862408484E+02  0.36800495838E+01 -0.16975749073E+03  0.22211912241E+03  0.12500000000E+03 0.  0.
</event>
<event>
 4    0  0.2202290E-002  0.1744425E+03  0.7546771E-02  0.1173293E+00
         21   -1    0    0  502  501  0.00000000000E+00  0.00000000000E+00  0.47421599816E+03  0.47421599816E+03  0.00000000000E+00 0.  1.
         21   -1    0    0  501  502 -0.00000000000E+00 -0.00000000000E+00 -0.64169468371E+02  0.64169468371E+02  0.00000000000E+00 0.  1.
         25    1    1    2    0    0 -0.14422793293E+02 -0.61896434188E+02  0.44905964811E+02  0.14724378156E+03  0.12500000000E+03 0.  0.
         25    1    1    2    0    0  0.14422793293E+02  0.61896434188E+02  0.36514056497E+03  0.39114168497E+03  0.12500000000E+03 0.  0.
</event>
<event>
 4    0  0.2202290E-002  0.1996040E+03  0.7546771E-02  0.1150074E+00
         21   -1    0    0  502  501  0.00000000000E+00  0.00000000000E+00  0.22207281338E+04  0.22207281338E+04  0.00000000000E+00 0. -1.
         21   -1    0    0  501  502 -0.00000000000E+00 -0.00000000000E+00 -0.17940848876E+02  0.17940848876E+02  0.00000000000E+00 0. -1.
         25    1    1    2    0    0 -0.13508225388E+03  0.66735942494E+02  0.13197261030E+04  0.13341674888E+04  0.12500000000E+03 0.  0.
         25    1    1    2    0    0  0.13508225388E+03 -0.66735942494E+02  0.88306118192E+03  0.90450149383E+03  0.12500000000E+03 0.  0.
</event>
<event>
 4    0  0.2202290E-002  0.2839950E+03  0.7546771E-02  0.1093527E+00
         21   -1    0    0  502  501  0.00000000000E+00  0.00000000000E+00  0.97434279809E+03  0.97434279809E+03  0.00000000000E+00 0.  1.
         21   -1    0    0  501  502 -0.00000000000E+00 -0.00000000000E+00 -0.82777001676E+02  0.82777001676E+02  0.00000000000E+00 0.  1.
         25    1    1    2    0    0 -0.15695912162E+03 -0.76654070203E+02  0.79155880770E+03  0.82018434415E+03  0.12500000000E+03 0.  0.
         25    1    1    2    0    0  0.15695912162E+03  0.76654070203E+02  0.10000698871E+03  0.23693545562E+03  0.12500000000E+03 0.  0.
</event>
<event>
 4    0  0.2202290E-002  0.1862323E+03  0.7546771E-02  0.1161904E+00
         21   -1    0    0  502  501  0.00000000000E+00  0.00000000000E+00  0.62800207426E+03  0.62800207426E+03  0.00000000000E+00 0.  1.
         21   -1    0    0  501  502 -0.00000000000E+00 -0.00000000000E+00 -0.55226676958E+02  0.55226676958E+02  0.00000000000E+00 0.  1.
         25    1    1    2    0    0  0.60603157124E+02 -0.12373890347E+03  0.27067122167E+03  0.32843868396E+03  0.12500000000E+03 0.  0.
         25    1    1    2    0    0 -0.60603157124E+02  0.12373890347E+03  0.30210417563E+03  0.35479006725E+03  0.12500000000E+03 0.  0.
</event>
<event>
 4    0  0.2202290E-002  0.3083675E+03  0.7546771E-02  0.1081131E+00
         21   -1    0    0  502  501  0.00000000000E+00  0.00000000000E+00  0.30664877525E+03  0.30664877525E+03  0.00000000000E+00 0.  1.
         21   -1    0    0  501  502 -0.00000000000E+00 -0.00000000000E+00 -0.31009579183E+03  0.31009579183E+03  0.00000000000E+00 0.  1.
         25    1    1    2    0    0 -0.77436792978E+02  0.13088878847E+03 -0.23908172450E+03  0.30969889061E+03  0.12500000000E+03 0.  0.
         25    1    1    2    0    0  0.77436792978E+02 -0.13088878847E+03  0.23563470793E+03  0.30704567646E+03  0.12500000000E+03 0.  0.
</event>
<event>
 4    0  0.2202290E-002  0.2201924E+03  0.7546771E-02  0.1133740E+00
         21   -1    0    0  502  501  0.00000000000E+00  0.00000000000E+00  0.54105960430E+02  0.54105960430E+02  0.00000000000E+00 0.  1.
         21   -1    0    0  501  502 -0.00000000000E+00 -0.00000000000E+00 -0.89610655298E+03  0.89610655298E+03  0.00000000000E+00 0.  1.
         25    1    1    2    0    0 -0.26597478274E+02 -0.16257121454E+03 -0.58422868346E+03  0.61974589972E+03  0.12500000000E+03 0.  0.
         25    1    1    2    0    0  0.26597478274E+02  0.16257121454E+03 -0.25777190909E+03  0.33046661369E+03  0.12500000000E+03 0.  0.
</event>
<event>
 4    0  0.2202290E-002  0.4353366E+03  0.7546771E-02  0.1032187E+00
         21   -1    0    0  502  501  0.00000000000E+00  0.00000000000E+00  0.12402831772E+04  0.12402831772E+04  0.00000000000E+00 0. -1.
         21   -1    0    0  501  502 -0.00000000000E+00 -0.00000000000E+00 -0.15280218946E+03  0.15280218946E+03  0.00000000000E+00 0. -1.
         25    1    1    2    0    0 -0.17259498396E+02 -0.17367873802E+02  0.12098008658E+04  0.12164878414E+04  0.12500000000E+03 0.  0.
         25    1    1    2    0    0  0.17259498396E+02  0.17367873802E+02 -0.12231987813E+03  0.17659752521E+03  0.12500000000E+03 0.  0.
</event>
<event>
 4    0  0.2202290E-002  0.2165618E+03  0.7546771E-02  0.1136473E+00
         21   -1    0    0  502  501  0.00000000000E+00  0.00000000000E+00  0.23986227327E+03  0.23986227327E+03  0.00000000000E+00 0. -1.
         21   -1    0    0  501  502 -0.00000000000E+00 -0.00000000000E+00 -0.19552474713E+03  0.19552474713E+03  0.00000000000E+00 0. -1.
         25    1    1    2    0    0  0.10844619947E+03  0.23649821191E+01  0.16256912408E+03  0.23199114514E+03  0.12500000000E+03 0.  0.
         25    1    1    2    0    0 -0.10844619947E+03 -0.23649821191E+01 -0.11823159793E+03  0.20339587525E+03  0.12500000000E+03 0.  0.
</event>
<event>
 4    0  0.2202290E-002  0.2375321E+03  0.7546771E-02  0.1121448E+00
         21   -1    0    0  502  501  0.00000000000E+00  0.00000000000E+00  0.22785679203E+03  0.22785679203E+03  0.00000000000E+00 0. -1.
         21   -1    0    0  501  502 -0.00000000000E+00 -0.00000000000E+00 -0.24761816615E+03  0.24761816615E+03  0.00000000000E+00 0. -1.
         25    1    1    2    0    0  0.39913890078E+02 -0.10886823506E+03  0.15564392208E+03  0.23085805532E+03  0.12500000000E+03 0.  0.
         25    1    1    2    0    0 -0.39913890078E+02  0.10886823506E+03 -0.17540529621E+03  0.24461690286E+03  0.12500000000E+03 0.  0.
</event>
<event>
 4    0  0.2202290E-002  0.4085522E+03  0.7546771E-02  0.1040858E+00
         21   -1    0    0  502  501  0.00000000000E+00  0.00000000000E+00  0.15327724741E+03  0.15327724741E+03  0.00000000000E+00 0. -1.
         21   -1    0    0  501  502 -0.00000000000E+00 -0.00000000000E+00 -0.10889738375E+04  0.10889738375E+04  0.00000000000E+00 0. -1.
         25    1    1    2    0    0  0.12082353420E+03  0.26172166082E+03 -0.70837003799E+02  0.32208606810E+03  0.12500000000E+03 0.  0.
         25    1    1    2    0    0 -0.12082353420E+03 -0.26172166082E+03 -0.86485958627E+03  0.92016501679E+03  0.12500000000E+03 0.  0.
</event>
<event>
 4    0  0.2202290E-002  0.1789502E+03  0.7546771E-02  0.1168823E+00
         21   -1    0    0  502  501  0.00000000000E+00  0.00000000000E+00  0.57668913771E+02  0.57668913771E+02  0.00000000000E+00 0. -1.
         21   -1    0    0  501  502 -0.00000000000E+00 -0.00000000000E+00 -0.55529376207E+03  0.55529376207E+03  0.00000000000E+00 0. -1.
         25    1    1    2    0    0  0.72623354034E+02 -0.37915142013E+02 -0.41737249769E+03  0.44332438617E+03  0.12500000000E+03 0.  0.
         25    1    1    2    0    0 -0.72623354034E+02  0.37915142013E+02 -0.80252350615E+02  0.16963828968E+03  0.12500000000E+03 0.  0.
</event>
<event>
 4    0  0.2202290E-002  0.2781784E+03  0.7546771E-02  0.1096688E+00
         21   -1    0    0  502  501  0.00000000000E+00  0.00000000000E+00  0.78702226358E+03  0.78702226358E+03  0.00000000000E+00 0.  1.
         21   -1    0    0  501  502 -0.00000000000E+00 -0.00000000000E+00 -0.98324083462E+02  0.98324083462E+02  0.00000000000E+00 0.  1.
         25    1    1    2    0    0  0.96692016433E+02 -0.22263951725E+03  0.42916168533E+03  0.50864767063E+03  0.12500000000E+03 0.  0.
         25    1    1    2    0    0 -0.96692016433E+02  0.22263951725E+03  0.25953649479E+03  0.37669867642E+03  0.12500000000E+03 0.  0.
</event>
<event>
 4    0  0.2202290E-002  0.2659565E+03  0.7546771E-02  0.1103616E+00
         21   -1    0    0  502  501  0.00000000000E+00  0.00000000000E+00  0.97024898869E+02  0.97024898869E+02  0.00000000000E+00 0. -1.
         21   -1    0    0  501  502 -0.00000000000E+00 -0.00000000000E+00 -0.72901786344E+03  0.72901786344E+03  0.00000000000E+00 0. -1.
         25    1    1    2    0    0  0.83209857618E+02 -0.63894852108E+02 -0.64212463775E+03  0.66253715589E+03  0.12500000000E+03 0.  0.
         25    1    1    2    0    0 -0.83209857618E+02  0.63894852108E+02  0.10131673174E+02  0.16350560642E+03  0.12500000000E+03 0.  0.
</event>
<event>
 4    0  0.2202290E-002  0.2191604E+03  0.7546771E-02  0.1134511E+00
         21   -1    0    0  502  501  0.00000000000E+00  0.00000000000E+00  0.37899593365E+02  0.37899593365E+02  0.00000000000E+00 0.  1.
         21   -1    0    0  501  502 -0.00000000000E+00 -0.00000000000E+00 -0.12673295667E+04  0.12673295667E+04  0.00000000000E+00 0.  1.
         25    1    1    2    0    0 -0.58900843995E+02  0.92311858162E+02 -0.10401905107E+04  0.10533812639E+04  0.12500000000E+03 0.  0.
         25    1    1    2    0    0  0.58900843995E+02 -0.92311858162E+02 -0.18923946260E+03  0.25184789613E+03  0.12500000000E+03 0.  0.
</event>
<event>
 4    0  0.2202290E-002  0.1998225E+03  0.7546771E-02  0.1149889E+00
         21   -1    0    0  502  501  0.00000000000E+00  0.00000000000E+00  0.45033449581E+03  0.45033449581E+03  0.00000000000E+00 0. -1.
         21   -1    0    0  501  502 -0.00000000000E+00 -0.00000000000E+00 -0.88665277959E+02  0.88665277959E+02  0.00000000000E+00 0. -1.
         25    1    1    2    0    0 -0.68052562618E+02  0.13694370152E+03  0.13994208639E+03  0.24206097622E+03  0.12500000000E+03 0.  0.
         25    1    1    2    0    0  0.68052562618E+02 -0.13694370152E+03  0.22172713146E+03  0.29693879755E+03  0.12500000000E+03 0.  0.
</event>
<event>
 4    0  0.2202290E-002  0.3096012E+03  0.7546771E-02  0.1080537E+00
         21   -1    0    0  502  501  0.00000000000E+00  0.00000000000E+00  0.36326181028E+03  0.36326181028E+03  0.00000000000E+00 0. -1.
         21   -1    0    0  501  502 -0.00000000000E+00 -0.00000000000E+00 -0.26386731826E+03  0.26386731826E+03  0.00000000000E+00 0. -1.
         25    1    1    2    0    0  0.34944720423E+02 -0.11748862482E+03 -0.20892077873E+03  0.27257586509E+03  0.12500000000E+03 0.  0.
         25    1    1    2    0    0 -0.34944720423E+02  0.11748862482E+03  0.30831527075E+03  0.35455326345E+03  0.12500000000E+03 0.  0.
</event>
<event>
 4    0  0.2202290E-002  0.2246059E+03  0.7546771E-02  0.1130495E+00
         21   -1    0    0  502  501  0.00000000000E+00  0.00000000000E+00  0.54447296638E+03  0.54447296638E+03  0.00000000000E+00 0. -1.
         21   -1    0    0  501  502 -0.00000000000E+00 -0.00000000000E+00 -0.92654356452E+02  0.92654356452E+02  0.00000000000E+00 0. -1.
         25    1    1    2    0    0  0.15300172531E+03  0.10635213592E+03  0.21155075135E+03  0.30838129832E+03  0.12500000000E+03 0.  0.
         25    1    1    2    0    0 -0.15300172531E+03 -0.10635213592E+03  0.24026785858E+03  0.32874602451E+03  0.12500000000E+03 0.  0.
</event>
<event>
 4    0  0.2202290E-002  0.2166606E+03  0.7546771E-02  0.1136397E+00
         21   -1    0    0  502  501  0.00000000000E+00  0.00000000000E+00  0.26071917841E+04  0.26071917841E+04  0.00000000000E+00 0.  1.
         21   -1    0    0  501  502 -0.00000000000E+00 -0.00000000000E+00 -0.18004737183E+02  0.18004737183E+02  0.00000000000E+00 0.  1.
         25    1    1    2    0    0  0.15323523642E+03  0.75461554954E+01  0.76026442839E+03  0.78559848728E+03  0.12500000000E+03 0.  0.
         25    1    1    2    0    0 -0.15323523642E+03 -0.75461554954E+01  0.18289226186E+04  0.18395980341E+04  0.12500000000E+03 0.  0.
</event>
<event>
 4    0  0.2202290E-002  0.5234185E+03  0.7546771E-02  0.1007841E+00
         21   -1    0    0  502  501  0.00000000000E+00  0.00000000000E+00  0.15247535020E+04  0.15247535020E+04  0.00000000000E+00 0.  1.
         21   -1    0    0  501  502 -0.00000000000E+00 -0.00000000000E+00 -0.17967945211E+03  0.17967945211E+03  0.00000000000E+00 0.  1.
         25    1    1    2    0    0 -0.27526510377E+03  0.38952810017E+03  0.95846064051E+03  0.10778565849E+04  0.12500000000E+03 0.  0.
         25    1    1    2    0    0  0.27526510377E+03 -0.38952810017E+03  0.38661340942E+03  0.62657636926E+03  0.12500000000E+03 0.  0.
</event>
<event>
 4    0  0.2202290E-002  0.2172947E+03  0.7546771E-02  0.1135916E+00
         21   -1    0    0  502  501  0.00000000000E+00  0.00000000000E+00  0.69739547326E+02  0.69739547326E+02  0.00000000000E+00 0.  1.
         21   -1    0    0  501  502 -0.00000000000E+00 -0.00000000000E+00 -0.67704733226E+03  0.67704733226E+03  0.00000000000E+00 0.  1.
         25    1    1    2    0    0 -0.13300379135E+03  0.11652345307E+03 -0.33459658923E+03  0.39855689826E+03  0.12500000000E+03 0.  0.
         25    1    1    2    0    0  0.13300379135E+03 -0.11652345307E+03 -0.27271119571E+03  0.34822998133E+03  0.12500000000E+03 0.  0.
</event>
<event>
 4    0  0.2202290E-002  0.2667861E+03  0.7546771E-02  0.1103133E+00
         21   -1    0    0  502  501  0.00000000000E+00  0.00000000000E+00  0.68592723457E+03  0.68592723457E+03  0.00000000000E+00 0.  1.
         21   -1    0    0  501  502 -0.00000000000E+00 -0.00000000000E+00 -0.10376440707E+03  0.10376440707E+03  0.00000000000E+00 0.  1.
         25    1    1    2    0    0 -0.16671285225E+03 -0.10630325946E+03  0.10122289764E+03  0.25488160601E+03  0.12500000000E+03 0.  0.
         25    1    1    2    0    0  0.16671285225E+03  0.10630325946E+03  0.48093992986E+03  0.53481003563E+03  0.12500000000E+03 0.  0.
</event>
<event>
 4    0  0.2202290E-002  0.2170019E+03  0.7546771E-02  0.1136138E+00
         21   -1    0    0  502  501  0.00000000000E+00  0.00000000000E+00  0.67321307556E+03  0.67321307556E+03  0.00000000000E+00 0. -1.
         21   -1    0    0  501  502 -0.00000000000E+00 -0.00000000000E+00 -0.69947884093E+02  0.69947884093E+02  0.00000000000E+00 0. -1.
         25    1    1    2    0    0  0.68338738584E+02 -0.16368639364E+03  0.29959820823E+03  0.36992905405E+03  0.12500000000E+03 0.  0.
         25    1    1    2    0    0 -0.68338738584E+02  0.16368639364E+03  0.30366698323E+03  0.37323190560E+03  0.12500000000E+03 0.  0.
</event>
<event>
 4    0  0.2202290E-002  0.1580451E+03  0.7546771E-02  0.1190922E+00
         21   -1    0    0  502  501  0.00000000000E+00  0.00000000000E+00  0.21693497942E+04  0.21693497942E+04  0.00000000000E+00 0. -1.
         21   -1    0    0  501  502 -0.00000000000E+00 -0.00000000000E+00 -0.11514164356E+02  0.11514164356E+02  0.00000000000E+00 0. -1.
         25    1    1    2    0    0  0.69696863591E+02 -0.64421955408E+02  0.95068937323E+03  0.96355753617E+03  0.12500000000E+03 0.  0.
         25    1    1    2    0    0 -0.69696863591E+02  0.64421955408E+02  0.12071462566E+04  0.12173064224E+04  0.12500000000E+03 0.  0.
</event>
<event>
 4    0  0.2202290E-002  0.2176244E+03  0.7546771E-02  0.1135667E+00
         21   -1    0    0  502  501  0.00000000000E+00  0.00000000000E+00  0.26767576470E+02  0.26767576470E+02  0.00000000000E+00 0. -1.
         21   -1    0    0  501  502 -0.00000000000E+00 -0.00000000000E+00 -0.17693196911E+04  0.17693196911E+04  0.00000000000E+00 0. -1.
         25    1    1    2    0    0  0.76732724690E+02  0.15933946574E+03 -0.95962946644E+03  0.98376353320E+03  0.12500000000E+03 0.  0.
         25    1    1    2    0    0 -0.76732724690E+02 -0.15933946574E+03 -0.78292264821E+03  0.81232373439E+03  0.12500000000E+03 0.  0.
</event>
<event>
 4    0  0.2202290E-002  0.1713016E+03  0.7546771E-02  0.1176497E+00
         21   -1    0    0  502  501  0.00000000000E+00  0.00000000000E+00  0.26903363172E+03  0.26903363172E+03  0.00000000000E+00 0.  1.
         21   -1    0    0  501  502 -0.00000000000E+00 -0.00000000000E+00 -0.10907270653E+03  0.10907270653E+03  0.00000000000E+00 0.  1.
         25    1    1    2    0    0  0.10377717176E+03 -0.15920800301E+02  0.22676210261E+02  0.16481014463E+03  0.12500000000E+03 0.  0.
         25    1    1    2    0    0 -0.10377717176E+03  0.15920800301E+02  0.13728471493E+03  0.21329619362E+03  0.12500000000E+03 0.  0.
</event>
<event>
 4    0  0.2202290E-002  0.1956582E+03  0.7546771E-02  0.1153455E+00
         21   -1    0    0  502  501  0.00000000000E+00  0.00000000000E+00  0.25906607376E+04  0.25906607376E+04  0.00000000000E+00 0. -1.
         21   -1    0    0  501  502 -0.00000000000E+00 -0.00000000000E+00 -0.14776972263E+02  0.14776972263E+02  0.00000000000E+00 0. -1.
         25    1    1    2    0    0 -0.30522028529E+02 -0.62409691246E+02  0.39887349918E+03  0.42373533265E+03  0.12500000000E+03 0.  0.
         25    1    1    2    0    0  0.30522028529E+02  0.62409691246E+02  0.21770102661E+04  0.21817023772E+04  0.12500000000E+03 0.  0.
</event>
<event>
 4    0  0.2202290E-002  0.1998581E+03  0.7546771E-02  0.1149859E+00
         21   -1    0    0  502  501  0.00000000000E+00  0.00000000000E+00  0.10899524240E+04  0.10899524240E+04  0.00000000000E+00 0.  1.
         21   -1    0    0  501  502 -0.00000000000E+00 -0.00000000000E+00 -0.36646790631E+02  0.36646790631E+02  0.00000000000E+00 0.  1.
         25    1    1    2    0    0  0.73780759210E+02  0.67471534140E+02  0.86395824336E+03  0.87866083025E+03  0.12500000000E+03 0.  0.
         25    1    1    2    0    0 -0.73780759210E+02 -0.67471534140E+02  0.18934739004E+03  0.24793838441E+03  0.12500000000E+03 0.  0.
</event>
<event>
 4    0  0.2202290E-002  0.1746911E+03  0.7546771E-02  0.1173042E+00
         21   -1    0    0  502  501  0.00000000000E+00  0.00000000000E+00  0.14568437250E+04  0.14568437250E+04  0.00000000000E+00 0. -1.
         21   -1    0    0  501  502 -0.00000000000E+00 -0.00000000000E+00 -0.20947334546E+02  0.20947334546E+02  0.00000000000E+00 0. -1.
         25    1    1    2    0    0  0.21121700188E+02 -0.16459418571E+02  0.21436294282E+03  0.24958667820E+03  0.12500000000E+03 0.  0.
         25    1    1    2    0    0 -0.21121700188E+02  0.16459418571E+02  0.12215334476E+04  0.12282043813E+04  0.12500000000E+03 0.  0.
</event>
<event>
 4    0  0.2202290E-002  0.1942893E+03  0.7546771E-02  0.1154649E+00
         21   -1    0    0  502  501  0.00000000000E+00  0.00000000000E+00  0.12509545103E+03  0.12509545103E+03  0.00000000000E+00 0.  1.
         21   -1    0    0  501  502 -0.00000000000E+00 -0.00000000000E+00 -0.30175632588E+03  0.30175632588E+03  0.00000000000E+00 0.  1.
         25    1    1    2    0    0  0.11014306702E+02 -0.12336040109E+03  0.21487632076E+01  0.17597931894E+03  0.12500000000E+03 0.  0.
         25    1    1    2    0    0 -0.11014306702E+02  0.12336040109E+03 -0.17880963806E+03  0.25087245798E+03  0.12500000000E+03 0.  0.
</event>
<event>
 4    0  0.2202290E-002  0.2882742E+03  0.7546771E-02  0.1091254E+00
         21   -1    0    0  502  501  0.00000000000E+00  0.00000000000E+00  0.16163837393E+04  0.16163837393E+04  0.00000000000E+00 0.  1.
         21   -1    0    0  501  502 -0.00000000000E+00 -0.00000000000E+00 -0.51412293127E+02  0.51412293127E+02  0.00000000000E+00 0.  1.
         25    1    1    2    0    0 -0.17004671465E+03  0.87578108000E+02  0.12909079132E+04  0.13109744660E+04  0.12500000000E+03 0.  0.
         25    1    1    2    0    0  0.17004671465E+03 -0.87578108000E+02  0.27406353302E+03  0.35682156646E+03  0.12500000000E+03 0.  0.
</event>
<event>
 4    0  0.2202290E-002  0.2473369E+03  0.7546771E-02  0.1114999E+00
         21   -1    0    0  502  501  0.00000000000E+00  0.00000000000E+00  0.58185471383E+02  0.58185471383E+02  0.00000000000E+00 0. -1.
         21   -1    0    0  501  502 -0.00000000000E+00 -0.00000000000E+00 -0.10513887051E+04  0.10513887051E+04  0.00000000000E+00 0. -1.
         25    1    1    2    0    0  0.15627930057E+03  0.11107878642E+03 -0.28631919725E+03  0.36655886197E+03  0.12500000000E+03 0.  0.
         25    1    1    2    0    0 -0.15627930057E+03 -0.11107878642E+03 -0.70688403651E+03  0.74301531455E+03  0.12500000000E+03 0.  0.
</event>
<event>
 4    0  0.2202290E-002  0.2492491E+03  0.7546771E-02  0.1113780E+00
         21   -1    0    0  502  501  0.00000000000E+00  0.00000000000E+00  0.44858292816E+03  0.44858292816E+03  0.00000000000E+00 0. -1.
         21   -1    0    0  501  502 -0.00000000000E+00 -0.00000000000E+00 -0.13849193870E+03  0.13849193870E+03  0.00000000000E+00 0. -1.
         25    1    1    2    0    0 -0.53585918496E+02 -0.54046922891E+02 -0.82566093677E+02  0.16803178378E+03  0.12500000000E+03 0.  0.
         25    1    1    2    0    0  0.53585918496E+02  0.54046922891E+02  0.39265708314E+03  0.41904308308E+03  0.12500000000E+03 0.  0.
</event>
<event>
 4    0  0.2202290E-002  0.1846746E+03  0.7546771E-02  0.1163354E+00
         21   -1    0    0  502  501  0.00000000000E+00  0.00000000000E+00  0.83341114371E+03  0.83341114371E+03  0.00000000000E+00 0. -1.
         21   -1    0    0  501  502 -0.00000000000E+00 -0.00000000000E+00 -0.40921815240E+02  0.40921815240E+02  0.00000000000E+00 0. -1.
         25    1    1    2    0    0 -0.67492846805E+02  0.51562331273E+02  0.14498684273E+03  0.20942813312E+03  0.12500000000E+03 0.  0.
         25    1    1    2    0    0  0.67492846805E+02 -0.51562331273E+02  0.64750248574E+03  0.66490482583E+03  0.12500000000E+03 0.  0.
</event>
<event>
 4    0  0.2202290E-002  0.1763280E+03  0.7546771E-02  0.1171405E+00
         21   -1    0    0  502  501  0.00000000000E+00  0.00000000000E+00  0.59521177603E+03  0.59521177603E+03  0.00000000000E+00 0.  1.
         21   -1    0    0  501  502 -0.00000000000E+00 -0.00000000000E+00 -0.52236154444E+02  0.52236154444E+02  0.00000000000E+00 0.  1.
         25    1    1    2    0    0 -0.85448578039E+02 -0.54846586152E+02  0.40332886324E+03  0.43429112289E+03  0.12500000000E+03 0.  0.
         25    1    1    2    0    0  0.85448578039E+02  0.54846586152E+02  0.13964675834E+03  0.21315680758E+03  0.12500000000E+03 0.  0.
</event>
<event>
 4    0  0.2202290E-002  0.1862923E+03  0.7546771E-02  0.1161849E+00
         21   -1    0    0  502  501  0.00000000000E+00  0.00000000000E+00  0.78175163059E+02  0.78175163059E+02  0.00000000000E+00 0. -1.
         21   -1    0    0  501  502 -0.00000000000E+00 -0.00000000000E+00 -0.44393660933E+03  0.44393660933E+03  0.00000000000E+00 0. -1.
         25    1    1    2    0    0  0.10989455147E+03 -0.83528967897E+02 -0.17574690931E+03  0.25605834697E+03  0.12500000000E+03 0.  0.
         25    1    1    2    0    0 -0.10989455147E+03  0.83528967897E+02 -0.19001453696E+03  0.26605342542E+03  0.12500000000E+03 0.  0.
</event>
<event>
 4    0  0.2202290E-002  0.2507249E+03  0.7546771E-02  0.1112848E+00
         21   -1    0    0  502  501  0.00000000000E+00  0.00000000000E+00  0.11452098779E+03  0.11452098779E+03  0.00000000000E+00 0.  1.
         21   -1    0    0  501  502 -0.00000000000E+00 -0.00000000000E+00 -0.54892084006E+03  0.54892084006E+03  0.00000000000E+00 0.  1.
         25    1    1    2    0    0 -0.88630843702E+02 -0.19656700173E+03 -0.18111335392E+03  0.30809261529E+03  0.12500000000E+03 0.  0.
         25    1    1    2    0    0  0.88630843702E+02  0.19656700173E+03 -0.25328649835E+03  0.35534921257E+03  0.12500000000E+03 0.  0.
</event>
<event>
 4    0  0.2202290E-002  0.2021863E+03  0.7546771E-02  0.1147907E+00
         21   -1    0    0  502  501  0.00000000000E+00  0.00000000000E+00  0.58162656246E+02  0.58162656246E+02  0.00000000000E+00 0.  1.
         21   -1    0    0  501  502 -0.00000000000E+00 -0.00000000000E+00 -0.70284441058E+03  0.70284441058E+03  0.00000000000E+00 0.  1.
         25    1    1    2    0    0  0.13266811251E+03  0.72621851493E+02 -0.23053866182E+03  0.30273393597E+03  0.12500000000E+03 0.  0.
         25    1    1    2    0    0 -0.13266811251E+03 -0.72621851493E+02 -0.41414309251E+03  0.45827313086E+03  0.12500000000E+03 0.  0.
</event>
<event>
 4    0  0.2202290E-002  0.2036585E+03  0.7546771E-02  0.1146689E+00
         21   -1    0    0  502  501  0.00000000000E+00  0.00000000000E+00  0.36179760512E+03  0.36179760512E+03  0.00000000000E+00 0. -1.
         21   -1    0    0  501  502 -0.00000000000E+00 -0.00000000000E+00 -0.11464082008E+03  0.11464082008E+03  0.00000000000E+00 0. -1.
         25    1    1    2    0    0  0.14121984756E+03  0.67028892919E+02  0.79565096648E+02  0.21538691334E+03  0.12500000000E+03 0.  0.
         25    1    1    2    0    0 -0.14121984756E+03 -0.67028892919E+02  0.16759168838E+03  0.26105151187E+03  0.12500000000E+03 0.  0.
</event>
<event>
 4    0  0.2202290E-002  0.2853514E+03  0.7546771E-02  0.1092802E+00
         21   -1    0    0  502  501  0.00000000000E+00  0.00000000000E+00  0.55618259359E+03  0.55618259359E+03  0.00000000000E+00 0. -1.
         21   -1    0    0  501  502 -0.00000000000E+00 -0.00000000000E+00 -0.14640048170E+03  0.14640048170E+03  0.00000000000E+00 0. -1.
         25    1    1    2    0    0  0.20197002240E+03 -0.14384345732E+03  0.12399871477E+03  0.30411101826E+03  0.12500000000E+03 0.  0.
         25    1    1    2    0    0 -0.20197002240E+03  0.14384345732E+03  0.28578339713E+03  0.39847205703E+03  0.12500000000E+03 0.  0.
</event>
<event>
 4    0  0.2202290E-002  0.4012359E+03  0.7546771E-02  0.1043353E+00
         21   -1    0    0  502  501  0.00000000000E+00  0.00000000000E+00  0.77429650239E+03  0.77429650239E+03  0.00000000000E+00 0.  1.
         21   -1    0    0  501  502 -0.00000000000E+00 -0.00000000000E+00 -0.20791812799E+03  0.20791812799E+03  0.00000000000E+00 0.  1.
         25    1    1    2    0    0  0.89396441601E+02 -0.34355225589E+03  0.45343069878E+03  0.58927436300E+03  0.12500000000E+03 0.  0.
         25    1    1    2    0    0 -0.89396441601E+02  0.34355225589E+03  0.11294767562E+03  0.39294026738E+03  0.12500000000E+03 0.  0.
</event>
<event>
 4    0  0.2202290E-002  0.2434590E+03  0.7546771E-02  0.1117510E+00
         21   -1    0    0  502  501  0.00000000000E+00  0.00000000000E+00  0.16250304067E+03  0.16250304067E+03  0.00000000000E+00 0.  1.
         21   -1    0    0  501  502 -0.00000000000E+00 -0.00000000000E+00 -0.36474561994E+03  0.36474561994E+03  0.00000000000E+00 0.  1.
         25    1    1    2    0    0  0.51689069622E+02  0.15451038477E+03 -0.24272799871E+03  0.31794197627E+03  0.12500000000E+03 0.  0.
         25    1    1    2    0    0 -0.51689069622E+02 -0.15451038477E+03  0.40485419438E+02  0.20930668433E+03  0.12500000000E+03 0.  0.
</event>
<event>
 4    0  0.2202290E-002  0.2119906E+03  0.7546771E-02  0.1139999E+00
         21   -1    0    0  502  501  0.00000000000E+00  0.00000000000E+00  0.35938568902E+02  0.35938568902E+02  0.00000000000E+00 0.  1.
         21   -1    0    0  501  502 -0.00000000000E+00 -0.00000000000E+00 -0.12504680744E+04  0.12504680744E+04  0.00000000000E+00 0.  1.
         25    1    1    2    0    0 -0.26047514934E+02 -0.15863976011E+03 -0.78599393940E+03  0.81194613078E+03  0.12500000000E+03 0.  0.
         25    1    1    2    0    0  0.26047514934E+02  0.15863976011E+03 -0.42853556605E+03  0.47446051247E+03  0.12500000000E+03 0.  0.
</event>
<event>
 4    0  0.2202290E-002  0.1837504E+03  0.7546771E-02  0.1164222E+00
         21   -1    0    0  502  501  0.00000000000E+00  0.00000000000E+00  0.15574950321E+02  0.15574950321E+02  0.00000000000E+00 0.  1.
         21   -1    0    0  501  502 -0.00000000000E+00 -0.00000000000E+00 -0.21678544496E+04  0.21678544496E+04  0.00000000000E+00 0.  1.
         25    1    1    2    0    0  0.70639058570E+02  0.11196969043E+03 -0.12231356233E+04  0.12366134566E+04  0.12500000000E+03 0.  0.
         25    1    1    2    0    0 -0.70639058570E+02 -0.11196969043E+03 -0.92914387597E+03  0.94681594326E+03  0.12500000000E+03 0.  0.
</event>
<event>
 4    0  0.2202290E-002  0.1837511E+03  0.7546771E-02  0.1164221E+00
         21   -1    0    0  502  501  0.00000000000E+00  0.00000000000E+00  0.12661453462E+04  0.12661453462E+04  0.00000000000E+00 0.  1.
         21   -1    0    0  501  502 -0.00000000000E+00 -0.00000000000E+00 -0.26667136297E+02  0.26667136297E+02  0.00000000000E+00 0.  1.
         25    1    1    2    0    0  0.84232440640E+02  0.37216062773E+02  0.27399952785E+03  0.31492996150E+03  0.12500000000E+03 0.  0.
         25    1    1    2    0    0 -0.84232440640E+02 -0.37216062773E+02  0.96547868205E+03  0.97788252100E+03  0.12500000000E+03 0.  0.
</event>
<event>
 4    0  0.2202290E-002  0.2719371E+03  0.7546771E-02  0.1100176E+00
         21   -1    0    0  502  501  0.00000000000E+00  0.00000000000E+00  0.87489590344E+03  0.87489590344E+03  0.00000000000E+00 0. -1.
         21   -1    0    0  501  502 -0.00000000000E+00 -0.00000000000E+00 -0.84524106553E+02  0.84524106553E+02  0.00000000000E+00 0. -1.
         25    1    1    2    0    0 -0.11651997019E+03 -0.20382211390E+03  0.29532714069E+03  0.39744619459E+03  0.12500000000E+03 0.  0.
         25    1    1    2    0    0  0.11651997019E+03  0.20382211390E+03  0.49504465620E+03  0.56197381541E+03  0.12500000000E+03 0.  0.
</event>
<event>
 4    0  0.2202290E-002  0.2127819E+03  0.7546771E-02  0.1139382E+00
         21   -1    0    0  502  501  0.00000000000E+00  0.00000000000E+00  0.10301291857E+04  0.10301291857E+04  0.00000000000E+00 0. -1.
         21   -1    0    0  501  502 -0.00000000000E+00 -0.00000000000E+00 -0.43951891598E+02  0.43951891598E+02  0.00000000000E+00 0. -1.
         25    1    1    2    0    0 -0.89342446141E+00  0.14714351580E+03  0.26735651814E+03  0.32978253477E+03  0.12500000000E+03 0.  0.
         25    1    1    2    0    0  0.89342446141E+00 -0.14714351580E+03  0.71882077599E+03  0.74429854255E+03  0.12500000000E+03 0.  0.
</event>
<event>
 4    0  0.2202290E-002  0.2087153E+03  0.7546771E-02  0.1142587E+00
         21   -1    0    0  502  501  0.00000000000E+00  0.00000000000E+00  0.39265378437E+02  0.39265378437E+02  0.00000000000E+00 0. -1.
         21   -1    0    0  501  502 -0.00000000000E+00 -0.00000000000E+00 -0.11094271006E+04  0.11094271006E+04  0.00000000000E+00 0. -1.
         25    1    1    2    0    0 -0.12967015847E+03  0.86010139498E+02 -0.70303144801E+03  0.73081482674E+03  0.12500000000E+03 0.  0.
         25    1    1    2    0    0  0.12967015847E+03 -0.86010139498E+02 -0.36713027418E+03  0.41787765233E+03  0.12500000000E+03 0.  0.
</event>
<event>
 4    0  0.2202290E-002  0.2090906E+03  0.7546771E-02  0.1142288E+00
         21   -1    0    0  502  501  0.00000000000E+00  0.00000000000E+00  0.22371256929E+03  0.22371256929E+03  0.00000000000E+00 0.  1.
         21   -1    0    0  501  502 -0.00000000000E+00 -0.00000000000E+00 -0.19542430353E+03  0.19542430353E+03  0.00000000000E+00 0.  1.
         25    1    1    2    0    0  0.44957713521E+02 -0.15791593058E+03 -0.19626130968E+02  0.20728922344E+03  0.12500000000E+03 0.  0.
         25    1    1    2    0    0 -0.44957713521E+02  0.15791593058E+03  0.47914396731E+02  0.21184764939E+03  0.12500000000E+03 0.  0.
</event>
<event>
 4    0  0.2202290E-002  0.1674537E+03  0.7546771E-02  0.1180530E+00
         21   -1    0    0  502  501  0.00000000000E+00  0.00000000000E+00  0.92216350692E+03  0.92216350692E+03  0.00000000000E+00 0.  1.
         21   -1    0    0  501  502 -0.00000000000E+00 -0.00000000000E+00 -0.30407559246E+02  0.30407559246E+02  0.00000000000E+00 0.  1.
         25    1    1    2    0    0 -0.72153101960E+02 -0.84830838270E+02  0.43546610442E+03  0.46653839000E+03  0.12500000000E+03 0.  0.
         25    1    1    2    0    0  0.72153101960E+02  0.84830838270E+02  0.45628984326E+03  0.48603267617E+03  0.12500000000E+03 0.  0.
</event>
<event>
 4    0  0.2202290E-002  0.2346306E+03  0.7546771E-02  0.1123422E+00
         21   -1    0    0  502  501  0.00000000000E+00  0.00000000000E+00  0.95721443011E+02  0.95721443011E+02  0.00000000000E+00 0. -1.
         21   -1    0    0  501  502 -0.00000000000E+00 -0.00000000000E+00 -0.57512213781E+03  0.57512213781E+03  0.00000000000E+00 0. -1.
         25    1    1    2    0    0 -0.44550152440E+01 -0.14639881524E+03 -0.43135956613E+03  0.47238600271E+03  0.12500000000E+03 0.  0.
         25    1    1    2    0    0  0.44550152440E+01  0.14639881524E+03 -0.48041128669E+02  0.19845757811E+03  0.12500000000E+03 0.  0.
</event>
<event>
 4    0  0.2202290E-002  0.2110619E+03  0.7546771E-02  0.1140728E+00
         21   -1    0    0  502  501  0.00000000000E+00  0.00000000000E+00  0.25647695138E+02  0.25647695138E+02  0.00000000000E+00 0.  1.
         21   -1    0    0  501  502 -0.00000000000E+00 -0.00000000000E+00 -0.17368867869E+04  0.17368867869E+04  0.00000000000E+00 0.  1.
         25    1    1    2    0    0 -0.15258631297E+03 -0.29061554262E+02 -0.56649073555E+03  0.60055300375E+03  0.12500000000E+03 0.  0.
         25    1    1    2    0    0  0.15258631297E+03  0.29061554262E+02 -0.11447483562E+04  0.11619814783E+04  0.12500000000E+03 0.  0.
</event>
<event>
 4    0  0.2202290E-002  0.2164285E+03  0.7546771E-02  0.1136574E+00
         21   -1    0    0  502  501  0.00000000000E+00  0.00000000000E+00  0.72426296948E+02  0.72426296948E+02  0.00000000000E+00 0.  1.
         21   -1    0    0  501  502 -0.00000000000E+00 -0.00000000000E+00 -0.64674440534E+03  0.64674440534E+03  0.00000000000E+00 0.  1.
         25    1    1    2    0    0  0.48866654853E+02  0.16943917848E+03 -0.26905631403E+03  0.34512879521E+03  0.12500000000E+03 0.  0.
         25    1    1    2    0    0 -0.48866654853E+02 -0.16943917848E+03 -0.30526179436E+03  0.37404190709E+03  0.12500000000E+03 0.  0.
</event>
<event>
 4    0  0.2202290E-002  0.2465185E+03  0.7546771E-02  0.1115525E+00
         21   -1    0    0  502  501  0.00000000000E+00  0.00000000000E+00  0.13205211545E+03  0.13205211545E+03  0.00000000000E+00 0.  1.
         21   -1    0    0  501  502 -0.00000000000E+00 -0.00000000000E+00 -0.46020732403E+03  0.46020732403E+03  0.00000000000E+00 0.  1.
         25    1    1    2    0    0  0.19525689509E+03  0.78213847307E+02 -0.20018882881E+03  0.31613798913E+03  0.12500000000E+03 0.  0.
         25    1    1    2    0    0 -0.19525689509E+03 -0.78213847307E+02 -0.12796637977E+03  0.27612145035E+03  0.12500000000E+03 0.  0.
</event>
<event>
 4    0  0.2202290E-002  0.3432084E+03  0.7546771E-02  0.1065438E+00
         21   -1    0    0  502  501  0.00000000000E+00  0.00000000000E+00  0.20688977043E+03  0.20688977043E+03  0.00000000000E+00 0. -1.
         21   -1    0    0  501  502 -0.00000000000E+00 -0.00000000000E+00 -0.56934681077E+03  0.56934681077E+03  0.00000000000E+00 0. -1.
         25    1    1    2    0    0 -0.23535209395E+03 -0.21512753833E+03 -0.20642815517E+03  0.39988504489E+03  0.12500000000E+03 0.  0.
         25    1    1    2    0    0  0.23535209395E+03  0.21512753833E+03 -0.15602888517E+03  0.37635153631E+03  0.12500000000E+03 0.  0.
</event>
<event>
 4    0  0.2202290E-002  0.2225344E+03  0.7546771E-02  0.1132008E+00
         21   -1    0    0  502  501  0.00000000000E+00  0.00000000000E+00  0.55422904727E+02  0.55422904727E+02  0.00000000000E+00 0. -1.
         21   -1    0    0  501  502 -0.00000000000E+00 -0.00000000000E+00 -0.89352157919E+03  0.89352157919E+03  0.00000000000E+00 0. -1.
         25    1    1    2    0    0  0.68108039314E+02  0.89097322407E+02 -0.10773265593E+03  0.19952033238E+03  0.12500000000E+03 0.  0.
         25    1    1    2    0    0 -0.68108039314E+02 -0.89097322407E+02 -0.73036601853E+03  0.74942415153E+03  0.12500000000E+03 0.  0.
</event>
<event>
 4    0  0.2202290E-002  0.1910664E+03  0.7546771E-02  0.1157503E+00
         21   -1    0    0  502  501  0.00000000000E+00  0.00000000000E+00  0.32131407214E+03  0.32131407214E+03  0.00000000000E+00 0.  1.
         21   -1    0    0  501  502 -0.00000000000E+00 -0.00000000000E+00 -0.11361585074E+03  0.11361585074E+03  0.00000000000E+00 0.  1.
         25    1    1    2    0    0 -0.27117359946E+01 -0.14252796786E+03  0.13077810020E+03  0.23032474167E+03  0.12500000000E+03 0.  0.
         25    1    1    2    0    0  0.27117359946E+01  0.14252796786E+03  0.76920121199E+02  0.20460518121E+03  0.12500000000E+03 0.  0.
</event>
<event>
 4    0  0.2202290E-002  0.1921505E+03  0.7546771E-02  0.1156536E+00
         21   -1    0    0  502  501  0.00000000000E+00  0.00000000000E+00  0.58088190543E+03  0.58088190543E+03  0.00000000000E+00 0.  1.
         21   -1    0    0  501  502 -0.00000000000E+00 -0.00000000000E+00 -0.63561683845E+02  0.63561683845E+02  0.00000000000E+00 0.  1.
         25    1    1    2    0    0  0.49699718041E+01  0.18235728027E+02  0.16000568459E+02  0.12742943376E+03  0.12500000000E+03 0.  0.
         25    1    1    2    0    0 -0.49699718041E+01 -0.18235728027E+02  0.50131965313E+03  0.51701415552E+03  0.12500000000E+03 0.  0.
</event>
<event>
 4    0  0.2202290E-002  0.1964024E+03  0.7546771E-02  0.1152810E+00
         21   -1    0    0  502  501  0.00000000000E+00  0.00000000000E+00  0.11604549188E+03  0.11604549188E+03  0.00000000000E+00 0. -1.
         21   -1    0    0  501  502 -0.00000000000E+00 -0.00000000000E+00 -0.33240333501E+03  0.33240333501E+03  0.00000000000E+00 0. -1.
         25    1    1    2    0    0 -0.14786121271E+03 -0.43133468349E+01 -0.14547752918E+03  0.24221943498E+03  0.12500000000E+03 0.  0.
         25    1    1    2    0    0  0.14786121271E+03  0.43133468349E+01 -0.70880313943E+02  0.20622939191E+03  0.12500000000E+03 0.  0.
</event>
<event>
 4    0  0.2202290E-002  0.2041877E+03  0.7546771E-02  0.1146253E+00
         21   -1    0    0  502  501  0.00000000000E+00  0.00000000000E+00  0.14223277054E+03  0.14223277054E+03  0.00000000000E+00 0. -1.
         21   -1    0    0  501  502 -0.00000000000E+00 -0.00000000000E+00 -0.29312953950E+03  0.29312953950E+03  0.00000000000E+00 0. -1.
         25    1    1    2    0    0 -0.26618540109E+02  0.10466647030E+03 -0.20339621024E+03  0.26202792795E+03  0.12500000000E+03 0.  0.
         25    1    1    2    0    0  0.26618540109E+02 -0.10466647030E+03  0.52499441282E+02  0.17333438210E+03  0.12500000000E+03 0.  0.
</event>
<event>
 4    0  0.2202290E-002  0.2374723E+03  0.7546771E-02  0.1121488E+00
         21   -1    0    0  502  501  0.00000000000E+00  0.00000000000E+00  0.76638598444E+03  0.76638598444E+03  0.00000000000E+00 0.  1.
         21   -1    0    0  501  502 -0.00000000000E+00 -0.00000000000E+00 -0.73583120176E+02  0.73583120176E+02  0.00000000000E+00 0.  1.
         25    1    1    2    0    0 -0.18385023530E+03 -0.80048879299E+02  0.38822858840E+03  0.45448340888E+03  0.12500000000E+03 0.  0.
         25    1    1    2    0    0  0.18385023530E+03  0.80048879299E+02  0.30457427586E+03  0.38548569573E+03  0.12500000000E+03 0.  0.
</event>
<event>
 4    0  0.2202290E-002  0.2711418E+03  0.7546771E-02  0.1100628E+00
         21   -1    0    0  502  501  0.00000000000E+00  0.00000000000E+00  0.72871827947E+03  0.72871827947E+03  0.00000000000E+00 0. -1.
         21   -1    0    0  501  502 -0.00000000000E+00 -0.00000000000E+00 -0.10088654365E+03  0.10088654365E+03  0.00000000000E+00 0. -1.
         25    1    1    2    0    0 -0.47926838421E+02  0.18966077462E+02 -0.45631915592E+02  0.14270236738E+03  0.12500000000E+03 0.  0.
         25    1    1    2    0    0  0.47926838421E+02 -0.18966077462E+02  0.67346365141E+03  0.68690245575E+03  0.12500000000E+03 0.  0.
</event>
<event>
 4    0  0.2202290E-002  0.1581604E+03  0.7546771E-02  0.1190789E+00
         21   -1    0    0  502  501  0.00000000000E+00  0.00000000000E+00  0.21607642785E+03  0.21607642785E+03  0.00000000000E+00 0.  1.
         21   -1    0    0  501  502 -0.00000000000E+00 -0.00000000000E+00 -0.11576788524E+03  0.11576788524E+03  0.00000000000E+00 0.  1.
         25    1    1    2    0    0  0.16550066035E+02  0.17335216748E+02  0.14865174791E+03  0.19569557118E+03  0.12500000000E+03 0.  0.
         25    1    1    2    0    0 -0.16550066035E+02 -0.17335216748E+02 -0.48343205293E+02  0.13614874191E+03  0.12500000000E+03 0.  0.
</event>
<event>
 4    0  0.2202290E-002  0.2010191E+03  0.7546771E-02  0.1148882E+00
         21   -1    0    0  502  501  0.00000000000E+00  0.00000000000E+00  0.14678000825E+03  0.14678000825E+03  0.00000000000E+00 0.  1.
         21   -1    0    0  501  502 -0.00000000000E+00 -0.00000000000E+00 -0.27530094661E+03  0.27530094661E+03  0.00000000000E+00 0.  1.
         25    1    1    2    0    0  0.13342821779E+03 -0.65618097287E+00  0.23451931610E+02  0.18433261505E+03  0.12500000000E+03 0.  0.
         25    1    1    2    0    0 -0.13342821779E+03  0.65618097287E+00 -0.15197286997E+03  0.23774833981E+03  0.12500000000E+03 0.  0.
</event>
<event>
 4    0  0.2202290E-002  0.3038870E+03  0.7546771E-02  0.1083314E+00
         21   -1    0    0  502  501  0.00000000000E+00  0.00000000000E+00  0.15582591138E+03  0.15582591138E+03  0.00000000000E+00 0.  1.
         21   -1    0    0  501  502 -0.00000000000E+00 -0.00000000000E+00 -0.59263138279E+03  0.59263138279E+03  0.00000000000E+00 0.  1.
         25    1    1    2    0    0  0.24391126303E+03 -0.45998187000E+02 -0.36979773502E+03  0.46258394078E+03  0.12500000000E+03 0.  0.
         25    1    1    2    0    0 -0.24391126303E+03  0.45998187000E+02 -0.67007736383E+02  0.28587335339E+03  0.12500000000E+03 0.  0.
</event>
<event>
 4    0  0.2202290E-002  0.2179908E+03  0.7546771E-02  0.1135390E+00
         21   -1    0    0  502  501  0.00000000000E+00  0.00000000000E+00  0.81743006067E+02  0.81743006067E+02  0.00000000000E+00 0. -1.
         21   -1    0    0  501  502 -0.00000000000E+00 -0.00000000000E+00 -0.58133389827E+03  0.58133389827E+03  0.00000000000E+00 0. -1.
         25    1    1    2    0    0 -0.15263414291E+03 -0.57507242464E+02 -0.36042037338E+03  0.41488806932E+03  0.12500000000E+03 0.  0.
         25    1    1    2    0    0  0.15263414291E+03  0.57507242464E+02 -0.13917051882E+03  0.24818883501E+03  0.12500000000E+03 0.  0.
</event>
<event>
 4    0  0.2202290E-002  0.6455315E+03  0.7546771E-02  0.9815200E-01
         21   -1    0    0  502  501  0.00000000000E+00  0.00000000000E+00  0.51860134904E+03  0.51860134904E+03  0.00000000000E+00 0.  1.
         21   -1    0    0  501  502 -0.00000000000E+00 -0.00000000000E+00 -0.80352832011E+03  0.80352832011E+03  0.00000000000E+00 0. -1.
         25    1    1    2    0    0  0.58368309527E+03  0.24565316310E+03 -0.13490769426E+03  0.65943651568E+03  0.12500000000E+03 0.  0.
         25    1    1    2    0    0 -0.58368309527E+03 -0.24565316310E+03 -0.15001927681E+03  0.66269315347E+03  0.12500000000E+03 0.  0.
</event>
<event>
 4    0  0.2202290E-002  0.1886703E+03  0.7546771E-02  0.1159666E+00
         21   -1    0    0  502  501  0.00000000000E+00  0.00000000000E+00  0.69475813622E+02  0.69475813622E+02  0.00000000000E+00 0. -1.
         21   -1    0    0  501  502 -0.00000000000E+00 -0.00000000000E+00 -0.51235775347E+03  0.51235775347E+03  0.00000000000E+00 0. -1.
         25    1    1    2    0    0 -0.89687969926E+02 -0.46755195279E+02 -0.69253804087E+02  0.17507446877E+03  0.12500000000E+03 0.  0.
         25    1    1    2    0    0  0.89687969926E+02  0.46755195279E+02 -0.37362813577E+03  0.40675909833E+03  0.12500000000E+03 0.  0.
</event>
<event>
 4    0  0.2202290E-002  0.2499838E+03  0.7546771E-02  0.1113315E+00
         21   -1    0    0  502  501  0.00000000000E+00  0.00000000000E+00  0.12391786500E+03  0.12391786500E+03  0.00000000000E+00 0. -1.
         21   -1    0    0  501  502 -0.00000000000E+00 -0.00000000000E+00 -0.50430098198E+03  0.50430098198E+03  0.00000000000E+00 0. -1.
         25    1    1    2    0    0  0.12160219788E+03  0.16268870653E+03 -0.96059982790E+02  0.25711326309E+03  0.12500000000E+03 0.  0.
         25    1    1    2    0    0 -0.12160219788E+03 -0.16268870653E+03 -0.28432313418E+03  0.37110558389E+03  0.12500000000E+03 0.  0.
</event>
<event>
 4    0  0.2202290E-002  0.2623149E+03  0.7546771E-02  0.1105760E+00
         21   -1    0    0  502  501  0.00000000000E+00  0.00000000000E+00  0.19783649694E+03  0.19783649694E+03  0.00000000000E+00 0.  1.
         21   -1    0    0  501  502 -0.00000000000E+00 -0.00000000000E+00 -0.34780786670E+03  0.34780786670E+03  0.00000000000E+00 0.  1.
         25    1    1    2    0    0  0.83988925179E+02 -0.26106097702E+02  0.14674008700E+03  0.21188044040E+03  0.12500000000E+03 0.  0.
         25    1    1    2    0    0 -0.83988925179E+02  0.26106097702E+02 -0.29671145675E+03  0.33376392324E+03  0.12500000000E+03 0.  0.
</event>
<event>
 4    0  0.2202290E-002  0.1827180E+03  0.7546771E-02  0.1165198E+00
         21   -1    0    0  502  501  0.00000000000E+00  0.00000000000E+00  0.13238721282E+03  0.13238721282E+03  0.00000000000E+00 0.  1.
         21   -1    0    0  501  502 -0.00000000000E+00 -0.00000000000E+00 -0.25218335843E+03  0.25218335843E+03  0.00000000000E+00 0.  1.
         25    1    1    2    0    0  0.68582513914E+02  0.97598047109E+02 -0.12243978301E+03  0.21176742072E+03  0.12500000000E+03 0.  0.
         25    1    1    2    0    0 -0.68582513914E+02 -0.97598047109E+02  0.26436373929E+01  0.17280315053E+03  0.12500000000E+03 0.  0.
</event>
<event>
 4    0  0.2202290E-002  0.1865864E+03  0.7546771E-02  0.1161577E+00
         21   -1    0    0  502  501  0.00000000000E+00  0.00000000000E+00  0.23160532358E+03  0.23160532358E+03  0.00000000000E+00 0.  1.
         21   -1    0    0  501  502 -0.00000000000E+00 -0.00000000000E+00 -0.15031811718E+03  0.15031811718E+03  0.00000000000E+00 0.  1.
         25    1    1    2    0    0  0.66800109636E+02  0.12126742246E+03  0.35905378080E+02  0.18995325365E+03  0.12500000000E+03 0.  0.
         25    1    1    2    0    0 -0.66800109636E+02 -0.12126742246E+03  0.45381828316E+02  0.19197018711E+03  0.12500000000E+03 0.  0.
</event>
<event>
 4    0  0.2202290E-002  0.1993186E+03  0.7546771E-02  0.1150315E+00
         21   -1    0    0  502  501  0.00000000000E+00  0.00000000000E+00  0.15639184703E+04  0.15639184703E+04  0.00000000000E+00 0.  1.
         21   -1    0    0  501  502 -0.00000000000E+00 -0.00000000000E+00 -0.25402805242E+02  0.25402805242E+02  0.00000000000E+00 0.  1.
         25    1    1    2    0    0 -0.74075798486E+02 -0.12974275294E+03  0.60093235677E+03  0.63171599891E+03  0.12500000000E+03 0.  0.
         25    1    1    2    0    0  0.74075798486E+02  0.12974275294E+03  0.93758330831E+03  0.95760527666E+03  0.12500000000E+03 0.  0.
</event>
<event>
 4    0  0.2202290E-002  0.1613228E+03  0.7546771E-02  0.1187211E+00
         21   -1    0    0  502  501  0.00000000000E+00  0.00000000000E+00  0.37952719261E+03  0.37952719261E+03  0.00000000000E+00 0.  1.
         21   -1    0    0  501  502 -0.00000000000E+00 -0.00000000000E+00 -0.68572286252E+02  0.68572286252E+02  0.00000000000E+00 0.  1.
         25    1    1    2    0    0 -0.52689438098E+02 -0.64539839349E+02  0.23715285598E+03  0.28072770588E+03  0.12500000000E+03 0.  0.
         25    1    1    2    0    0  0.52689438098E+02  0.64539839349E+02  0.73802050379E+02  0.16737177298E+03  0.12500000000E+03 0.  0.
</event>
<event>
 4    0  0.2202290E-002  0.1893391E+03  0.7546771E-02  0.1159059E+00
         21   -1    0    0  502  501  0.00000000000E+00  0.00000000000E+00  0.13195222357E+03  0.13195222357E+03  0.00000000000E+00 0. -1.
         21   -1    0    0  501  502 -0.00000000000E+00 -0.00000000000E+00 -0.27168378431E+03  0.27168378431E+03  0.00000000000E+00 0. -1.
         25    1    1    2    0    0 -0.14517837694E+02  0.48789891045E+02  0.71675628311E+02  0.15281890188E+03  0.12500000000E+03 0.  0.
         25    1    1    2    0    0  0.14517837694E+02 -0.48789891045E+02 -0.21140718905E+03  0.25081710600E+03  0.12500000000E+03 0.  0.
</event>
<event>
 4    0  0.2202290E-002  0.2703517E+03  0.7546771E-02  0.1101078E+00
         21   -1    0    0  502  501  0.00000000000E+00  0.00000000000E+00  0.72151967215E+02  0.72151967215E+02  0.00000000000E+00 0.  1.
         21   -1    0    0  501  502 -0.00000000000E+00 -0.00000000000E+00 -0.10130017194E+04  0.10130017194E+04  0.00000000000E+00 0.  1.
         25    1    1    2    0    0  0.19494559710E+03 -0.72682269339E+02 -0.23145218648E+03  0.33538278539E+03  0.12500000000E+03 0.  0.
         25    1    1    2    0    0 -0.19494559710E+03  0.72682269339E+02 -0.70939756573E+03  0.74977090126E+03  0.12500000000E+03 0.  0.
</event>
<event>
 4    0  0.2202290E-002  0.1506706E+03  0.7546771E-02  0.1199651E+00
         21   -1    0    0  502  501  0.00000000000E+00  0.00000000000E+00  0.13023355040E+03  0.13023355040E+03  0.00000000000E+00 0. -1.
         21   -1    0    0  501  502 -0.00000000000E+00 -0.00000000000E+00 -0.17431483825E+03  0.17431483825E+03  0.00000000000E+00 0. -1.
         25    1    1    2    0    0  0.10281898704E+01  0.32344085434E+01  0.62908208253E+02  0.13997843133E+03  0.12500000000E+03 0.  0.
         25    1    1    2    0    0 -0.10281898704E+01 -0.32344085434E+01 -0.10698949611E+03  0.16456995732E+03  0.12500000000E+03 0.  0.
</event>
<event>
 4    0  0.2202290E-002  0.2085296E+03  0.7546771E-02  0.1142736E+00
         21   -1    0    0  502  501  0.00000000000E+00  0.00000000000E+00  0.70051164089E+02  0.70051164089E+02  0.00000000000E+00 0.  1.
         21   -1    0    0  501  502 -0.00000000000E+00 -0.00000000000E+00 -0.62075466870E+03  0.62075466870E+03  0.00000000000E+00 0.  1.
         25    1    1    2    0    0  0.74580296286E+02 -0.14930634302E+03 -0.27904902829E+03  0.34835034786E+03  0.12500000000E+03 0.  0.
         25    1    1    2    0    0 -0.74580296286E+02  0.14930634302E+03 -0.27165447632E+03  0.34245548494E+03  0.12500000000E+03 0.  0.
</event>
<event>
 4    0  0.2202290E-002  0.1966943E+03  0.7546771E-02  0.1152558E+00
         21   -1    0    0  502  501  0.00000000000E+00  0.00000000000E+00  0.10243849900E+03  0.10243849900E+03  0.00000000000E+00 0. -1.
         21   -1    0    0  501  502 -0.00000000000E+00 -0.00000000000E+00 -0.37767687320E+03  0.37767687320E+03  0.00000000000E+00 0. -1.
         25    1    1    2    0    0  0.23484388898E+02  0.87751863833E+02 -0.28615355165E+03  0.32520879639E+03  0.12500000000E+03 0.  0.
         25    1    1    2    0    0 -0.23484388898E+02 -0.87751863833E+02  0.10915177449E+02  0.15490657580E+03  0.12500000000E+03 0.  0.
</event>
<event>
 4    0  0.2202290E-002  0.3006660E+03  0.7546771E-02  0.1084908E+00
         21   -1    0    0  502  501  0.00000000000E+00  0.00000000000E+00  0.61404933962E+02  0.61404933962E+02  0.00000000000E+00 0. -1.
         21   -1    0    0  501  502 -0.00000000000E+00 -0.00000000000E+00 -0.14721947913E+04  0.14721947913E+04  0.00000000000E+00 0. -1.
         25    1    1    2    0    0  0.11995412856E+03 -0.99748014285E+02 -0.12781509209E+04  0.12936898531E+04  0.12500000000E+03 0.  0.
         25    1    1    2    0    0 -0.11995412856E+03  0.99748014285E+02 -0.13263893640E+03  0.23990987217E+03  0.12500000000E+03 0.  0.
</event>
<event>
 4    0  0.2202290E-002  0.2752887E+03  0.7546771E-02  0.1098290E+00
         21   -1    0    0  502  501  0.00000000000E+00  0.00000000000E+00  0.60844580636E+02  0.60844580636E+02  0.00000000000E+00 0. -1.
         21   -1    0    0  501  502 -0.00000000000E+00 -0.00000000000E+00 -0.12455323527E+04  0.12455323527E+04  0.00000000000E+00 0. -1.
         25    1    1    2    0    0 -0.44695737071E+02 -0.19318755821E+03 -0.93487208002E+03  0.96381012008E+03  0.12500000000E+03 0.  0.
         25    1    1    2    0    0  0.44695737071E+02  0.19318755821E+03 -0.24981569206E+03  0.34256681328E+03  0.12500000000E+03 0.  0.
</event>
<event>
 4    0  0.2202290E-002  0.3853411E+03  0.7546771E-02  0.1048977E+00
         21   -1    0    0  502  501  0.00000000000E+00  0.00000000000E+00  0.71504583944E+03  0.71504583944E+03  0.00000000000E+00 0.  1.
         21   -1    0    0  501  502 -0.00000000000E+00 -0.00000000000E+00 -0.20766191125E+03  0.20766191125E+03  0.00000000000E+00 0.  1.
         25    1    1    2    0    0 -0.21699290519E+03  0.24868134233E+03  0.68466549112E+02  0.35950104211E+03  0.12500000000E+03 0.  0.
         25    1    1    2    0    0  0.21699290519E+03 -0.24868134233E+03  0.43891737908E+03  0.56320670858E+03  0.12500000000E+03 0.  0.
</event>
<event>
 4    0  0.2202290E-002  0.2021105E+03  0.7546771E-02  0.1147970E+00
         21   -1    0    0  502  501  0.00000000000E+00  0.00000000000E+00  0.10165747389E+04  0.10165747389E+04  0.00000000000E+00 0. -1.
         21   -1    0    0  501  502 -0.00000000000E+00 -0.00000000000E+00 -0.40182653079E+02  0.40182653079E+02  0.00000000000E+00 0. -1.
         25    1    1    2    0    0  0.23618870395E+02 -0.72139558070E+02  0.12348680800E+03  0.19140522100E+03  0.12500000000E+03 0.  0.
         25    1    1    2    0    0 -0.23618870395E+02  0.72139558070E+02  0.85290527780E+03  0.86535217095E+03  0.12500000000E+03 0.  0.
</event>
<event>
 4    0  0.2202290E-002  0.2430918E+03  0.7546771E-02  0.1117750E+00
         21   -1    0    0  502  501  0.00000000000E+00  0.00000000000E+00  0.76270578260E+02  0.76270578260E+02  0.00000000000E+00 0. -1.
         21   -1    0    0  501  502 -0.00000000000E+00 -0.00000000000E+00 -0.77478897031E+03  0.77478897031E+03  0.00000000000E+00 0. -1.
         25    1    1    2    0    0 -0.17215531593E+03  0.18167259209E+02 -0.55265608536E+03  0.59247046407E+03  0.12500000000E+03 0.  0.
         25    1    1    2    0    0  0.17215531593E+03 -0.18167259209E+02 -0.14586230669E+03  0.25858908450E+03  0.12500000000E+03 0.  0.
</event>
<event>
 4    0  0.2202290E-002  0.2055183E+03  0.7546771E-02  0.1145165E+00
         21   -1    0    0  502  501  0.00000000000E+00  0.00000000000E+00  0.19065688256E+03  0.19065688256E+03  0.00000000000E+00 0.  1.
         21   -1    0    0  501  502 -0.00000000000E+00 -0.00000000000E+00 -0.22153815900E+03  0.22153815900E+03  0.00000000000E+00 0.  1.
         25    1    1    2    0    0 -0.61541048033E+01  0.15337157129E+02 -0.17819305454E+03  0.21829078332E+03  0.12500000000E+03 0.  0.
         25    1    1    2    0    0  0.61541048033E+01 -0.15337157129E+02  0.14731177811E+03  0.19390425824E+03  0.12500000000E+03 0.  0.
</event>
<event>
 4    0  0.2202290E-002  0.1826311E+03  0.7546771E-02  0.1165281E+00
         21   -1    0    0  502  501  0.00000000000E+00  0.00000000000E+00  0.57544576194E+02  0.57544576194E+02  0.00000000000E+00 0.  1.
         21   -1    0    0  501  502 -0.00000000000E+00 -0.00000000000E+00 -0.57962239089E+03  0.57962239089E+03  0.00000000000E+00 0.  1.
         25    1    1    2    0    0  0.79903756175E+02 -0.82252492870E+00 -0.75246273947E+02  0.16634989793E+03  0.12500000000E+03 0.  0.
         25    1    1    2    0    0 -0.79903756175E+02  0.82252492870E+00 -0.44683154075E+03  0.47081706915E+03  0.12500000000E+03 0.  0.
</event>
<event>
 4    0  0.2202290E-002  0.1909767E+03  0.7546771E-02  0.1157583E+00
         21   -1    0    0  502  501  0.00000000000E+00  0.00000000000E+00  0.10750912986E+03  0.10750912986E+03  0.00000000000E+00 0. -1.
         21   -1    0    0  501  502 -0.00000000000E+00 -0.00000000000E+00 -0.33924670919E+03  0.33924670919E+03  0.00000000000E+00 0. -1.
         25    1    1    2    0    0  0.72989581881E+01  0.14415511960E+03 -0.11162803027E+03  0.22117818708E+03  0.12500000000E+03 0.  0.
         25    1    1    2    0    0 -0.72989581881E+01 -0.14415511960E+03 -0.12010954906E+03  0.22557765198E+03  0.12500000000E+03 0.  0.
</event>
<event>
 4    0  0.2202290E-002  0.2125513E+03  0.7546771E-02  0.1139561E+00
         21   -1    0    0  502  501  0.00000000000E+00  0.00000000000E+00  0.79981573381E+03  0.79981573381E+03  0.00000000000E+00 0.  1.
         21   -1    0    0  501  502 -0.00000000000E+00 -0.00000000000E+00 -0.56485590351E+02  0.56485590351E+02  0.00000000000E+00 0.  1.
         25    1    1    2    0    0  0.14361921359E+03  0.25993201795E+02  0.55463701322E+03  0.58698325486E+03  0.12500000000E+03 0.  0.
         25    1    1    2    0    0 -0.14361921359E+03 -0.25993201795E+02  0.18869313024E+03  0.26931806930E+03  0.12500000000E+03 0.  0.
</event>
<event>
 4    0  0.2202290E-002  0.2962589E+03  0.7546771E-02  0.1087126E+00
         21   -1    0    0  502  501  0.00000000000E+00  0.00000000000E+00  0.62251077999E+03  0.62251077999E+03  0.00000000000E+00 0.  1.
         21   -1    0    0  501  502 -0.00000000000E+00 -0.00000000000E+00 -0.14099243137E+03  0.14099243137E+03  0.00000000000E+00 0.  1.
         25    1    1    2    0    0  0.19923114332E+03 -0.74593951822E+02  0.45205004193E+03  0.51500635581E+03  0.12500000000E+03 0.  0.
         25    1    1    2    0    0 -0.19923114332E+03  0.74593951822E+02  0.29468306684E+02  0.24849685554E+03  0.12500000000E+03 0.  0.
</event>
<event>
 4    0  0.2202290E-002  0.2333053E+03  0.7546771E-02  0.1124335E+00
         21   -1    0    0  502  501  0.00000000000E+00  0.00000000000E+00  0.39196859991E+03  0.39196859991E+03  0.00000000000E+00 0. -1.
         21   -1    0    0  501  502 -0.00000000000E+00 -0.00000000000E+00 -0.13886658709E+03  0.13886658709E+03  0.00000000000E+00 0. -1.
         25    1    1    2    0    0  0.15619554811E+03  0.12000855612E+03  0.12961185676E+03  0.26687700577E+03  0.12500000000E+03 0.  0.
         25    1    1    2    0    0 -0.15619554811E+03 -0.12000855612E+03  0.12349015606E+03  0.26395818123E+03  0.12500000000E+03 0.  0.
</event>
<event>
 4    0  0.2202290E-002  0.2889540E+03  0.7546771E-02  0.1090897E+00
         21   -1    0    0  502  501  0.00000000000E+00  0.00000000000E+00  0.11257495064E+03  0.11257495064E+03  0.00000000000E+00 0.  1.
         21   -1    0    0  501  502 -0.00000000000E+00 -0.00000000000E+00 -0.74167821825E+03  0.74167821825E+03  0.00000000000E+00 0.  1.
         25    1    1    2    0    0 -0.14524449418E+03  0.19441403983E+03 -0.45460193910E+03  0.53026474992E+03  0.12500000000E+03 0.  0.
         25    1    1    2    0    0  0.14524449418E+03 -0.19441403983E+03 -0.17450132851E+03  0.32398841897E+03  0.12500000000E+03 0.  0.
</event>
<event>
 4    0  0.2202290E-002  0.2033718E+03  0.7546771E-02  0.1146925E+00
         21   -1    0    0  502  501  0.00000000000E+00  0.00000000000E+00  0.56217397683E+02  0.56217397683E+02  0.00000000000E+00 0.  1.
         21   -1    0    0  501  502 -0.00000000000E+00 -0.00000000000E+00 -0.73571697181E+03  0.73571697181E+03  0.00000000000E+00 0.  1.
         25    1    1    2    0    0  0.18954478375E+02  0.64313530339E+02 -0.62350347566E+03  0.63943497448E+03  0.12500000000E+03 0.  0.
         25    1    1    2    0    0 -0.18954478375E+02 -0.64313530339E+02 -0.55996098471E+02  0.15249939501E+03  0.12500000000E+03 0.  0.
</event>
<event>
 4    0  0.2202290E-002  0.2099483E+03  0.7546771E-02  0.1141607E+00
         21   -1    0    0  502  501  0.00000000000E+00  0.00000000000E+00  0.52319214142E+03  0.52319214142E+03  0.00000000000E+00 0.  1.
         21   -1    0    0  501  502 -0.00000000000E+00 -0.00000000000E+00 -0.84248743661E+02  0.84248743661E+02  0.00000000000E+00 0.  1.
         25    1    1    2    0    0 -0.44308971909E+02  0.12879369898E+02  0.45418549160E+03  0.47332718487E+03  0.12500000000E+03 0.  0.
         25    1    1    2    0    0  0.44308971909E+02 -0.12879369898E+02 -0.15242093833E+02  0.13411370021E+03  0.12500000000E+03 0.  0.
</event>
<event>
 4    0  0.2202290E-002  0.2155001E+03  0.7546771E-02  0.1137283E+00
         21   -1    0    0  502  501  0.00000000000E+00  0.00000000000E+00  0.37000776577E+03  0.37000776577E+03  0.00000000000E+00 0.  1.
         21   -1    0    0  501  502 -0.00000000000E+00 -0.00000000000E+00 -0.12551164109E+03  0.12551164109E+03  0.00000000000E+00 0.  1.
         25    1    1    2    0    0  0.12653056838E+03 -0.52131114379E+02 -0.41539769644E+01  0.18539119004E+03  0.12500000000E+03 0.  0.
         25    1    1    2    0    0 -0.12653056838E+03  0.52131114379E+02  0.24865010165E+03  0.31012821682E+03  0.12500000000E+03 0.  0.
</event>
<event>
 4    0  0.2202290E-002  0.3842048E+03  0.7546771E-02  0.1049390E+00
         21   -1    0    0  502  501  0.00000000000E+00  0.00000000000E+00  0.11665875090E+03  0.11665875090E+03  0.00000000000E+00 0.  1.
         21   -1    0    0  501  502 -0.00000000000E+00 -0.00000000000E+00 -0.12653431772E+04  0.12653431772E+04  0.00000000000E+00 0.  1.
         25    1    1    2    0    0  0.11059091414E+02 -0.63413680894E+02 -0.12174107889E+04  0.12255030100E+04  0.12500000000E+03 0.  0.
         25    1    1    2    0    0 -0.11059091414E+02  0.63413680894E+02  0.68726362693E+02  0.15649891807E+03  0.12500000000E+03 0.  0.
</event>
<event>
 4    0  0.2202290E-002  0.2419384E+03  0.7546771E-02  0.1118508E+00
         21   -1    0    0  502  501  0.00000000000E+00  0.00000000000E+00  0.13073598783E+03  0.13073598783E+03  0.00000000000E+00 0. -1.
         21   -1    0    0  501  502 -0.00000000000E+00 -0.00000000000E+00 -0.44772822418E+03  0.44772822418E+03  0.00000000000E+00 0. -1.
         25    1    1    2    0    0  0.24485462280E+02  0.58842378966E+02  0.77129065347E+02  0.16011201125E+03  0.12500000000E+03 0.  0.
         25    1    1    2    0    0 -0.24485462280E+02 -0.58842378966E+02 -0.39412130170E+03  0.41835220076E+03  0.12500000000E+03 0.  0.
</event>
<event>
 4    0  0.2202290E-002  0.2152423E+03  0.7546771E-02  0.1137481E+00
         21   -1    0    0  502  501  0.00000000000E+00  0.00000000000E+00  0.16548737920E+03  0.16548737920E+03  0.00000000000E+00 0.  1.
         21   -1    0    0  501  502 -0.00000000000E+00 -0.00000000000E+00 -0.27995633492E+03  0.27995633492E+03  0.00000000000E+00 0.  1.
         25    1    1    2    0    0 -0.15858872001E+03 -0.63547373110E+02 -0.16951085934E+02  0.21236993680E+03  0.12500000000E+03 0.  0.
         25    1    1    2    0    0  0.15858872001E+03  0.63547373110E+02 -0.97517869793E+02  0.23307377732E+03  0.12500000000E+03 0.  0.
</event>
<event>
 4    0  0.2202290E-002  0.2923432E+03  0.7546771E-02  0.1089132E+00
         21   -1    0    0  502  501  0.00000000000E+00  0.00000000000E+00  0.21599010054E+03  0.21599010054E+03  0.00000000000E+00 0.  1.
         21   -1    0    0  501  502 -0.00000000000E+00 -0.00000000000E+00 -0.39568736062E+03  0.39568736062E+03  0.00000000000E+00 0.  1.
         25    1    1    2    0    0 -0.73146824757E+02  0.24056499688E+03 -0.47448255492E+01  0.28083712195E+03  0.12500000000E+03 0.  0.
         25    1    1    2    0    0  0.73146824757E+02 -0.24056499688E+03 -0.17495243453E+03  0.33084033921E+03  0.12500000000E+03 0.  0.
</event>
<event>
 4    0  0.2202290E-002  0.1877930E+03  0.7546771E-02  0.1160467E+00
         21   -1    0    0  502  501  0.00000000000E+00  0.00000000000E+00  0.48477329957E+03  0.48477329957E+03  0.00000000000E+00 0. -1.
         21   -1    0    0  501  502 -0.00000000000E+00 -0.00000000000E+00 -0.72747861964E+02  0.72747861964E+02  0.00000000000E+00 0. -1.
         25    1    1    2    0    0  0.10596954405E+03 -0.66515936393E+02  0.29974555030E+03  0.34803205166E+03  0.12500000000E+03 0.  0.
         25    1    1    2    0    0 -0.10596954405E+03  0.66515936393E+02  0.11227988730E+03  0.20948910987E+03  0.12500000000E+03 0.  0.
</event>
<event>
 4    0  0.2202290E-002  0.2562145E+03  0.7546771E-02  0.1109439E+00
         21   -1    0    0  502  501  0.00000000000E+00  0.00000000000E+00  0.30499930432E+03  0.30499930432E+03  0.00000000000E+00 0. -1.
         21   -1    0    0  501  502 -0.00000000000E+00 -0.00000000000E+00 -0.21523283065E+03  0.21523283065E+03  0.00000000000E+00 0. -1.
         25    1    1    2    0    0 -0.90044699107E+02  0.98368662192E+02  0.22716235263E+03  0.29156847564E+03  0.12500000000E+03 0.  0.
         25    1    1    2    0    0  0.90044699107E+02 -0.98368662192E+02 -0.13739587896E+03  0.22866365932E+03  0.12500000000E+03 0.  0.
</event>
<event>
 4    0  0.2202290E-002  0.1829543E+03  0.7546771E-02  0.1164974E+00
         21   -1    0    0  502  501  0.00000000000E+00  0.00000000000E+00  0.25652910240E+04  0.25652910240E+04  0.00000000000E+00 0.  1.
         21   -1    0    0  501  502 -0.00000000000E+00 -0.00000000000E+00 -0.13048144670E+02  0.13048144670E+02  0.00000000000E+00 0.  1.
         25    1    1    2    0    0 -0.91753078287E+02  0.93693570995E+02  0.10964484715E+04  0.11113151503E+04  0.12500000000E+03 0.  0.
         25    1    1    2    0    0  0.91753078287E+02 -0.93693570995E+02  0.14557944078E+04  0.14670240184E+04  0.12500000000E+03 0.  0.
</event>
<event>
 4    0  0.2202290E-002  0.1938551E+03  0.7546771E-02  0.1155030E+00
         21   -1    0    0  502  501  0.00000000000E+00  0.00000000000E+00  0.63063841795E+03  0.63063841795E+03  0.00000000000E+00 0.  1.
         21   -1    0    0  501  502 -0.00000000000E+00 -0.00000000000E+00 -0.59590075476E+02  0.59590075476E+02  0.00000000000E+00 0.  1.
         25    1    1    2    0    0 -0.14195134298E+03 -0.21858410698E+02  0.22067697149E+03  0.29146406234E+03  0.12500000000E+03 0.  0.
         25    1    1    2    0    0  0.14195134298E+03  0.21858410698E+02  0.35037137099E+03  0.39876443108E+03  0.12500000000E+03 0.  0.
</event>
<event>
 4    0  0.2202290E-002  0.2924076E+03  0.7546771E-02  0.1089099E+00
         21   -1    0    0  502  501  0.00000000000E+00  0.00000000000E+00  0.32798627754E+03  0.32798627754E+03  0.00000000000E+00 0.  1.
         21   -1    0    0  501  502 -0.00000000000E+00 -0.00000000000E+00 -0.26068835245E+03  0.26068835245E+03  0.00000000000E+00 0.  1.
         25    1    1    2    0    0  0.91183014608E+02 -0.22296544259E+03  0.14322169699E+03  0.30686378938E+03  0.12500000000E+03 0.  0.
         25    1    1    2    0    0 -0.91183014608E+02  0.22296544259E+03 -0.75923771902E+02  0.28181084061E+03  0.12500000000E+03 0.  0.
</event>
<event>
 4    0  0.2202290E-002  0.1970213E+03  0.7546771E-02  0.1152277E+00
         21   -1    0    0  502  501  0.00000000000E+00  0.00000000000E+00  0.75023213202E+02  0.75023213202E+02  0.00000000000E+00 0. -1.
         21   -1    0    0  501  502 -0.00000000000E+00 -0.00000000000E+00 -0.51740513828E+03  0.51740513828E+03  0.00000000000E+00 0. -1.
         25    1    1    2    0    0 -0.31840020595E+02 -0.13701853571E+03 -0.13346639831E+03  0.23070792253E+03  0.12500000000E+03 0.  0.
         25    1    1    2    0    0  0.31840020595E+02  0.13701853571E+03 -0.30891552678E+03  0.36172042896E+03  0.12500000000E+03 0.  0.
</event>
<event>
 4    0  0.2202290E-002  0.1946222E+03  0.7546771E-02  0.1154357E+00
         21   -1    0    0  502  501  0.00000000000E+00  0.00000000000E+00  0.40107271872E+02  0.40107271872E+02  0.00000000000E+00 0. -1.
         21   -1    0    0  501  502 -0.00000000000E+00 -0.00000000000E+00 -0.94441277042E+03  0.94441277042E+03  0.00000000000E+00 0. -1.
         25    1    1    2    0    0  0.80278351456E+02  0.14145104461E+02 -0.76814570831E+03  0.78250720565E+03  0.12500000000E+03 0.  0.
         25    1    1    2    0    0 -0.80278351456E+02 -0.14145104461E+02 -0.13615979024E+03  0.20201283665E+03  0.12500000000E+03 0.  0.
</event>
<event>
 4    0  0.2202290E-002  0.2460361E+03  0.7546771E-02  0.1115836E+00
         21   -1    0    0  502  501  0.00000000000E+00  0.00000000000E+00  0.53589649370E+03  0.53589649370E+03  0.00000000000E+00 0.  1.
         21   -1    0    0  501  502 -0.00000000000E+00 -0.00000000000E+00 -0.11295794680E+03  0.11295794680E+03  0.00000000000E+00 0.  1.
         25    1    1    2    0    0 -0.92580900238E+02  0.11086820826E+03  0.69953586015E+01  0.19114632545E+03  0.12500000000E+03 0.  0.
         25    1    1    2    0    0  0.92580900238E+02 -0.11086820826E+03  0.41594318830E+03  0.45770811505E+03  0.12500000000E+03 0.  0.
</event>
<event>
 4    0  0.2202290E-002  0.1770706E+03  0.7546771E-02  0.1170669E+00
         21   -1    0    0  502  501  0.00000000000E+00  0.00000000000E+00  0.41258177990E+03  0.41258177990E+03  0.00000000000E+00 0. -1.
         21   -1    0    0  501  502 -0.00000000000E+00 -0.00000000000E+00 -0.75994612828E+02  0.75994612828E+02  0.00000000000E+00 0. -1.
         25    1    1    2    0    0 -0.35549793035E+02  0.36962343498E+02  0.32619097759E+03  0.35306593787E+03  0.12500000000E+03 0.  0.
         25    1    1    2    0    0  0.35549793035E+02 -0.36962343498E+02  0.10396189488E+02  0.13551045486E+03  0.12500000000E+03 0.  0.
</event>
<event>
 4    0  0.2202290E-002  0.2637297E+03  0.7546771E-02  0.1104923E+00
         21   -1    0    0  502  501  0.00000000000E+00  0.00000000000E+00  0.14260821497E+04  0.14260821497E+04  0.00000000000E+00 0.  1.
         21   -1    0    0  501  502 -0.00000000000E+00 -0.00000000000E+00 -0.48772334245E+02  0.48772334245E+02  0.00000000000E+00 0.  1.
         25    1    1    2    0    0  0.20874894147E+03  0.12364704991E+02  0.97104298483E+03  0.10011385942E+04  0.12500000000E+03 0.  0.
         25    1    1    2    0    0 -0.20874894147E+03 -0.12364704991E+02  0.40626683064E+03  0.47371588972E+03  0.12500000000E+03 0.  0.
</event>
<event>
 4    0  0.2202290E-002  0.2580335E+03  0.7546771E-02  0.1108331E+00
         21   -1    0    0  502  501  0.00000000000E+00  0.00000000000E+00  0.30964845498E+03  0.30964845498E+03  0.00000000000E+00 0.  1.
         21   -1    0    0  501  502 -0.00000000000E+00 -0.00000000000E+00 -0.21502225786E+03  0.21502225786E+03  0.00000000000E+00 0.  1.
         25    1    1    2    0    0  0.22569575249E+03 -0.41961359531E+01  0.46946976073E+02  0.26226932495E+03  0.12500000000E+03 0.  0.
         25    1    1    2    0    0 -0.22569575249E+03  0.41961359531E+01  0.47679221051E+02  0.26240138789E+03  0.12500000000E+03 0.  0.
</event>
<event>
 4    0  0.2202290E-002  0.1802833E+03  0.7546771E-02  0.1167529E+00
         21   -1    0    0  502  501  0.00000000000E+00  0.00000000000E+00  0.46088475231E+03  0.46088475231E+03  0.00000000000E+00 0. -1.
         21   -1    0    0  501  502 -0.00000000000E+00 -0.00000000000E+00 -0.70521013308E+02  0.70521013308E+02  0.00000000000E+00 0. -1.
         25    1    1    2    0    0 -0.63688363879E+02  0.87233697333E+02  0.30157337370E+03  0.34385669307E+03  0.12500000000E+03 0.  0.
         25    1    1    2    0    0  0.63688363879E+02 -0.87233697333E+02  0.88790365305E+02  0.18754907255E+03  0.12500000000E+03 0.  0.
</event>
<event>
 4    0  0.2202290E-002  0.2341368E+03  0.7546771E-02  0.1123762E+00
         21   -1    0    0  502  501  0.00000000000E+00  0.00000000000E+00  0.37279133473E+03  0.37279133473E+03  0.00000000000E+00 0.  1.
         21   -1    0    0  501  502 -0.00000000000E+00 -0.00000000000E+00 -0.14705283328E+03  0.14705283328E+03  0.00000000000E+00 0.  1.
         25    1    1    2    0    0  0.17209329903E+03 -0.96521563293E+02  0.13085561542E+03  0.26773253041E+03  0.12500000000E+03 0.  0.
         25    1    1    2    0    0 -0.17209329903E+03  0.96521563293E+02  0.94882886036E+02  0.25211163760E+03  0.12500000000E+03 0.  0.
</event>
<event>
 4    0  0.2202290E-002  0.2472919E+03  0.7546771E-02  0.1115028E+00
         21   -1    0    0  502  501  0.00000000000E+00  0.00000000000E+00  0.13368630132E+03  0.13368630132E+03  0.00000000000E+00 0.  1.
         21   -1    0    0  501  502 -0.00000000000E+00 -0.00000000000E+00 -0.45743876859E+03  0.45743876859E+03  0.00000000000E+00 0.  1.
         25    1    1    2    0    0 -0.18546891009E+01  0.18138335859E+03 -0.27583037629E+02  0.22201168124E+03  0.12500000000E+03 0.  0.
         25    1    1    2    0    0  0.18546891009E+01 -0.18138335859E+03 -0.29616942964E+03  0.36911338867E+03  0.12500000000E+03 0.  0.
</event>
<event>
 4    0  0.2202290E-002  0.2020967E+03  0.7546771E-02  0.1147982E+00
         21   -1    0    0  502  501  0.00000000000E+00  0.00000000000E+00  0.80095578053E+02  0.80095578053E+02  0.00000000000E+00 0. -1.
         21   -1    0    0  501  502 -0.00000000000E+00 -0.00000000000E+00 -0.50992898292E+03  0.50992898292E+03  0.00000000000E+00 0. -1.
         25    1    1    2    0    0  0.46294285823E+02 -0.53750608123E+02 -0.75191562229E+01  0.14392298803E+03  0.12500000000E+03 0.  0.
         25    1    1    2    0    0 -0.46294285823E+02  0.53750608123E+02 -0.42231424865E+03  0.44610157294E+03  0.12500000000E+03 0.  0.
</event>
<event>
 4    0  0.2202290E-002  0.2089294E+03  0.7546771E-02  0.1142417E+00
         21   -1    0    0  502  501  0.00000000000E+00  0.00000000000E+00  0.93048944373E+02  0.93048944373E+02  0.00000000000E+00 0.  1.
         21   -1    0    0  501  502 -0.00000000000E+00 -0.00000000000E+00 -0.46912417415E+03  0.46912417415E+03  0.00000000000E+00 0.  1.
         25    1    1    2    0    0  0.10758343371E+03  0.10453504684E+03 -0.28803676055E+03  0.34798268154E+03  0.12500000000E+03 0.  0.
         25    1    1    2    0    0 -0.10758343371E+03 -0.10453504684E+03 -0.88038469225E+02  0.21419043697E+03  0.12500000000E+03 0.  0.
</event>
<event>
 4    0  0.2202290E-002  0.2023694E+03  0.7546771E-02  0.1147755E+00
         21   -1    0    0  502  501  0.00000000000E+00  0.00000000000E+00  0.19138612938E+03  0.19138612938E+03  0.00000000000E+00 0.  1.
         21   -1    0    0  501  502 -0.00000000000E+00 -0.00000000000E+00 -0.21398293868E+03  0.21398293868E+03  0.00000000000E+00 0.  1.
         25    1    1    2    0    0  0.12756426679E+03  0.88662017475E+02  0.23320882633E+02  0.20075472366E+03  0.12500000000E+03 0.  0.
         25    1    1    2    0    0 -0.12756426679E+03 -0.88662017475E+02 -0.45917691930E+02  0.20461434441E+03  0.12500000000E+03 0.  0.
</event>
<event>
 4    0  0.2202290E-002  0.2235128E+03  0.7546771E-02  0.1131291E+00
         21   -1    0    0  502  501  0.00000000000E+00  0.00000000000E+00  0.40396473235E+03  0.40396473235E+03  0.00000000000E+00 0. -1.
         21   -1    0    0  501  502 -0.00000000000E+00 -0.00000000000E+00 -0.12366913287E+03  0.12366913287E+03  0.00000000000E+00 0.  1.
         25    1    1    2    0    0  0.16129331194E+03 -0.36758304946E+02  0.41633288482E+02  0.21148294534E+03  0.12500000000E+03 0.  0.
         25    1    1    2    0    0 -0.16129331194E+03  0.36758304946E+02  0.23866231100E+03  0.31615091989E+03  0.12500000000E+03 0.  0.
</event>
<event>
 4    0  0.2202290E-002  0.3634694E+03  0.7546771E-02  0.1057219E+00
         21   -1    0    0  502  501  0.00000000000E+00  0.00000000000E+00  0.27292873516E+03  0.27292873516E+03  0.00000000000E+00 0. -1.
         21   -1    0    0  501  502 -0.00000000000E+00 -0.00000000000E+00 -0.48404587936E+03  0.48404587936E+03  0.00000000000E+00 0. -1.
         25    1    1    2    0    0 -0.44555447315E+02 -0.27970725866E+02  0.24559495812E+03  0.28055201451E+03  0.12500000000E+03 0.  0.
         25    1    1    2    0    0  0.44555447315E+02  0.27970725866E+02 -0.45671210232E+03  0.47642260000E+03  0.12500000000E+03 0.  0.
</event>
<event>
 4    0  0.2202290E-002  0.2480251E+03  0.7546771E-02  0.1114559E+00
         21   -1    0    0  502  501  0.00000000000E+00  0.00000000000E+00  0.39175901508E+02  0.39175901508E+02  0.00000000000E+00 0. -1.
         21   -1    0    0  501  502 -0.00000000000E+00 -0.00000000000E+00 -0.15702623814E+04  0.15702623814E+04  0.00000000000E+00 0. -1.
         25    1    1    2    0    0  0.20035239740E+03  0.70323108008E+02 -0.85759932935E+03  0.89229369177E+03  0.12500000000E+03 0.  0.
         25    1    1    2    0    0 -0.20035239740E+03 -0.70323108008E+02 -0.67348715056E+03  0.71714459116E+03  0.12500000000E+03 0.  0.
</event>
<event>
 4    0  0.2202290E-002  0.2960969E+03  0.7546771E-02  0.1087208E+00
         21   -1    0    0  502  501  0.00000000000E+00  0.00000000000E+00  0.81774604891E+03  0.81774604891E+03  0.00000000000E+00 0. -1.
         21   -1    0    0  501  502 -0.00000000000E+00 -0.00000000000E+00 -0.10721347768E+03  0.10721347768E+03  0.00000000000E+00 0. -1.
         25    1    1    2    0    0 -0.18640797897E+03 -0.12631558270E+02  0.65627915734E+03  0.69371090755E+03  0.12500000000E+03 0.  0.
         25    1    1    2    0    0  0.18640797897E+03  0.12631558270E+02  0.54253413886E+02  0.23124861904E+03  0.12500000000E+03 0.  0.
</event>
<event>
 4    0  0.2202290E-002  0.1445719E+03  0.7546771E-02  0.1207306E+00
         21   -1    0    0  502  501  0.00000000000E+00  0.00000000000E+00  0.39097014784E+02  0.39097014784E+02  0.00000000000E+00 0.  1.
         21   -1    0    0  501  502 -0.00000000000E+00 -0.00000000000E+00 -0.53459390323E+03  0.53459390323E+03  0.00000000000E+00 0.  1.
         25    1    1    2    0    0  0.20547036754E+02 -0.67157388419E+02 -0.21096325249E+03  0.25507408618E+03  0.12500000000E+03 0.  0.
         25    1    1    2    0    0 -0.20547036754E+02  0.67157388419E+02 -0.28453363596E+03  0.31861683184E+03  0.12500000000E+03 0.  0.
</event>
<event>
 4    0  0.2202290E-002  0.2753354E+03  0.7546771E-02  0.1098264E+00
         21   -1    0    0  502  501  0.00000000000E+00  0.00000000000E+00  0.58622876425E+02  0.58622876425E+02  0.00000000000E+00 0. -1.
         21   -1    0    0  501  502 -0.00000000000E+00 -0.00000000000E+00 -0.12931737045E+04  0.12931737045E+04  0.00000000000E+00 0. -1.
         25    1    1    2    0    0  0.16049006050E+03  0.16373286516E+03 -0.40300124894E+03  0.48020882676E+03  0.12500000000E+03 0.  0.
         25    1    1    2    0    0 -0.16049006050E+03 -0.16373286516E+03 -0.83154957919E+03  0.87158775422E+03  0.12500000000E+03 0.  0.
</event>
<event>
 4    0  0.2202290E-002  0.1629774E+03  0.7546771E-02  0.1185376E+00
         21   -1    0    0  502  501  0.00000000000E+00  0.00000000000E+00  0.19076246654E+03  0.19076246654E+03  0.00000000000E+00 0. -1.
         21   -1    0    0  501  502 -0.00000000000E+00 -0.00000000000E+00 -0.13923929248E+03  0.13923929248E+03  0.00000000000E+00 0. -1.
         25    1    1    2    0    0  0.58756705989E+02 -0.68522329542E+02 -0.27704803810E+02  0.15665317200E+03  0.12500000000E+03 0.  0.
         25    1    1    2    0    0 -0.58756705989E+02  0.68522329542E+02  0.79227977866E+02  0.17334858702E+03  0.12500000000E+03 0.  0.
</event>
<event>
 4    0  0.2202290E-002  0.2298389E+03  0.7546771E-02  0.1126753E+00
         21   -1    0    0  502  501  0.00000000000E+00  0.00000000000E+00  0.20082161011E+03  0.20082161011E+03  0.00000000000E+00 0.  1.
         21   -1    0    0  501  502 -0.00000000000E+00 -0.00000000000E+00 -0.26304888269E+03  0.26304888269E+03  0.00000000000E+00 0.  1.
         25    1    1    2    0    0 -0.87822559694E+02 -0.15864397679E+03  0.35214006222E+02  0.22303752957E+03  0.12500000000E+03 0.  0.
         25    1    1    2    0    0  0.87822559694E+02  0.15864397679E+03 -0.97441278799E+02  0.24083296322E+03  0.12500000000E+03 0.  0.
</event>
<event>
 4    0  0.2202290E-002  0.1853897E+03  0.7546771E-02  0.1162686E+00
         21   -1    0    0  502  501  0.00000000000E+00  0.00000000000E+00  0.58241326100E+03  0.58241326100E+03  0.00000000000E+00 0. -1.
         21   -1    0    0  501  502 -0.00000000000E+00 -0.00000000000E+00 -0.59011935651E+02  0.59011935651E+02  0.00000000000E+00 0. -1.
         25    1    1    2    0    0  0.11302294901E+03  0.65930880195E+02  0.19200186324E+03  0.26383855566E+03  0.12500000000E+03 0.  0.
         25    1    1    2    0    0 -0.11302294901E+03 -0.65930880195E+02  0.33139946211E+03  0.37758664099E+03  0.12500000000E+03 0.  0.
</event>
<event>
 4    0  0.2202290E-002  0.2606415E+03  0.7546771E-02  0.1106758E+00
         21   -1    0    0  502  501  0.00000000000E+00  0.00000000000E+00  0.15100355658E+04  0.15100355658E+04  0.00000000000E+00 0.  1.
         21   -1    0    0  501  502 -0.00000000000E+00 -0.00000000000E+00 -0.44988347141E+02  0.44988347141E+02  0.00000000000E+00 0.  1.
         25    1    1    2    0    0  0.42311834170E+02 -0.20051070539E+03  0.10354803437E+04  0.10629390276E+04  0.12500000000E+03 0.  0.
         25    1    1    2    0    0 -0.42311834170E+02  0.20051070539E+03  0.42956687502E+03  0.49208488536E+03  0.12500000000E+03 0.  0.
</event>
<event>
 4    0  0.2202290E-002  0.1929543E+03  0.7546771E-02  0.1155823E+00
         21   -1    0    0  502  501  0.00000000000E+00  0.00000000000E+00  0.29207214131E+02  0.29207214131E+02  0.00000000000E+00 0. -1.
         21   -1    0    0  501  502 -0.00000000000E+00 -0.00000000000E+00 -0.12747314325E+04  0.12747314325E+04  0.00000000000E+00 0. -1.
         25    1    1    2    0    0  0.63620611007E+02 -0.66084160257E+02 -0.10108431246E+04  0.10226649114E+04  0.12500000000E+03 0.  0.
         25    1    1    2    0    0 -0.63620611007E+02  0.66084160257E+02 -0.23468109379E+03  0.28127373529E+03  0.12500000000E+03 0.  0.
</event>
<event>
 4    0  0.2202290E-002  0.1644359E+03  0.7546771E-02  0.1183778E+00
         21   -1    0    0  502  501  0.00000000000E+00  0.00000000000E+00  0.61094944685E+03  0.61094944685E+03  0.00000000000E+00 0.  1.
         21   -1    0    0  501  502 -0.00000000000E+00 -0.00000000000E+00 -0.44257619513E+02  0.44257619513E+02  0.00000000000E+00 0.  1.
         25    1    1    2    0    0 -0.72012912427E+02  0.22804937997E+01  0.12618100628E+03  0.19167082865E+03  0.12500000000E+03 0.  0.
         25    1    1    2    0    0  0.72012912427E+02 -0.22804937997E+01  0.44051082105E+03  0.46353623771E+03  0.12500000000E+03 0.  0.
</event>
<event>
 4    0  0.2202290E-002  0.2306778E+03  0.7546771E-02  0.1126164E+00
         21   -1    0    0  502  501  0.00000000000E+00  0.00000000000E+00  0.36723506920E+03  0.36723506920E+03  0.00000000000E+00 0. -1.
         21   -1    0    0  501  502 -0.00000000000E+00 -0.00000000000E+00 -0.14489974966E+03  0.14489974966E+03  0.00000000000E+00 0. -1.
         25    1    1    2    0    0  0.11975237940E+03 -0.15242549042E+03  0.10714881155E+03  0.25432268935E+03  0.12500000000E+03 0.  0.
         25    1    1    2    0    0 -0.11975237940E+03  0.15242549042E+03  0.11518650799E+03  0.25781212951E+03  0.12500000000E+03 0.  0.
</event>
<event>
 4    0  0.2202290E-002  0.3153504E+03  0.7546771E-02  0.1077809E+00
         21   -1    0    0  502  501  0.00000000000E+00  0.00000000000E+00  0.58545274012E+03  0.58545274012E+03  0.00000000000E+00 0. -1.
         21   -1    0    0  501  502 -0.00000000000E+00 -0.00000000000E+00 -0.16986152103E+03  0.16986152103E+03  0.00000000000E+00 0. -1.
         25    1    1    2    0    0  0.71218573759E+02 -0.16483596076E+03  0.47977509567E+03  0.52730647790E+03  0.12500000000E+03 0.  0.
         25    1    1    2    0    0 -0.71218573759E+02  0.16483596076E+03 -0.64183876577E+02  0.22800778325E+03  0.12500000000E+03 0.  0.
</event>
<event>
 4    0  0.2202290E-002  0.2389846E+03  0.7546771E-02  0.1120471E+00
         21   -1    0    0  502  501  0.00000000000E+00  0.00000000000E+00  0.78914028708E+02  0.78914028708E+02  0.00000000000E+00 0. -1.
         21   -1    0    0  501  502 -0.00000000000E+00 -0.00000000000E+00 -0.72374535194E+03  0.72374535194E+03  0.00000000000E+00 0. -1.
         25    1    1    2    0    0 -0.10330133992E+03  0.17295523428E+03 -0.37290632546E+03  0.44189230301E+03  0.12500000000E+03 0.  0.
         25    1    1    2    0    0  0.10330133992E+03 -0.17295523428E+03 -0.27192499777E+03  0.36076707764E+03  0.12500000000E+03 0.  0.
</event>
<event>
 4    0  0.2202290E-002  0.1592910E+03  0.7546771E-02  0.1189499E+00
         21   -1    0    0  502  501  0.00000000000E+00  0.00000000000E+00  0.23345653523E+03  0.23345653523E+03  0.00000000000E+00 0. -1.
         21   -1    0    0  501  502 -0.00000000000E+00 -0.00000000000E+00 -0.10868677258E+03  0.10868677258E+03  0.00000000000E+00 0. -1.
         25    1    1    2    0    0 -0.95373494490E+02 -0.16743028478E+02  0.41665454772E+02  0.16351587866E+03  0.12500000000E+03 0.  0.
         25    1    1    2    0    0  0.95373494490E+02  0.16743028478E+02  0.83104307880E+02  0.17862742914E+03  0.12500000000E+03 0.  0.
</event>
<event>
 4    0  0.2202290E-002  0.2043054E+03  0.7546771E-02  0.1146157E+00
         21   -1    0    0  502  501  0.00000000000E+00  0.00000000000E+00  0.19688466031E+03  0.19688466031E+03  0.00000000000E+00 0. -1.
         21   -1    0    0  501  502 -0.00000000000E+00 -0.00000000000E+00 -0.21200583597E+03  0.21200583597E+03  0.00000000000E+00 0. -1.
         25    1    1    2    0    0 -0.91235671664E+02 -0.13334466475E+03 -0.10871870172E+02  0.20456770264E+03  0.12500000000E+03 0.  0.
         25    1    1    2    0    0  0.91235671664E+02  0.13334466475E+03 -0.42493054867E+01  0.20432279363E+03  0.12500000000E+03 0.  0.
</event>
<event>
 4    0  0.2202290E-002  0.1956570E+03  0.7546771E-02  0.1153456E+00
         21   -1    0    0  502  501  0.00000000000E+00  0.00000000000E+00  0.31445248923E+03  0.31445248923E+03  0.00000000000E+00 0.  1.
         21   -1    0    0  501  502 -0.00000000000E+00 -0.00000000000E+00 -0.12174069013E+03  0.12174069013E+03  0.00000000000E+00 0.  1.
         25    1    1    2    0    0 -0.45894205735E+02  0.10157360487E+03  0.20911690694E+03  0.26791482993E+03  0.12500000000E+03 0.  0.
         25    1    1    2    0    0  0.45894205735E+02 -0.10157360487E+03 -0.16405107840E+02  0.16827834944E+03  0.12500000000E+03 0.  0.
</event>
<event>
 4    0  0.2202290E-002  0.2087615E+03  0.7546771E-02  0.1142550E+00
         21   -1    0    0  502  501  0.00000000000E+00  0.00000000000E+00  0.29184402787E+02  0.29184402787E+02  0.00000000000E+00 0.  1.
         21   -1    0    0  501  502 -0.00000000000E+00 -0.00000000000E+00 -0.14933108151E+04  0.14933108151E+04  0.00000000000E+00 0.  1.
         25    1    1    2    0    0  0.47407172081E+02  0.69664949235E+02 -0.12586721425E+04  0.12676676250E+04  0.12500000000E+03 0.  0.
         25    1    1    2    0    0 -0.47407172081E+02 -0.69664949235E+02 -0.20545426976E+03  0.25482759285E+03  0.12500000000E+03 0.  0.
</event>
<event>
 4    0  0.2202290E-002  0.2289683E+03  0.7546771E-02  0.1127368E+00
         21   -1    0    0  502  501  0.00000000000E+00  0.00000000000E+00  0.74202598178E+02  0.74202598178E+02  0.00000000000E+00 0. -1.
         21   -1    0    0  501  502 -0.00000000000E+00 -0.00000000000E+00 -0.70653147290E+03  0.70653147290E+03  0.00000000000E+00 0. -1.
         25    1    1    2    0    0  0.12077667928E+02  0.18435455944E+03 -0.40424333984E+03  0.46170353199E+03  0.12500000000E+03 0.  0.
         25    1    1    2    0    0 -0.12077667928E+02 -0.18435455944E+03 -0.22808553488E+03  0.31903053909E+03  0.12500000000E+03 0.  0.
</event>
<event>
 4    0  0.2202290E-002  0.1359444E+03  0.7546771E-02  0.1218893E+00
         21   -1    0    0  502  501  0.00000000000E+00  0.00000000000E+00  0.44227913898E+03  0.44227913898E+03  0.00000000000E+00 0.  1.
         21   -1    0    0  501  502 -0.00000000000E+00 -0.00000000000E+00 -0.41785539552E+02  0.41785539552E+02  0.00000000000E+00 0.  1.
         25    1    1    2    0    0  0.13514894935E+02 -0.44030541510E+02  0.15199457172E+03  0.20211059052E+03  0.12500000000E+03 0.  0.
         25    1    1    2    0    0 -0.13514894935E+02  0.44030541510E+02  0.24849902772E+03  0.28195408801E+03  0.12500000000E+03 0.  0.
</event>
<event>
 4    0  0.2202290E-002  0.2182092E+03  0.7546771E-02  0.1135225E+00
         21   -1    0    0  502  501  0.00000000000E+00  0.00000000000E+00  0.85196264637E+03  0.85196264637E+03  0.00000000000E+00 0. -1.
         21   -1    0    0  501  502 -0.00000000000E+00 -0.00000000000E+00 -0.55888911355E+02  0.55888911355E+02  0.00000000000E+00 0. -1.
         25    1    1    2    0    0  0.98373906421E+02 -0.11799272471E+03  0.58858606433E+03  0.62101389974E+03  0.12500000000E+03 0.  0.
         25    1    1    2    0    0 -0.98373906421E+02  0.11799272471E+03  0.20748767068E+03  0.28683765798E+03  0.12500000000E+03 0.  0.
</event>
<event>
 4    0  0.2202290E-002  0.1817834E+03  0.7546771E-02  0.1166088E+00
         21   -1    0    0  502  501  0.00000000000E+00  0.00000000000E+00  0.51260707050E+03  0.51260707050E+03  0.00000000000E+00 0.  1.
         21   -1    0    0  501  502 -0.00000000000E+00 -0.00000000000E+00 -0.64464978092E+02  0.64464978092E+02  0.00000000000E+00 0.  1.
         25    1    1    2    0    0 -0.66265673358E+02  0.83863453077E+02  0.34697790205E+03  0.38398291985E+03  0.12500000000E+03 0.  0.
         25    1    1    2    0    0  0.66265673358E+02 -0.83863453077E+02  0.10116419037E+03  0.19308912875E+03  0.12500000000E+03 0.  0.
</event>
<event>
 4    0  0.2202290E-002  0.1901373E+03  0.7546771E-02  0.1158338E+00
         21   -1    0    0  502  501  0.00000000000E+00  0.00000000000E+00  0.54980260763E+03  0.54980260763E+03  0.00000000000E+00 0.  1.
         21   -1    0    0  501  502 -0.00000000000E+00 -0.00000000000E+00 -0.65754840381E+02  0.65754840381E+02  0.00000000000E+00 0.  1.
         25    1    1    2    0    0  0.19311194620E+02 -0.10704016651E+03  0.39297893816E+03  0.42648325327E+03  0.12500000000E+03 0.  0.
         25    1    1    2    0    0 -0.19311194620E+02  0.10704016651E+03  0.91068829091E+02  0.18907419474E+03  0.12500000000E+03 0.  0.
</event>
<event>
 4    0  0.2202290E-002  0.2096107E+03  0.7546771E-02  0.1141875E+00
         21   -1    0    0  502  501  0.00000000000E+00  0.00000000000E+00  0.37806184717E+03  0.37806184717E+03  0.00000000000E+00 0.  1.
         21   -1    0    0  501  502 -0.00000000000E+00 -0.00000000000E+00 -0.11621553590E+03  0.11621553590E+03  0.00000000000E+00 0.  1.
         25    1    1    2    0    0  0.10212371079E+03  0.21171197915E+01 -0.26723871761E+02  0.16362426417E+03  0.12500000000E+03 0.  0.
         25    1    1    2    0    0 -0.10212371079E+03 -0.21171197915E+01  0.28857018303E+03  0.33065311890E+03  0.12500000000E+03 0.  0.
</event>
<event>
 4    0  0.2202290E-002  0.1819823E+03  0.7546771E-02  0.1165898E+00
         21   -1    0    0  502  501  0.00000000000E+00  0.00000000000E+00  0.32957944027E+03  0.32957944027E+03  0.00000000000E+00 0.  1.
         21   -1    0    0  501  502 -0.00000000000E+00 -0.00000000000E+00 -0.10048426196E+03  0.10048426196E+03  0.00000000000E+00 0.  1.
         25    1    1    2    0    0 -0.54410521016E+02 -0.24252868797E+01  0.25696042214E+03  0.29089524809E+03  0.12500000000E+03 0.  0.
         25    1    1    2    0    0  0.54410521016E+02  0.24252868797E+01 -0.27865243829E+02  0.13916845414E+03  0.12500000000E+03 0.  0.
</event>
<event>
 4    0  0.2202290E-002  0.3275689E+03  0.7546771E-02  0.1072218E+00
         21   -1    0    0  502  501  0.00000000000E+00  0.00000000000E+00  0.87742130028E+02  0.87742130028E+02  0.00000000000E+00 0. -1.
         21   -1    0    0  501  502 -0.00000000000E+00 -0.00000000000E+00 -0.12229175168E+04  0.12229175168E+04  0.00000000000E+00 0. -1.
         25    1    1    2    0    0  0.14494490611E+03  0.95780714334E+01 -0.10990648734E+04  0.11156475076E+04  0.12500000000E+03 0.  0.
         25    1    1    2    0    0 -0.14494490611E+03 -0.95780714334E+01 -0.36110513336E+02  0.19501213920E+03  0.12500000000E+03 0.  0.
</event>
<event>
 4    0  0.2202290E-002  0.1418042E+03  0.7546771E-02  0.1210922E+00
         21   -1    0    0  502  501  0.00000000000E+00  0.00000000000E+00  0.12347133260E+02  0.12347133260E+02  0.00000000000E+00 0.  1.
         21   -1    0    0  501  502 -0.00000000000E+00 -0.00000000000E+00 -0.16285913670E+04  0.16285913670E+04  0.00000000000E+00 0.  1.
         25    1    1    2    0    0 -0.34327614162E+02 -0.42961862505E+02 -0.10291513014E+04  0.10381721957E+04  0.12500000000E+03 0.  0.
         25    1    1    2    0    0  0.34327614162E+02  0.42961862505E+02 -0.58709293231E+03  0.60276630455E+03  0.12500000000E+03 0.  0.
</event>
<event>
 4    0  0.2202290E-002  0.1880640E+03  0.7546771E-02  0.1160219E+00
         21   -1    0    0  502  501  0.00000000000E+00  0.00000000000E+00  0.81344356832E+02  0.81344356832E+02  0.00000000000E+00 0.  1.
         21   -1    0    0  501  502 -0.00000000000E+00 -0.00000000000E+00 -0.43479458632E+03  0.43479458632E+03  0.00000000000E+00 0.  1.
         25    1    1    2    0    0  0.59924438134E+02  0.11878078952E+03 -0.11469623791E+03  0.21559230328E+03  0.12500000000E+03 0.  0.
         25    1    1    2    0    0 -0.59924438134E+02 -0.11878078952E+03 -0.23875399158E+03  0.30054663987E+03  0.12500000000E+03 0.  0.
</event>
<event>
 4    0  0.2202290E-002  0.2248776E+03  0.7546771E-02  0.1130298E+00
         21   -1    0    0  502  501  0.00000000000E+00  0.00000000000E+00  0.26724253807E+03  0.26724253807E+03  0.00000000000E+00 0. -1.
         21   -1    0    0  501  502 -0.00000000000E+00 -0.00000000000E+00 -0.18922867879E+03  0.18922867879E+03  0.00000000000E+00 0. -1.
         25    1    1    2    0    0 -0.50226718564E+02  0.64054511510E+02  0.20980304691E+03  0.25742576055E+03  0.12500000000E+03 0.  0.
         25    1    1    2    0    0  0.50226718564E+02 -0.64054511510E+02 -0.13178918762E+03  0.19904545631E+03  0.12500000000E+03 0.  0.
</event>
<event>
 4    0  0.2202290E-002  0.1824445E+03  0.7546771E-02  0.1165458E+00
         21   -1    0    0  502  501  0.00000000000E+00  0.00000000000E+00  0.16749065391E+03  0.16749065391E+03  0.00000000000E+00 0. -1.
         21   -1    0    0  501  502 -0.00000000000E+00 -0.00000000000E+00 -0.19873337221E+03  0.19873337221E+03  0.00000000000E+00 0. -1.
         25    1    1    2    0    0  0.24678382851E+02  0.39013123877E+02  0.10945377599E+03  0.17244180321E+03  0.12500000000E+03 0.  0.
         25    1    1    2    0    0 -0.24678382851E+02 -0.39013123877E+02 -0.14069649429E+03  0.19378222292E+03  0.12500000000E+03 0.  0.
</event>
<event>
 4    0  0.2202290E-002  0.1738737E+03  0.7546771E-02  0.1173867E+00
         21   -1    0    0  502  501  0.00000000000E+00  0.00000000000E+00  0.50997640031E+03  0.50997640031E+03  0.00000000000E+00 0.  1.
         21   -1    0    0  501  502 -0.00000000000E+00 -0.00000000000E+00 -0.59281322082E+02  0.59281322082E+02  0.00000000000E+00 0.  1.
         25    1    1    2    0    0 -0.54285889462E+02 -0.56329662355E+02  0.37615550138E+03  0.40402716477E+03  0.12500000000E+03 0.  0.
         25    1    1    2    0    0  0.54285889462E+02  0.56329662355E+02  0.74539576854E+02  0.16523055763E+03  0.12500000000E+03 0.  0.
</event>
<event>
 4    0  0.2202290E-002  0.2640790E+03  0.7546771E-02  0.1104717E+00
         21   -1    0    0  502  501  0.00000000000E+00  0.00000000000E+00  0.33816872749E+04  0.33816872749E+04  0.00000000000E+00 0.  1.
         21   -1    0    0  501  502 -0.00000000000E+00 -0.00000000000E+00 -0.20622168122E+02  0.20622168122E+02  0.00000000000E+00 0.  1.
         25    1    1    2    0    0  0.10708637304E+03 -0.96388973467E+02  0.28570177993E+04  0.28633780804E+04  0.12500000000E+03 0.  0.
         25    1    1    2    0    0 -0.10708637304E+03  0.96388973467E+02  0.50404730747E+03  0.53893136267E+03  0.12500000000E+03 0.  0.
</event>
<event>
 4    0  0.2202290E-002  0.1927813E+03  0.7546771E-02  0.1155976E+00
         21   -1    0    0  502  501  0.00000000000E+00  0.00000000000E+00  0.42311153095E+02  0.42311153095E+02  0.00000000000E+00 0.  1.
         21   -1    0    0  501  502 -0.00000000000E+00 -0.00000000000E+00 -0.87836530245E+03  0.87836530245E+03  0.00000000000E+00 0.  1.
         25    1    1    2    0    0  0.12311682608E+03 -0.68523135994E+02 -0.31996477448E+03  0.37128914600E+03  0.12500000000E+03 0.  0.
         25    1    1    2    0    0 -0.12311682608E+03  0.68523135994E+02 -0.51608937488E+03  0.54938730955E+03  0.12500000000E+03 0.  0.
</event>
<event>
 4    0  0.2202290E-002  0.3296964E+03  0.7546771E-02  0.1071271E+00
         21   -1    0    0  502  501  0.00000000000E+00  0.00000000000E+00  0.43630891687E+03  0.43630891687E+03  0.00000000000E+00 0. -1.
         21   -1    0    0  501  502 -0.00000000000E+00 -0.00000000000E+00 -0.24913481703E+03  0.24913481703E+03  0.00000000000E+00 0. -1.
         25    1    1    2    0    0 -0.11529482144E+03 -0.14044973264E+03 -0.16115740716E+03  0.27315880570E+03  0.12500000000E+03 0.  0.
         25    1    1    2    0    0  0.11529482144E+03  0.14044973264E+03  0.34833150700E+03  0.41228492820E+03  0.12500000000E+03 0.  0.
</event>
<event>
 4    0  0.2202290E-002  0.2128784E+03  0.7546771E-02  0.1139307E+00
         21   -1    0    0  502  501  0.00000000000E+00  0.00000000000E+00  0.10748697462E+03  0.10748697462E+03  0.00000000000E+00 0. -1.
         21   -1    0    0  501  502 -0.00000000000E+00 -0.00000000000E+00 -0.42160645522E+03  0.42160645522E+03  0.00000000000E+00 0. -1.
         25    1    1    2    0    0 -0.22513590873E+02  0.12192857732E+03 -0.83554248921E+01  0.17626188716E+03  0.12500000000E+03 0.  0.
         25    1    1    2    0    0  0.22513590873E+02 -0.12192857732E+03 -0.30576405571E+03  0.35283154268E+03  0.12500000000E+03 0.  0.
</event>
<event>
 4    0  0.2202290E-002  0.2324556E+03  0.7546771E-02  0.1124923E+00
         21   -1    0    0  502  501  0.00000000000E+00  0.00000000000E+00  0.89800358352E+03  0.89800358352E+03  0.00000000000E+00 0.  1.
         21   -1    0    0  501  502 -0.00000000000E+00 -0.00000000000E+00 -0.60173015931E+02  0.60173015931E+02  0.00000000000E+00 0.  1.
         25    1    1    2    0    0 -0.71434208941E+02 -0.17389346190E+03  0.53308739948E+03  0.57892051077E+03  0.12500000000E+03 0.  0.
         25    1    1    2    0    0  0.71434208941E+02  0.17389346190E+03  0.30474316810E+03  0.37925608868E+03  0.12500000000E+03 0.  0.
</event>
<event>
 4    0  0.2202290E-002  0.1934167E+03  0.7546771E-02  0.1155415E+00
         21   -1    0    0  502  501  0.00000000000E+00  0.00000000000E+00  0.69211058611E+03  0.69211058611E+03  0.00000000000E+00 0. -1.
         21   -1    0    0  501  502 -0.00000000000E+00 -0.00000000000E+00 -0.54052076264E+02  0.54052076264E+02  0.00000000000E+00 0. -1.
         25    1    1    2    0    0  0.57383071326E+02  0.77319633367E+02  0.10325211684E+03  0.18856601553E+03  0.12500000000E+03 0.  0.
         25    1    1    2    0    0 -0.57383071326E+02 -0.77319633367E+02  0.53480639301E+03  0.55759664685E+03  0.12500000000E+03 0.  0.
</event>
<event>
 4    0  0.2202290E-002  0.1858759E+03  0.7546771E-02  0.1162234E+00
         21   -1    0    0  502  501  0.00000000000E+00  0.00000000000E+00  0.46272800298E+02  0.46272800298E+02  0.00000000000E+00 0.  1.
         21   -1    0    0  501  502 -0.00000000000E+00 -0.00000000000E+00 -0.74665576525E+03  0.74665576525E+03  0.00000000000E+00 0.  1.
         25    1    1    2    0    0 -0.12569973057E+03 -0.55896344995E+02 -0.34982534054E+03  0.39614087461E+03  0.12500000000E+03 0.  0.
         25    1    1    2    0    0  0.12569973057E+03  0.55896344995E+02 -0.35055762441E+03  0.39678769094E+03  0.12500000000E+03 0.  0.
</event>
<event>
 4    0  0.2202290E-002  0.3052748E+03  0.7546771E-02  0.1082633E+00
         21   -1    0    0  502  501  0.00000000000E+00  0.00000000000E+00  0.45763826962E+03  0.45763826962E+03  0.00000000000E+00 0. -1.
         21   -1    0    0  501  502 -0.00000000000E+00 -0.00000000000E+00 -0.20363832565E+03  0.20363832565E+03  0.00000000000E+00 0. -1.
         25    1    1    2    0    0  0.14150762557E+03  0.23829637780E+03  0.15682157472E+03  0.34209293776E+03  0.12500000000E+03 0.  0.
         25    1    1    2    0    0 -0.14150762557E+03 -0.23829637780E+03  0.97178369245E+02  0.31918365750E+03  0.12500000000E+03 0.  0.
</event>
<event>
 4    0  0.2202290E-002  0.1511431E+03  0.7546771E-02  0.1199075E+00
         21   -1    0    0  502  501  0.00000000000E+00  0.00000000000E+00  0.60806053552E+03  0.60806053552E+03  0.00000000000E+00 0. -1.
         21   -1    0    0  501  502 -0.00000000000E+00 -0.00000000000E+00 -0.37569020695E+02  0.37569020695E+02  0.00000000000E+00 0. -1.
         25    1    1    2    0    0  0.42020579852E+02  0.40168290829E+02  0.15289339458E+03  0.20586551636E+03  0.12500000000E+03 0.  0.
         25    1    1    2    0    0 -0.42020579852E+02 -0.40168290829E+02  0.41759812024E+03  0.43976403985E+03  0.12500000000E+03 0.  0.
</event>
<event>
 4    0  0.2202290E-002  0.4154369E+03  0.7546771E-02  0.1038562E+00
         21   -1    0    0  502  501  0.00000000000E+00  0.00000000000E+00  0.53888377875E+03  0.53888377875E+03  0.00000000000E+00 0.  1.
         21   -1    0    0  501  502 -0.00000000000E+00 -0.00000000000E+00 -0.32026913939E+03  0.32026913939E+03  0.00000000000E+00 0.  1.
         25    1    1    2    0    0  0.16142904001E+02 -0.33507097907E+03 -0.10865027777E+03  0.37411634183E+03  0.12500000000E+03 0.  0.
         25    1    1    2    0    0 -0.16142904001E+02  0.33507097907E+03  0.32726491713E+03  0.48503657630E+03  0.12500000000E+03 0.  0.
</event>
<event>
 4    0  0.2202290E-002  0.1733418E+03  0.7546771E-02  0.1174407E+00
         21   -1    0    0  502  501  0.00000000000E+00  0.00000000000E+00  0.98514759227E+02  0.98514759227E+02  0.00000000000E+00 0.  1.
         21   -1    0    0  501  502 -0.00000000000E+00 -0.00000000000E+00 -0.30500398299E+03  0.30500398299E+03  0.00000000000E+00 0.  1.
         25    1    1    2    0    0 -0.26601450662E+02 -0.11523824576E+03 -0.12751779617E+03  0.21418048185E+03  0.12500000000E+03 0.  0.
         25    1    1    2    0    0  0.26601450662E+02  0.11523824576E+03 -0.78971427591E+02  0.18933826037E+03  0.12500000000E+03 0.  0.
</event>
<event>
 4    0  0.2202290E-002  0.2018489E+03  0.7546771E-02  0.1148188E+00
         21   -1    0    0  502  501  0.00000000000E+00  0.00000000000E+00  0.22163194691E+03  0.22163194691E+03  0.00000000000E+00 0. -1.
         21   -1    0    0  501  502 -0.00000000000E+00 -0.00000000000E+00 -0.18383173202E+03  0.18383173202E+03  0.00000000000E+00 0. -1.
         25    1    1    2    0    0  0.21745830399E+02 -0.12937568481E+03 -0.70410365831E+02  0.19440568041E+03  0.12500000000E+03 0.  0.
         25    1    1    2    0    0 -0.21745830399E+02  0.12937568481E+03  0.10821058071E+03  0.21105799852E+03  0.12500000000E+03 0.  0.
</event>
<event>
 4    0  0.2202290E-002  0.1777974E+03  0.7546771E-02  0.1169952E+00
         21   -1    0    0  502  501  0.00000000000E+00  0.00000000000E+00  0.11231666983E+03  0.11231666983E+03  0.00000000000E+00 0.  1.
         21   -1    0    0  501  502 -0.00000000000E+00 -0.00000000000E+00 -0.28145342222E+03  0.28145342222E+03  0.00000000000E+00 0.  1.
         25    1    1    2    0    0 -0.62508468219E+02  0.64249556381E+02 -0.18331324479E+03  0.23929910115E+03  0.12500000000E+03 0.  0.
         25    1    1    2    0    0  0.62508468219E+02 -0.64249556381E+02  0.14176492394E+02  0.15447099090E+03  0.12500000000E+03 0.  0.
</event>
<event>
 4    0  0.2202290E-002  0.2099038E+03  0.7546771E-02  0.1141642E+00
         21   -1    0    0  502  501  0.00000000000E+00  0.00000000000E+00  0.17235571975E+04  0.17235571975E+04  0.00000000000E+00 0.  1.
         21   -1    0    0  501  502 -0.00000000000E+00 -0.00000000000E+00 -0.25563174584E+02  0.25563174584E+02  0.00000000000E+00 0.  1.
         25    1    1    2    0    0 -0.42602472332E+02  0.63334808728E+02  0.14754718776E+04  0.14827233492E+04  0.12500000000E+03 0.  0.
         25    1    1    2    0    0  0.42602472332E+02 -0.63334808728E+02  0.22252214525E+03  0.26639702283E+03  0.12500000000E+03 0.  0.
</event>
<event>
 4    0  0.2202290E-002  0.1868532E+03  0.7546771E-02  0.1161331E+00
         21   -1    0    0  502  501  0.00000000000E+00  0.00000000000E+00  0.16199672916E+03  0.16199672916E+03  0.00000000000E+00 0. -1.
         21   -1    0    0  501  502 -0.00000000000E+00 -0.00000000000E+00 -0.21552367928E+03  0.21552367928E+03  0.00000000000E+00 0. -1.
         25    1    1    2    0    0  0.82892385733E+02 -0.10894067429E+03 -0.50453024553E+02  0.19211904074E+03  0.12500000000E+03 0.  0.
         25    1    1    2    0    0 -0.82892385733E+02  0.10894067429E+03 -0.30739255658E+01  0.18540136770E+03  0.12500000000E+03 0.  0.
</event>
<event>
 4    0  0.2202290E-002  0.1668962E+03  0.7546771E-02  0.1181124E+00
         21   -1    0    0  502  501  0.00000000000E+00  0.00000000000E+00  0.85681472799E+03  0.85681472799E+03  0.00000000000E+00 0.  1.
         21   -1    0    0  501  502 -0.00000000000E+00 -0.00000000000E+00 -0.32509158688E+02  0.32509158688E+02  0.00000000000E+00 0.  1.
         25    1    1    2    0    0 -0.10811158509E+03 -0.22764605964E+02  0.39937972468E+03  0.43282271960E+03  0.12500000000E+03 0.  0.
         25    1    1    2    0    0  0.10811158509E+03  0.22764605964E+02  0.42492584462E+03  0.45650116708E+03  0.12500000000E+03 0.  0.
</event>
<event>
 4    0  0.2202290E-002  0.1837510E+03  0.7546771E-02  0.1164221E+00
         21   -1    0    0  502  501  0.00000000000E+00  0.00000000000E+00  0.11672995064E+02  0.11672995064E+02  0.00000000000E+00 0. -1.
         21   -1    0    0  501  502 -0.00000000000E+00 -0.00000000000E+00 -0.28925259828E+04  0.28925259828E+04  0.00000000000E+00 0. -1.
         25    1    1    2    0    0  0.11713179744E+03  0.17419086852E+02 -0.93342101034E+03  0.94916967139E+03  0.12500000000E+03 0.  0.
         25    1    1    2    0    0 -0.11713179744E+03 -0.17419086852E+02 -0.19474319774E+04  0.19550293065E+04  0.12500000000E+03 0.  0.
</event>
<event>
 4    0  0.2202290E-002  0.2955164E+03  0.7546771E-02  0.1087504E+00
         21   -1    0    0  502  501  0.00000000000E+00  0.00000000000E+00  0.22022088004E+04  0.22022088004E+04  0.00000000000E+00 0. -1.
         21   -1    0    0  501  502 -0.00000000000E+00 -0.00000000000E+00 -0.39655626798E+02  0.39655626798E+02  0.00000000000E+00 0. -1.
         25    1    1    2    0    0  0.18058434215E+03  0.12293601958E+03  0.49388009887E+03  0.55431626496E+03  0.12500000000E+03 0.  0.
         25    1    1    2    0    0 -0.18058434215E+03 -0.12293601958E+03  0.16686730747E+04  0.16875481623E+04  0.12500000000E+03 0.  0.
</event>
<event>
 4    0  0.2202290E-002  0.2036236E+03  0.7546771E-02  0.1146717E+00
         21   -1    0    0  502  501  0.00000000000E+00  0.00000000000E+00  0.57738259031E+02  0.57738259031E+02  0.00000000000E+00 0. -1.
         21   -1    0    0  501  502 -0.00000000000E+00 -0.00000000000E+00 -0.71811258311E+03  0.71811258311E+03  0.00000000000E+00 0. -1.
         25    1    1    2    0    0 -0.72975022114E+02  0.99829378975E+02 -0.52583291670E+03  0.55445154436E+03  0.12500000000E+03 0.  0.
         25    1    1    2    0    0  0.72975022114E+02 -0.99829378975E+02 -0.13454140738E+03  0.22139929779E+03  0.12500000000E+03 0.  0.
</event>
<event>
 4    0  0.2202290E-002  0.1749734E+03  0.7546771E-02  0.1172758E+00
         21   -1    0    0  502  501  0.00000000000E+00  0.00000000000E+00  0.11430441632E+04  0.11430441632E+04  0.00000000000E+00 0. -1.
         21   -1    0    0  501  502 -0.00000000000E+00 -0.00000000000E+00 -0.26784355596E+02  0.26784355596E+02  0.00000000000E+00 0. -1.
         25    1    1    2    0    0  0.41145491622E+02  0.10927437201E+03  0.68126670241E+03  0.70241238577E+03  0.12500000000E+03 0.  0.
         25    1    1    2    0    0 -0.41145491622E+02 -0.10927437201E+03  0.43499310523E+03  0.46741613307E+03  0.12500000000E+03 0.  0.
</event>
<event>
 4    0  0.2202290E-002  0.2542759E+03  0.7546771E-02  0.1110632E+00
         21   -1    0    0  502  501  0.00000000000E+00  0.00000000000E+00  0.57609475185E+03  0.57609475185E+03  0.00000000000E+00 0. -1.
         21   -1    0    0  501  502 -0.00000000000E+00 -0.00000000000E+00 -0.11223193532E+03  0.11223193532E+03  0.00000000000E+00 0. -1.
         25    1    1    2    0    0 -0.14749494602E+03  0.16044688881E+03  0.17893235192E+03  0.30844732094E+03  0.12500000000E+03 0.  0.
         25    1    1    2    0    0  0.14749494602E+03 -0.16044688881E+03  0.28493046461E+03  0.37987936624E+03  0.12500000000E+03 0.  0.
</event>
<event>
 4    0  0.2202290E-002  0.2676018E+03  0.7546771E-02  0.1102660E+00
         21   -1    0    0  502  501  0.00000000000E+00  0.00000000000E+00  0.46013658912E+02  0.46013658912E+02  0.00000000000E+00 0. -1.
         21   -1    0    0  501  502 -0.00000000000E+00 -0.00000000000E+00 -0.15562927879E+04  0.15562927879E+04  0.00000000000E+00 0. -1.
         25    1    1    2    0    0  0.93978942498E+02 -0.11816833995E+03 -0.13005578554E+04  0.13152458072E+04  0.12500000000E+03 0.  0.
         25    1    1    2    0    0 -0.93978942498E+02  0.11816833995E+03 -0.20972127359E+03  0.28706063958E+03  0.12500000000E+03 0.  0.
</event>
<event>
 4    0  0.2202290E-002  0.2049527E+03  0.7546771E-02  0.1145626E+00
         21   -1    0    0  502  501  0.00000000000E+00  0.00000000000E+00  0.19442984659E+04  0.19442984659E+04  0.00000000000E+00 0. -1.
         21   -1    0    0  501  502 -0.00000000000E+00 -0.00000000000E+00 -0.21604516624E+02  0.21604516624E+02  0.00000000000E+00 0. -1.
         25    1    1    2    0    0  0.80397457493E+02 -0.13483367991E+03  0.76147690626E+03  0.78747441303E+03  0.12500000000E+03 0.  0.
         25    1    1    2    0    0 -0.80397457493E+02  0.13483367991E+03  0.11612170430E+04  0.11784285695E+04  0.12500000000E+03 0.  0.
</event>
<event>
 4    0  0.2202290E-002  0.2300679E+03  0.7546771E-02  0.1126592E+00
         21   -1    0    0  502  501  0.00000000000E+00  0.00000000000E+00  0.78366514447E+02  0.78366514447E+02  0.00000000000E+00 0. -1.
         21   -1    0    0  501  502 -0.00000000000E+00 -0.00000000000E+00 -0.67543202545E+03  0.67543202545E+03  0.00000000000E+00 0. -1.
         25    1    1    2    0    0 -0.73983232731E+02  0.96663416681E+02 -0.54420352941E+03  0.57148912175E+03  0.12500000000E+03 0.  0.
         25    1    1    2    0    0  0.73983232731E+02 -0.96663416681E+02 -0.52861981595E+02  0.18230941815E+03  0.12500000000E+03 0.  0.
</event>
<event>
 4    0  0.2202290E-002  0.2972199E+03  0.7546771E-02  0.1086639E+00
         21   -1    0    0  502  501  0.00000000000E+00  0.00000000000E+00  0.58542863219E+02  0.58542863219E+02  0.00000000000E+00 0.  1.
         21   -1    0    0  501  502 -0.00000000000E+00 -0.00000000000E+00 -0.15089746806E+04  0.15089746806E+04  0.00000000000E+00 0.  1.
         25    1    1    2    0    0 -0.13965113378E+03 -0.17009185265E+02 -0.13318495177E+04  0.13450798821E+04  0.12500000000E+03 0.  0.
         25    1    1    2    0    0  0.13965113378E+03  0.17009185265E+02 -0.11858229975E+03  0.22243766175E+03  0.12500000000E+03 0.  0.
</event>
<event>
 4    0  0.2202290E-002  0.2070123E+03  0.7546771E-02  0.1143954E+00
         21   -1    0    0  502  501  0.00000000000E+00  0.00000000000E+00  0.38693337518E+03  0.38693337518E+03  0.00000000000E+00 0.  1.
         21   -1    0    0  501  502 -0.00000000000E+00 -0.00000000000E+00 -0.11075320049E+03  0.11075320049E+03  0.00000000000E+00 0.  1.
         25    1    1    2    0    0  0.16103622574E+03 -0.35275192464E+02  0.14676703931E+03  0.25365837071E+03  0.12500000000E+03 0.  0.
         25    1    1    2    0    0 -0.16103622574E+03  0.35275192464E+02  0.12941313538E+03  0.24402820496E+03  0.12500000000E+03 0.  0.
</event>
<event>
 4    0  0.2202290E-002  0.2012010E+03  0.7546771E-02  0.1148730E+00
         21   -1    0    0  502  501  0.00000000000E+00  0.00000000000E+00  0.18579848094E+03  0.18579848094E+03  0.00000000000E+00 0. -1.
         21   -1    0    0  501  502 -0.00000000000E+00 -0.00000000000E+00 -0.21788044529E+03  0.21788044529E+03  0.00000000000E+00 0. -1.
         25    1    1    2    0    0  0.59527555257E+02  0.10590782896E+03  0.84760981701E+02  0.19382833149E+03  0.12500000000E+03 0.  0.
         25    1    1    2    0    0 -0.59527555257E+02 -0.10590782896E+03 -0.11684294606E+03  0.20985059474E+03  0.12500000000E+03 0.  0.
</event>
<event>
 4    0  0.2202290E-002  0.2119480E+03  0.7546771E-02  0.1140033E+00
         21   -1    0    0  502  501  0.00000000000E+00  0.00000000000E+00  0.99805926540E+03  0.99805926540E+03  0.00000000000E+00 0. -1.
         21   -1    0    0  501  502 -0.00000000000E+00 -0.00000000000E+00 -0.45009309402E+02  0.45009309402E+02  0.00000000000E+00 0. -1.
         25    1    1    2    0    0 -0.76583225264E+02 -0.14256633872E+03  0.33937028903E+03  0.39621628488E+03  0.12500000000E+03 0.  0.
         25    1    1    2    0    0  0.76583225264E+02  0.14256633872E+03  0.61367966697E+03  0.64685228992E+03  0.12500000000E+03 0.  0.
</event>
<event>
 4    0  0.2202290E-002  0.2266014E+03  0.7546771E-02  0.1129055E+00
         21   -1    0    0  502  501  0.00000000000E+00  0.00000000000E+00  0.78199255239E+02  0.78199255239E+02  0.00000000000E+00 0.  1.
         21   -1    0    0  501  502 -0.00000000000E+00 -0.00000000000E+00 -0.65663250903E+03  0.65663250903E+03  0.00000000000E+00 0.  1.
         25    1    1    2    0    0 -0.14358340354E+03  0.11400010587E+03 -0.36371296775E+03  0.42605673427E+03  0.12500000000E+03 0.  0.
         25    1    1    2    0    0  0.14358340354E+03 -0.11400010587E+03 -0.21472028605E+03  0.30877503000E+03  0.12500000000E+03 0.  0.
</event>
<event>
 4    0  0.2202290E-002  0.2292546E+03  0.7546771E-02  0.1127166E+00
         21   -1    0    0  502  501  0.00000000000E+00  0.00000000000E+00  0.25200864506E+04  0.25200864506E+04  0.00000000000E+00 0.  1.
         21   -1    0    0  501  502 -0.00000000000E+00 -0.00000000000E+00 -0.20855495999E+02  0.20855495999E+02  0.00000000000E+00 0.  1.
         25    1    1    2    0    0 -0.17467259373E+03 -0.59507841287E+02  0.15470661679E+04  0.15630388434E+04  0.12500000000E+03 0.  0.
         25    1    1    2    0    0  0.17467259373E+03  0.59507841287E+02  0.95216478669E+03  0.97790310317E+03  0.12500000000E+03 0.  0.
</event>
<event>
 4    0  0.2202290E-002  0.2583319E+03  0.7546771E-02  0.1108150E+00
         21   -1    0    0  502  501  0.00000000000E+00  0.00000000000E+00  0.14838777164E+03  0.14838777164E+03  0.00000000000E+00 0. -1.
         21   -1    0    0  501  502 -0.00000000000E+00 -0.00000000000E+00 -0.44973620729E+03  0.44973620729E+03  0.00000000000E+00 0. -1.
         25    1    1    2    0    0  0.10647099460E+03  0.73784156358E+02  0.63822805785E+02  0.19099352073E+03  0.12500000000E+03 0.  0.
         25    1    1    2    0    0 -0.10647099460E+03 -0.73784156358E+02 -0.36517124144E+03  0.40713045820E+03  0.12500000000E+03 0.  0.
</event>
<event>
 4    0  0.2202290E-002  0.2072725E+03  0.7546771E-02  0.1143744E+00
         21   -1    0    0  502  501  0.00000000000E+00  0.00000000000E+00  0.52566887949E+03  0.52566887949E+03  0.00000000000E+00 0. -1.
         21   -1    0    0  501  502 -0.00000000000E+00 -0.00000000000E+00 -0.81728040263E+02  0.81728040263E+02  0.00000000000E+00 0. -1.
         25    1    1    2    0    0  0.64119006934E+02  0.10404773529E+03  0.58813062640E+02  0.18444824371E+03  0.12500000000E+03 0.  0.
         25    1    1    2    0    0 -0.64119006934E+02 -0.10404773529E+03  0.38512777658E+03  0.42294867604E+03  0.12500000000E+03 0.  0.
</event>
<event>
 4    0  0.2202290E-002  0.2107378E+03  0.7546771E-02  0.1140983E+00
         21   -1    0    0  502  501  0.00000000000E+00  0.00000000000E+00  0.11074791692E+03  0.11074791692E+03  0.00000000000E+00 0. -1.
         21   -1    0    0  501  502 -0.00000000000E+00 -0.00000000000E+00 -0.40100474804E+03  0.40100474804E+03  0.00000000000E+00 0. -1.
         25    1    1    2    0    0 -0.42032062705E+02  0.13183681502E+03 -0.25928337077E+02  0.18826820962E+03  0.12500000000E+03 0.  0.
         25    1    1    2    0    0  0.42032062705E+02 -0.13183681502E+03 -0.26432849404E+03  0.32348445535E+03  0.12500000000E+03 0.  0.
</event>
<event>
 4    0  0.2202290E-002  0.2272558E+03  0.7546771E-02  0.1128586E+00
         21   -1    0    0  502  501  0.00000000000E+00  0.00000000000E+00  0.89847171541E+03  0.89847171541E+03  0.00000000000E+00 0. -1.
         21   -1    0    0  501  502 -0.00000000000E+00 -0.00000000000E+00 -0.57481141271E+02  0.57481141271E+02  0.00000000000E+00 0. -1.
         25    1    1    2    0    0  0.30091914708E+02 -0.83419932159E+02  0.77341449613E+03  0.78845379778E+03  0.12500000000E+03 0.  0.
         25    1    1    2    0    0 -0.30091914708E+02  0.83419932159E+02  0.67576078004E+02  0.16749905889E+03  0.12500000000E+03 0.  0.
</event>
<event>
 4    0  0.2202290E-002  0.2076674E+03  0.7546771E-02  0.1143427E+00
         21   -1    0    0  502  501  0.00000000000E+00  0.00000000000E+00  0.10372555199E+04  0.10372555199E+04  0.00000000000E+00 0. -1.
         21   -1    0    0  501  502 -0.00000000000E+00 -0.00000000000E+00 -0.41576769292E+02  0.41576769292E+02  0.00000000000E+00 0. -1.
         25    1    1    2    0    0  0.12864815877E+03 -0.10242024880E+03  0.44210029235E+03  0.48797328268E+03  0.12500000000E+03 0.  0.
         25    1    1    2    0    0 -0.12864815877E+03  0.10242024880E+03  0.55357845824E+03  0.59085900648E+03  0.12500000000E+03 0.  0.
</event>
<event>
 4    0  0.2202290E-002  0.3005668E+03  0.7546771E-02  0.1084958E+00
         21   -1    0    0  502  501  0.00000000000E+00  0.00000000000E+00  0.19431110359E+03  0.19431110359E+03  0.00000000000E+00 0. -1.
         21   -1    0    0  501  502 -0.00000000000E+00 -0.00000000000E+00 -0.46492656821E+03  0.46492656821E+03  0.00000000000E+00 0. -1.
         25    1    1    2    0    0 -0.21133583553E+03 -0.14125442791E+03 -0.24551906421E+03  0.37486032021E+03  0.12500000000E+03 0.  0.
         25    1    1    2    0    0  0.21133583553E+03  0.14125442791E+03 -0.25096400409E+02  0.28437735159E+03  0.12500000000E+03 0.  0.
</event>
<event>
 4    0  0.2202290E-002  0.2465183E+03  0.7546771E-02  0.1115525E+00
         21   -1    0    0  502  501  0.00000000000E+00  0.00000000000E+00  0.11140477606E+03  0.11140477606E+03  0.00000000000E+00 0.  1.
         21   -1    0    0  501  502 -0.00000000000E+00 -0.00000000000E+00 -0.54549954071E+03  0.54549954071E+03  0.00000000000E+00 0.  1.
         25    1    1    2    0    0 -0.15637101237E+03  0.10169049340E+03 -0.81477067189E+02  0.23886473669E+03  0.12500000000E+03 0.  0.
         25    1    1    2    0    0  0.15637101237E+03 -0.10169049340E+03 -0.35261769746E+03  0.41803958008E+03  0.12500000000E+03 0.  0.
</event>
<event>
 4    0  0.2202290E-002  0.1914227E+03  0.7546771E-02  0.1157184E+00
         21   -1    0    0  502  501  0.00000000000E+00  0.00000000000E+00  0.53249276190E+03  0.53249276190E+03  0.00000000000E+00 0. -1.
         21   -1    0    0  501  502 -0.00000000000E+00 -0.00000000000E+00 -0.68813429162E+02  0.68813429162E+02  0.00000000000E+00 0. -1.
         25    1    1    2    0    0 -0.11817523606E+03 -0.35126621476E+02  0.11203505712E+03  0.20826934479E+03  0.12500000000E+03 0.  0.
         25    1    1    2    0    0  0.11817523606E+03  0.35126621476E+02  0.35164427562E+03  0.39303684628E+03  0.12500000000E+03 0.  0.
</event>
<event>
 4    0  0.2202290E-002  0.2258679E+03  0.7546771E-02  0.1129582E+00
         21   -1    0    0  502  501  0.00000000000E+00  0.00000000000E+00  0.61108088164E+03  0.61108088164E+03  0.00000000000E+00 0.  1.
         21   -1    0    0  501  502 -0.00000000000E+00 -0.00000000000E+00 -0.83485335840E+02  0.83485335840E+02  0.00000000000E+00 0.  1.
         25    1    1    2    0    0 -0.10983827932E+03  0.14329960744E+03  0.18255360927E+03  0.28556968564E+03  0.12500000000E+03 0.  0.
         25    1    1    2    0    0  0.10983827932E+03 -0.14329960744E+03  0.34504193653E+03  0.40899653184E+03  0.12500000000E+03 0.  0.
</event>
<event>
 4    0  0.2202290E-002  0.2062668E+03  0.7546771E-02  0.1144557E+00
         21   -1    0    0  502  501  0.00000000000E+00  0.00000000000E+00  0.19321529734E+03  0.19321529734E+03  0.00000000000E+00 0. -1.
         21   -1    0    0  501  502 -0.00000000000E+00 -0.00000000000E+00 -0.22019993435E+03  0.22019993435E+03  0.00000000000E+00 0. -1.
         25    1    1    2    0    0 -0.12640740245E+03 -0.99895683563E+02  0.17606512473E+02  0.20467771806E+03  0.12500000000E+03 0.  0.
         25    1    1    2    0    0  0.12640740245E+03  0.99895683563E+02 -0.44591149482E+02  0.20873751364E+03  0.12500000000E+03 0.  0.
</event>
<event>
 4    0  0.2202290E-002  0.3859446E+03  0.7546771E-02  0.1048758E+00
         21   -1    0    0  502  501  0.00000000000E+00  0.00000000000E+00  0.18633923227E+03  0.18633923227E+03  0.00000000000E+00 0. -1.
         21   -1    0    0  501  502 -0.00000000000E+00 -0.00000000000E+00 -0.79936596695E+03  0.79936596695E+03  0.00000000000E+00 0. -1.
         25    1    1    2    0    0 -0.39874017907E+02  0.35867059655E+03 -0.23548503390E+03  0.44867887773E+03  0.12500000000E+03 0.  0.
         25    1    1    2    0    0  0.39874017907E+02 -0.35867059655E+03 -0.37754170079E+03  0.53702632149E+03  0.12500000000E+03 0.  0.
</event>
<event>
 4    0  0.2202290E-002  0.1486658E+03  0.7546771E-02  0.1202122E+00
         21   -1    0    0  502  501  0.00000000000E+00  0.00000000000E+00  0.73337334096E+03  0.73337334096E+03  0.00000000000E+00 0. -1.
         21   -1    0    0  501  502 -0.00000000000E+00 -0.00000000000E+00 -0.30136773805E+02  0.30136773805E+02  0.00000000000E+00 0. -1.
         25    1    1    2    0    0 -0.12329781307E+02 -0.31132892585E+02  0.53953385185E+03  0.55483606390E+03  0.12500000000E+03 0.  0.
         25    1    1    2    0    0  0.12329781307E+02  0.31132892585E+02  0.16370271530E+03  0.20867405087E+03  0.12500000000E+03 0.  0.
</event>
<event>
 4    0  0.2202290E-002  0.1915896E+03  0.7546771E-02  0.1157035E+00
         21   -1    0    0  502  501  0.00000000000E+00  0.00000000000E+00  0.32383188158E+03  0.32383188158E+03  0.00000000000E+00 0.  1.
         21   -1    0    0  501  502 -0.00000000000E+00 -0.00000000000E+00 -0.11335076994E+03  0.11335076994E+03  0.00000000000E+00 0.  1.
         25    1    1    2    0    0 -0.56116552844E+02  0.81971190366E+02  0.22605716121E+03  0.27675834890E+03  0.12500000000E+03 0.  0.
         25    1    1    2    0    0  0.56116552844E+02 -0.81971190366E+02 -0.15576049569E+02  0.16042430263E+03  0.12500000000E+03 0.  0.
</event>
<event>
 4    0  0.2202290E-002  0.1835904E+03  0.7546771E-02  0.1164373E+00
         21   -1    0    0  502  501  0.00000000000E+00  0.00000000000E+00  0.75320509410E+03  0.75320509410E+03  0.00000000000E+00 0.  1.
         21   -1    0    0  501  502 -0.00000000000E+00 -0.00000000000E+00 -0.44749343606E+02  0.44749343606E+02  0.00000000000E+00 0.  1.
         25    1    1    2    0    0  0.10918332678E+03 -0.72085617586E+02  0.42167034754E+03  0.45885533353E+03  0.12500000000E+03 0.  0.
         25    1    1    2    0    0 -0.10918332678E+03  0.72085617586E+02  0.28678540295E+03  0.33909910418E+03  0.12500000000E+03 0.  0.
</event>
<event>
 4    0  0.2202290E-002  0.2622183E+03  0.7546771E-02  0.1105818E+00
         21   -1    0    0  502  501  0.00000000000E+00  0.00000000000E+00  0.18556826328E+03  0.18556826328E+03  0.00000000000E+00 0. -1.
         21   -1    0    0  501  502 -0.00000000000E+00 -0.00000000000E+00 -0.37052901137E+03  0.37052901137E+03  0.00000000000E+00 0. -1.
         25    1    1    2    0    0  0.38493131856E+02  0.12713365373E+03 -0.29223787152E+03  0.34448898482E+03  0.12500000000E+03 0.  0.
         25    1    1    2    0    0 -0.38493131856E+02 -0.12713365373E+03  0.10727712343E+03  0.21160828983E+03  0.12500000000E+03 0.  0.
</event>
<event>
 4    0  0.2202290E-002  0.1518183E+03  0.7546771E-02  0.1198256E+00
         21   -1    0    0  502  501  0.00000000000E+00  0.00000000000E+00  0.11796985159E+03  0.11796985159E+03  0.00000000000E+00 0. -1.
         21   -1    0    0  501  502 -0.00000000000E+00 -0.00000000000E+00 -0.19537868908E+03  0.19537868908E+03  0.00000000000E+00 0. -1.
         25    1    1    2    0    0  0.68156811081E+02  0.21854030962E+02 -0.88205796494E+02  0.16890296653E+03  0.12500000000E+03 0.  0.
         25    1    1    2    0    0 -0.68156811081E+02 -0.21854030962E+02  0.10796958996E+02  0.14444557414E+03  0.12500000000E+03 0.  0.
</event>
<event>
 4    0  0.2202290E-002  0.2417889E+03  0.7546771E-02  0.1118607E+00
         21   -1    0    0  502  501  0.00000000000E+00  0.00000000000E+00  0.92708235803E+02  0.92708235803E+02  0.00000000000E+00 0.  1.
         21   -1    0    0  501  502 -0.00000000000E+00 -0.00000000000E+00 -0.63060058589E+03  0.63060058589E+03  0.00000000000E+00 0.  1.
         25    1    1    2    0    0 -0.17054521828E+03 -0.27696591745E+02 -0.43938293420E+03  0.48840058921E+03  0.12500000000E+03 0.  0.
         25    1    1    2    0    0  0.17054521828E+03  0.27696591745E+02 -0.98509415894E+02  0.23490823249E+03  0.12500000000E+03 0.  0.
</event>
<event>
 4    0  0.2202290E-002  0.3162962E+03  0.7546771E-02  0.1077367E+00
         21   -1    0    0  502  501  0.00000000000E+00  0.00000000000E+00  0.71066958898E+03  0.71066958898E+03  0.00000000000E+00 0.  1.
         21   -1    0    0  501  502 -0.00000000000E+00 -0.00000000000E+00 -0.14077325138E+03  0.14077325138E+03  0.00000000000E+00 0.  1.
         25    1    1    2    0    0  0.23866388762E+03 -0.11939545763E+03  0.43960188029E+03  0.52923580729E+03  0.12500000000E+03 0.  0.
         25    1    1    2    0    0 -0.23866388762E+03  0.11939545763E+03  0.13029445730E+03  0.32220703307E+03  0.12500000000E+03 0.  0.
</event>
<event>
 4    0  0.2202290E-002  0.2039324E+03  0.7546771E-02  0.1146463E+00
         21   -1    0    0  502  501  0.00000000000E+00  0.00000000000E+00  0.94563151088E+02  0.94563151088E+02  0.00000000000E+00 0. -1.
         21   -1    0    0  501  502 -0.00000000000E+00 -0.00000000000E+00 -0.43979510285E+03  0.43979510285E+03  0.00000000000E+00 0. -1.
         25    1    1    2    0    0  0.55292347566E+02  0.14884887450E+03 -0.13673212902E+03  0.24399570948E+03  0.12500000000E+03 0.  0.
         25    1    1    2    0    0 -0.55292347566E+02 -0.14884887450E+03 -0.20849982275E+03  0.29036254446E+03  0.12500000000E+03 0.  0.
</event>
<event>
 4    0  0.2202290E-002  0.1808017E+03  0.7546771E-02  0.1167029E+00
         21   -1    0    0  502  501  0.00000000000E+00  0.00000000000E+00  0.14557188011E+03  0.14557188011E+03  0.00000000000E+00 0. -1.
         21   -1    0    0  501  502 -0.00000000000E+00 -0.00000000000E+00 -0.22455736368E+03  0.22455736368E+03  0.00000000000E+00 0. -1.
         25    1    1    2    0    0  0.72943282785E+01  0.68550050941E+01  0.93824292258E+02  0.15661480178E+03  0.12500000000E+03 0.  0.
         25    1    1    2    0    0 -0.72943282785E+01 -0.68550050941E+01 -0.17280977583E+03  0.21351444200E+03  0.12500000000E+03 0.  0.
</event>
<event>
 4    0  0.2202290E-002  0.1987239E+03  0.7546771E-02  0.1150820E+00
         21   -1    0    0  502  501  0.00000000000E+00  0.00000000000E+00  0.60205652324E+03  0.60205652324E+03  0.00000000000E+00 0. -1.
         21   -1    0    0  501  502 -0.00000000000E+00 -0.00000000000E+00 -0.65593800915E+02  0.65593800915E+02  0.00000000000E+00 0. -1.
         25    1    1    2    0    0 -0.11939257803E+03 -0.94105171873E+02  0.22204924595E+03  0.29671743913E+03  0.12500000000E+03 0.  0.
         25    1    1    2    0    0  0.11939257803E+03  0.94105171873E+02  0.31441347638E+03  0.37093288502E+03  0.12500000000E+03 0.  0.
</event>
<event>
 4    0  0.2202290E-002  0.2414923E+03  0.7546771E-02  0.1118803E+00
         21   -1    0    0  502  501  0.00000000000E+00  0.00000000000E+00  0.15097191417E+03  0.15097191417E+03  0.00000000000E+00 0.  1.
         21   -1    0    0  501  502 -0.00000000000E+00 -0.00000000000E+00 -0.38628733619E+03  0.38628733619E+03  0.00000000000E+00 0.  1.
         25    1    1    2    0    0  0.41528140718E+02 -0.11045660230E+03 -0.30632978449E+03  0.35126654313E+03  0.12500000000E+03 0.  0.
         25    1    1    2    0    0 -0.41528140718E+02  0.11045660230E+03  0.71014362468E+02  0.18599270722E+03  0.12500000000E+03 0.  0.
</event>
<event>
 4    0  0.2202290E-002  0.1944031E+03  0.7546771E-02  0.1154549E+00
         21   -1    0    0  502  501  0.00000000000E+00  0.00000000000E+00  0.50957000162E+03  0.50957000162E+03  0.00000000000E+00 0.  1.
         21   -1    0    0  501  502 -0.00000000000E+00 -0.00000000000E+00 -0.74165597103E+02  0.74165597103E+02  0.00000000000E+00 0.  1.
         25    1    1    2    0    0 -0.23331282008E+02 -0.14688279562E+03  0.20722935193E+03  0.28405617168E+03  0.12500000000E+03 0.  0.
         25    1    1    2    0    0  0.23331282008E+02  0.14688279562E+03  0.22817505259E+03  0.29967942704E+03  0.12500000000E+03 0.  0.
</event>
<event>
 4    0  0.2202290E-002  0.2405278E+03  0.7546771E-02  0.1119442E+00
         21   -1    0    0  502  501  0.00000000000E+00  0.00000000000E+00  0.63839358313E+03  0.63839358313E+03  0.00000000000E+00 0.  1.
         21   -1    0    0  501  502 -0.00000000000E+00 -0.00000000000E+00 -0.90623766678E+02  0.90623766678E+02  0.00000000000E+00 0.  1.
         25    1    1    2    0    0  0.41996334172E+02 -0.17949253084E+03  0.13625896524E+03  0.26109915036E+03  0.12500000000E+03 0.  0.
         25    1    1    2    0    0 -0.41996334172E+02  0.17949253084E+03  0.41151085122E+03  0.46791819945E+03  0.12500000000E+03 0.  0.
</event>
<event>
 4    0  0.2202290E-002  0.2467359E+03  0.7546771E-02  0.1115385E+00
         21   -1    0    0  502  501  0.00000000000E+00  0.00000000000E+00  0.15275293020E+04  0.15275293020E+04  0.00000000000E+00 0. -1.
         21   -1    0    0  501  502 -0.00000000000E+00 -0.00000000000E+00 -0.39854300908E+02  0.39854300908E+02  0.00000000000E+00 0. -1.
         25    1    1    2    0    0 -0.96781976286E+02 -0.10886094850E+03  0.25140644711E+03  0.31630311204E+03  0.12500000000E+03 0.  0.
         25    1    1    2    0    0  0.96781976286E+02  0.10886094850E+03  0.12362685540E+04  0.12510804908E+04  0.12500000000E+03 0.  0.
</event>
<event>
 4    0  0.2202290E-002  0.1717189E+03  0.7546771E-02  0.1176067E+00
         21   -1    0    0  502  501  0.00000000000E+00  0.00000000000E+00  0.95580660524E+02  0.95580660524E+02  0.00000000000E+00 0. -1.
         21   -1    0    0  501  502 -0.00000000000E+00 -0.00000000000E+00 -0.30850770945E+03  0.30850770945E+03  0.00000000000E+00 0. -1.
         25    1    1    2    0    0  0.66689624909E+01 -0.10605070560E+03 -0.16612465560E+03  0.23348153764E+03  0.12500000000E+03 0.  0.
         25    1    1    2    0    0 -0.66689624909E+01  0.10605070560E+03 -0.46802393332E+02  0.17060683234E+03  0.12500000000E+03 0.  0.
</event>
<event>
 4    0  0.2202290E-002  0.2447091E+03  0.7546771E-02  0.1116695E+00
         21   -1    0    0  502  501  0.00000000000E+00  0.00000000000E+00  0.42203344160E+03  0.42203344160E+03  0.00000000000E+00 0.  1.
         21   -1    0    0  501  502 -0.00000000000E+00 -0.00000000000E+00 -0.14189054672E+03  0.14189054672E+03  0.00000000000E+00 0.  1.
         25    1    1    2    0    0 -0.13536640863E+03  0.11726835957E+03  0.26724388258E+03  0.34513798040E+03  0.12500000000E+03 0.  0.
         25    1    1    2    0    0  0.13536640863E+03 -0.11726835957E+03  0.12899012299E+02  0.21878600791E+03  0.12500000000E+03 0.  0.
</event>
<event>
 4    0  0.2202290E-002  0.2201938E+03  0.7546771E-02  0.1133739E+00
         21   -1    0    0  502  501  0.00000000000E+00  0.00000000000E+00  0.63270641603E+03  0.63270641603E+03  0.00000000000E+00 0.  1.
         21   -1    0    0  501  502 -0.00000000000E+00 -0.00000000000E+00 -0.76631615201E+02  0.76631615201E+02  0.00000000000E+00 0.  1.
         25    1    1    2    0    0 -0.17648435567E+03 -0.10094215327E+02  0.21337387400E+03  0.30397702394E+03  0.12500000000E+03 0.  0.
         25    1    1    2    0    0  0.17648435567E+03  0.10094215327E+02  0.34270092683E+03  0.40536100729E+03  0.12500000000E+03 0.  0.
</event>
<event>
 4    0  0.2202290E-002  0.1949787E+03  0.7546771E-02  0.1154046E+00
         21   -1    0    0  502  501  0.00000000000E+00  0.00000000000E+00  0.24231840905E+02  0.24231840905E+02  0.00000000000E+00 0. -1.
         21   -1    0    0  501  502 -0.00000000000E+00 -0.00000000000E+00 -0.15688737002E+04  0.15688737002E+04  0.00000000000E+00 0. -1.
         25    1    1    2    0    0 -0.11653119867E+03 -0.79371016524E+01 -0.11544508412E+04  0.11670579517E+04  0.12500000000E+03 0.  0.
         25    1    1    2    0    0  0.11653119867E+03  0.79371016524E+01 -0.39019101806E+03  0.42604758939E+03  0.12500000000E+03 0.  0.
</event>
<event>
 4    0  0.2202290E-002  0.1308460E+03  0.7546771E-02  0.1226206E+00
         21   -1    0    0  502  501  0.00000000000E+00  0.00000000000E+00  0.15559002811E+04  0.15559002811E+04  0.00000000000E+00 0. -1.
         21   -1    0    0  501  502 -0.00000000000E+00 -0.00000000000E+00 -0.11003714763E+02  0.11003714763E+02  0.00000000000E+00 0. -1.
         25    1    1    2    0    0  0.22055196992E+02 -0.28557730073E+02  0.85578277054E+03  0.86561603845E+03  0.12500000000E+03 0.  0.
         25    1    1    2    0    0 -0.22055196992E+02  0.28557730073E+02  0.68911379576E+03  0.70128795739E+03  0.12500000000E+03 0.  0.
</event>
<event>
 4    0  0.2202290E-002  0.1868667E+03  0.7546771E-02  0.1161318E+00
         21   -1    0    0  502  501  0.00000000000E+00  0.00000000000E+00  0.42231491013E+02  0.42231491013E+02  0.00000000000E+00 0.  1.
         21   -1    0    0  501  502 -0.00000000000E+00 -0.00000000000E+00 -0.82685159479E+03  0.82685159479E+03  0.00000000000E+00 0.  1.
         25    1    1    2    0    0  0.11793595312E+03 -0.67380407532E+02 -0.32470632127E+03  0.37350796970E+03  0.12500000000E+03 0.  0.
         25    1    1    2    0    0 -0.11793595312E+03  0.67380407532E+02 -0.45991378251E+03  0.49557511611E+03  0.12500000000E+03 0.  0.
</event>
<event>
 4    0  0.2202290E-002  0.1923945E+03  0.7546771E-02  0.1156319E+00
         21   -1    0    0  502  501  0.00000000000E+00  0.00000000000E+00  0.17758273519E+03  0.17758273519E+03  0.00000000000E+00 0.  1.
         21   -1    0    0  501  502 -0.00000000000E+00 -0.00000000000E+00 -0.20844171717E+03  0.20844171717E+03  0.00000000000E+00 0.  1.
         25    1    1    2    0    0  0.48907395160E+02 -0.12770755527E+03 -0.67456359170E+02  0.19717127926E+03  0.12500000000E+03 0.  0.
         25    1    1    2    0    0 -0.48907395160E+02  0.12770755527E+03  0.36597377191E+02  0.18885317310E+03  0.12500000000E+03 0.  0.
</event>
<event>
 4    0  0.2202290E-002  0.3537160E+03  0.7546771E-02  0.1061100E+00
         21   -1    0    0  502  501  0.00000000000E+00  0.00000000000E+00  0.73960719465E+03  0.73960719465E+03  0.00000000000E+00 0. -1.
         21   -1    0    0  501  502 -0.00000000000E+00 -0.00000000000E+00 -0.16916413844E+03  0.16916413844E+03  0.00000000000E+00 0. -1.
         25    1    1    2    0    0 -0.14618138795E+03  0.28934580289E+03  0.37043285631E+03  0.50787350085E+03  0.12500000000E+03 0.  0.
         25    1    1    2    0    0  0.14618138795E+03 -0.28934580289E+03  0.20001019990E+03  0.40089783224E+03  0.12500000000E+03 0.  0.
</event>
<event>
 4    0  0.2202290E-002  0.2426001E+03  0.7546771E-02  0.1118073E+00
         21   -1    0    0  502  501  0.00000000000E+00  0.00000000000E+00  0.95960502416E+03  0.95960502416E+03  0.00000000000E+00 0. -1.
         21   -1    0    0  501  502 -0.00000000000E+00 -0.00000000000E+00 -0.61332302715E+02  0.61332302715E+02  0.00000000000E+00 0. -1.
         25    1    1    2    0    0 -0.16451771566E+03  0.14162263297E+02  0.71498676212E+03  0.74437740326E+03  0.12500000000E+03 0.  0.
         25    1    1    2    0    0  0.16451771566E+03 -0.14162263297E+02  0.18328595932E+03  0.27655992362E+03  0.12500000000E+03 0.  0.
</event>
<event>
 4    0  0.2202290E-002  0.3548311E+03  0.7546771E-02  0.1060649E+00
         21   -1    0    0  502  501  0.00000000000E+00  0.00000000000E+00  0.36432886143E+03  0.36432886143E+03  0.00000000000E+00 0. -1.
         21   -1    0    0  501  502 -0.00000000000E+00 -0.00000000000E+00 -0.34558084062E+03  0.34558084062E+03  0.00000000000E+00 0. -1.
         25    1    1    2    0    0  0.91040671762E+02 -0.12116769304E+03 -0.28621184203E+03  0.34714871780E+03  0.12500000000E+03 0.  0.
         25    1    1    2    0    0 -0.91040671762E+02  0.12116769304E+03  0.30495986284E+03  0.36276098425E+03  0.12500000000E+03 0.  0.
</event>
<event>
 4    0  0.2202290E-002  0.3549080E+03  0.7546771E-02  0.1060618E+00
         21   -1    0    0  502  501  0.00000000000E+00  0.00000000000E+00  0.27162983444E+03  0.27162983444E+03  0.00000000000E+00 0.  1.
         21   -1    0    0  501  502 -0.00000000000E+00 -0.00000000000E+00 -0.46371827187E+03  0.46371827187E+03  0.00000000000E+00 0.  1.
         25    1    1    2    0    0 -0.29035278215E+03 -0.76669211210E+02 -0.24310747858E+03  0.40609007891E+03  0.12500000000E+03 0.  0.
         25    1    1    2    0    0  0.29035278215E+03  0.76669211210E+02  0.51019041143E+02  0.32925802740E+03  0.12500000000E+03 0.  0.
</event>
<event>
 4    0  0.2202290E-002  0.3407514E+03  0.7546771E-02  0.1066476E+00
         21   -1    0    0  502  501  0.00000000000E+00  0.00000000000E+00  0.10691409705E+03  0.10691409705E+03  0.00000000000E+00 0. -1.
         21   -1    0    0  501  502 -0.00000000000E+00 -0.00000000000E+00 -0.10860263097E+04  0.10860263097E+04  0.00000000000E+00 0. -1.
         25    1    1    2    0    0  0.24466840581E+03  0.17157333912E+03 -0.30441712364E+03  0.44451639415E+03  0.12500000000E+03 0.  0.
         25    1    1    2    0    0 -0.24466840581E+03 -0.17157333912E+03 -0.67469508905E+03  0.74842401263E+03  0.12500000000E+03 0.  0.
</event>
<event>
 4    0  0.2202290E-002  0.2194344E+03  0.7546771E-02  0.1134305E+00
         21   -1    0    0  502  501  0.00000000000E+00  0.00000000000E+00  0.16523410368E+04  0.16523410368E+04  0.00000000000E+00 0. -1.
         21   -1    0    0  501  502 -0.00000000000E+00 -0.00000000000E+00 -0.29141366969E+02  0.29141366969E+02  0.00000000000E+00 0. -1.
         25    1    1    2    0    0 -0.60032835756E+02  0.85270315458E+02  0.13753693731E+04  0.13849696317E+04  0.12500000000E+03 0.  0.
         25    1    1    2    0    0  0.60032835756E+02 -0.85270315458E+02  0.24783029674E+03  0.29651277215E+03  0.12500000000E+03 0.  0.
</event>
<event>
 4    0  0.2202290E-002  0.1688055E+03  0.7546771E-02  0.1179099E+00
         21   -1    0    0  502  501  0.00000000000E+00  0.00000000000E+00  0.18116676338E+03  0.18116676338E+03  0.00000000000E+00 0. -1.
         21   -1    0    0  501  502 -0.00000000000E+00 -0.00000000000E+00 -0.15728772569E+03  0.15728772569E+03  0.00000000000E+00 0. -1.
         25    1    1    2    0    0 -0.32841496842E+02  0.72717373235E+01 -0.96677199781E+02  0.16156399053E+03  0.12500000000E+03 0.  0.
         25    1    1    2    0    0  0.32841496842E+02 -0.72717373235E+01  0.12055623747E+03  0.17689049853E+03  0.12500000000E+03 0.  0.
</event>
<event>
 4    0  0.2202290E-002  0.1716884E+03  0.7546771E-02  0.1176098E+00
         21   -1    0    0  502  501  0.00000000000E+00  0.00000000000E+00  0.50103557408E+03  0.50103557408E+03  0.00000000000E+00 0.  1.
         21   -1    0    0  501  502 -0.00000000000E+00 -0.00000000000E+00 -0.58831989239E+02  0.58831989239E+02  0.00000000000E+00 0.  1.
         25    1    1    2    0    0 -0.11054489192E+03 -0.36380557193E+02  0.19247770901E+03  0.25732544868E+03  0.12500000000E+03 0.  0.
         25    1    1    2    0    0  0.11054489192E+03  0.36380557193E+02  0.24972587583E+03  0.30254211464E+03  0.12500000000E+03 0.  0.
</event>
<event>
 4    0  0.2202290E-002  0.2460374E+03  0.7546771E-02  0.1115835E+00
         21   -1    0    0  502  501  0.00000000000E+00  0.00000000000E+00  0.69127746957E+02  0.69127746957E+02  0.00000000000E+00 0. -1.
         21   -1    0    0  501  502 -0.00000000000E+00 -0.00000000000E+00 -0.87568874359E+03  0.87568874359E+03  0.00000000000E+00 0. -1.
         25    1    1    2    0    0  0.31754835532E+02 -0.86210155445E+02 -0.76995211712E+03  0.78542461328E+03  0.12500000000E+03 0.  0.
         25    1    1    2    0    0 -0.31754835532E+02  0.86210155445E+02 -0.36608879515E+02  0.15939187727E+03  0.12500000000E+03 0.  0.
</event>
<event>
 4    0  0.2202290E-002  0.1989437E+03  0.7546771E-02  0.1150633E+00
         21   -1    0    0  502  501  0.00000000000E+00  0.00000000000E+00  0.63663525138E+02  0.63663525138E+02  0.00000000000E+00 0. -1.
         21   -1    0    0  501  502 -0.00000000000E+00 -0.00000000000E+00 -0.62168420053E+03  0.62168420053E+03  0.00000000000E+00 0. -1.
         25    1    1    2    0    0  0.12275804075E+03  0.91730262384E+02 -0.24168285558E+03  0.31228125190E+03  0.12500000000E+03 0.  0.
         25    1    1    2    0    0 -0.12275804075E+03 -0.91730262384E+02 -0.31633781981E+03  0.37306647377E+03  0.12500000000E+03 0.  0.
</event>
<event>
 4    0  0.2202290E-002  0.2031498E+03  0.7546771E-02  0.1147108E+00
         21   -1    0    0  502  501  0.00000000000E+00  0.00000000000E+00  0.40446895765E+03  0.40446895765E+03  0.00000000000E+00 0. -1.
         21   -1    0    0  501  502 -0.00000000000E+00 -0.00000000000E+00 -0.10203467367E+03  0.10203467367E+03  0.00000000000E+00 0. -1.
         25    1    1    2    0    0  0.11906142296E+03  0.85298855785E+02  0.23194364938E+03  0.30145376714E+03  0.12500000000E+03 0.  0.
         25    1    1    2    0    0 -0.11906142296E+03 -0.85298855785E+02  0.70490634596E+02  0.20504986418E+03  0.12500000000E+03 0.  0.
</event>
<event>
 4    0  0.2202290E-002  0.2051201E+03  0.7546771E-02  0.1145490E+00
         21   -1    0    0  502  501  0.00000000000E+00  0.00000000000E+00  0.15020222839E+03  0.15020222839E+03  0.00000000000E+00 0.  1.
         21   -1    0    0  501  502 -0.00000000000E+00 -0.00000000000E+00 -0.28011734148E+03  0.28011734148E+03  0.00000000000E+00 0.  1.
         25    1    1    2    0    0  0.75179398205E+02  0.44723346021E+02 -0.20877073342E+03  0.25857752943E+03  0.12500000000E+03 0.  0.
         25    1    1    2    0    0 -0.75179398205E+02 -0.44723346021E+02  0.78855620330E+02  0.17174204043E+03  0.12500000000E+03 0.  0.
</event>
<event>
 4    0  0.2202290E-002  0.1813331E+03  0.7546771E-02  0.1166519E+00
         21   -1    0    0  502  501  0.00000000000E+00  0.00000000000E+00  0.59081275093E+02  0.59081275093E+02  0.00000000000E+00 0. -1.
         21   -1    0    0  501  502 -0.00000000000E+00 -0.00000000000E+00 -0.55655024945E+03  0.55655024945E+03  0.00000000000E+00 0. -1.
         25    1    1    2    0    0 -0.53211916556E+02 -0.85845037637E+02 -0.10614501027E+03  0.19259450084E+03  0.12500000000E+03 0.  0.
         25    1    1    2    0    0  0.53211916556E+02  0.85845037637E+02 -0.39132396409E+03  0.42303702370E+03  0.12500000000E+03 0.  0.
</event>
<event>
 4    0  0.2202290E-002  0.1445661E+03  0.7546771E-02  0.1207314E+00
         21   -1    0    0  502  501  0.00000000000E+00  0.00000000000E+00  0.16205893887E+03  0.16205893887E+03  0.00000000000E+00 0. -1.
         21   -1    0    0  501  502 -0.00000000000E+00 -0.00000000000E+00 -0.12896154219E+03  0.12896154219E+03  0.00000000000E+00 0. -1.
         25    1    1    2    0    0  0.41686822203E+02  0.17001579776E+02  0.73907921472E+02  0.15203363350E+03  0.12500000000E+03 0.  0.
         25    1    1    2    0    0 -0.41686822203E+02 -0.17001579776E+02 -0.40810524793E+02  0.13898684756E+03  0.12500000000E+03 0.  0.
</event>
<event>
 4    0  0.2202290E-002  0.2410911E+03  0.7546771E-02  0.1119068E+00
         21   -1    0    0  502  501  0.00000000000E+00  0.00000000000E+00  0.46788107587E+02  0.46788107587E+02  0.00000000000E+00 0. -1.
         21   -1    0    0  501  502 -0.00000000000E+00 -0.00000000000E+00 -0.12423015391E+04  0.12423015391E+04  0.00000000000E+00 0. -1.
         25    1    1    2    0    0 -0.16727702998E+03  0.92506779785E+01 -0.91893527231E+03  0.94240873007E+03  0.12500000000E+03 0.  0.
         25    1    1    2    0    0  0.16727702998E+03 -0.92506779785E+01 -0.27657815920E+03  0.34668091662E+03  0.12500000000E+03 0.  0.
</event>
<event>
 4    0  0.2202290E-002  0.1753426E+03  0.7546771E-02  0.1172388E+00
         21   -1    0    0  502  501  0.00000000000E+00  0.00000000000E+00  0.16418337700E+03  0.16418337700E+03  0.00000000000E+00 0. -1.
         21   -1    0    0  501  502 -0.00000000000E+00 -0.00000000000E+00 -0.18726024299E+03  0.18726024299E+03  0.00000000000E+00 0. -1.
         25    1    1    2    0    0  0.65578638498E+02 -0.10336654687E+03  0.97805090358E-01  0.17495773891E+03  0.12500000000E+03 0.  0.
         25    1    1    2    0    0 -0.65578638498E+02  0.10336654687E+03 -0.23174671088E+02  0.17648588108E+03  0.12500000000E+03 0.  0.
</event>
<event>
 4    0  0.2202290E-002  0.2269366E+03  0.7546771E-02  0.1128815E+00
         21   -1    0    0  502  501  0.00000000000E+00  0.00000000000E+00  0.79537669088E+03  0.79537669088E+03  0.00000000000E+00 0. -1.
         21   -1    0    0  501  502 -0.00000000000E+00 -0.00000000000E+00 -0.64749452253E+02  0.64749452253E+02  0.00000000000E+00 0. -1.
         25    1    1    2    0    0 -0.14850490085E+03  0.11676001078E+03  0.39133904227E+03  0.45217015791E+03  0.12500000000E+03 0.  0.
         25    1    1    2    0    0  0.14850490085E+03 -0.11676001078E+03  0.33928819635E+03  0.40795598522E+03  0.12500000000E+03 0.  0.
</event>
<event>
 4    0  0.2202290E-002  0.2680187E+03  0.7546771E-02  0.1102419E+00
         21   -1    0    0  502  501  0.00000000000E+00  0.00000000000E+00  0.18031632567E+03  0.18031632567E+03  0.00000000000E+00 0. -1.
         21   -1    0    0  501  502 -0.00000000000E+00 -0.00000000000E+00 -0.39837770156E+03  0.39837770156E+03  0.00000000000E+00 0. -1.
         25    1    1    2    0    0  0.10128894212E+03  0.13226692893E+03 -0.29114050740E+03  0.35796897258E+03  0.12500000000E+03 0.  0.
         25    1    1    2    0    0 -0.10128894212E+03 -0.13226692893E+03  0.73079131507E+02  0.22072505464E+03  0.12500000000E+03 0.  0.
</event>
<event>
 4    0  0.2202290E-002  0.2296127E+03  0.7546771E-02  0.1126913E+00
         21   -1    0    0  502  501  0.00000000000E+00  0.00000000000E+00  0.81882892544E+03  0.81882892544E+03  0.00000000000E+00 0.  1.
         21   -1    0    0  501  502 -0.00000000000E+00 -0.00000000000E+00 -0.64387051760E+02  0.64387051760E+02  0.00000000000E+00 0.  1.
         25    1    1    2    0    0 -0.10623385345E+03  0.13571748828E+03  0.21186288868E+03  0.30035937116E+03  0.12500000000E+03 0.  0.
         25    1    1    2    0    0  0.10623385345E+03 -0.13571748828E+03  0.54257898500E+03  0.58285660604E+03  0.12500000000E+03 0.  0.
</event>
<event>
 4    0  0.2202290E-002  0.2562354E+03  0.7546771E-02  0.1109426E+00
         21   -1    0    0  502  501  0.00000000000E+00  0.00000000000E+00  0.10501526417E+03  0.10501526417E+03  0.00000000000E+00 0. -1.
         21   -1    0    0  501  502 -0.00000000000E+00 -0.00000000000E+00 -0.62520996429E+03  0.62520996429E+03  0.00000000000E+00 0. -1.
         25    1    1    2    0    0 -0.18157944562E+03 -0.46639858366E+02 -0.43394358071E+03  0.48895644254E+03  0.12500000000E+03 0.  0.
         25    1    1    2    0    0  0.18157944562E+03  0.46639858366E+02 -0.86251119406E+02  0.24126878592E+03  0.12500000000E+03 0.  0.
</event>
<event>
 4    0  0.2202290E-002  0.2103434E+03  0.7546771E-02  0.1141294E+00
         21   -1    0    0  502  501  0.00000000000E+00  0.00000000000E+00  0.10670680075E+03  0.10670680075E+03  0.00000000000E+00 0.  1.
         21   -1    0    0  501  502 -0.00000000000E+00 -0.00000000000E+00 -0.41463473928E+03  0.41463473928E+03  0.00000000000E+00 0.  1.
         25    1    1    2    0    0  0.11770844489E+03 -0.12099785800E+03 -0.14018712952E+03  0.25253354415E+03  0.12500000000E+03 0.  0.
         25    1    1    2    0    0 -0.11770844489E+03  0.12099785800E+03 -0.16774080901E+03  0.26880799588E+03  0.12500000000E+03 0.  0.
</event>
<event>
 4    0  0.2202290E-002  0.1841285E+03  0.7546771E-02  0.1163866E+00
         21   -1    0    0  502  501  0.00000000000E+00  0.00000000000E+00  0.89730078288E+02  0.89730078288E+02  0.00000000000E+00 0.  1.
         21   -1    0    0  501  502 -0.00000000000E+00 -0.00000000000E+00 -0.37783656721E+03  0.37783656721E+03  0.00000000000E+00 0.  1.
         25    1    1    2    0    0 -0.10671869505E+03 -0.27314251788E+02 -0.44536681000E+02  0.17246293567E+03  0.12500000000E+03 0.  0.
         25    1    1    2    0    0  0.10671869505E+03  0.27314251788E+02 -0.24356980792E+03  0.29510370983E+03  0.12500000000E+03 0.  0.
</event>
<event>
 4    0  0.2202290E-002  0.2568408E+03  0.7546771E-02  0.1109056E+00
         21   -1    0    0  502  501  0.00000000000E+00  0.00000000000E+00  0.32184841346E+03  0.32184841346E+03  0.00000000000E+00 0. -1.
         21   -1    0    0  501  502 -0.00000000000E+00 -0.00000000000E+00 -0.20496363366E+03  0.20496363366E+03  0.00000000000E+00 0. -1.
         25    1    1    2    0    0 -0.13242491597E+03  0.17767125873E+03  0.22346337117E+02  0.25539732444E+03  0.12500000000E+03 0.  0.
         25    1    1    2    0    0  0.13242491597E+03 -0.17767125873E+03  0.94538442680E+02  0.27141472269E+03  0.12500000000E+03 0.  0.
</event>
<event>
 4    0  0.2202290E-002  0.1856646E+03  0.7546771E-02  0.1162431E+00
         21   -1    0    0  502  501  0.00000000000E+00  0.00000000000E+00  0.49954848015E+02  0.49954848015E+02  0.00000000000E+00 0.  1.
         21   -1    0    0  501  502 -0.00000000000E+00 -0.00000000000E+00 -0.69005035418E+03  0.69005035418E+03  0.00000000000E+00 0.  1.
         25    1    1    2    0    0  0.46118396670E+02  0.11657778893E+03 -0.20857122739E+03  0.27357676122E+03  0.12500000000E+03 0.  0.
         25    1    1    2    0    0 -0.46118396670E+02 -0.11657778893E+03 -0.43152427877E+03  0.46642844098E+03  0.12500000000E+03 0.  0.
</event>
<event>
 4    0  0.2202290E-002  0.2157950E+03  0.7546771E-02  0.1137057E+00
         21   -1    0    0  502  501  0.00000000000E+00  0.00000000000E+00  0.70266629696E+03  0.70266629696E+03  0.00000000000E+00 0. -1.
         21   -1    0    0  501  502 -0.00000000000E+00 -0.00000000000E+00 -0.66272572158E+02  0.66272572158E+02  0.00000000000E+00 0. -1.
         25    1    1    2    0    0 -0.99714936166E+01  0.35842102141E+02  0.11887041249E+02  0.13095949267E+03  0.12500000000E+03 0.  0.
         25    1    1    2    0    0  0.99714936166E+01 -0.35842102141E+02  0.62450668355E+03  0.63797937645E+03  0.12500000000E+03 0.  0.
</event>
<event>
 4    0  0.2202290E-002  0.2301425E+03  0.7546771E-02  0.1126540E+00
         21   -1    0    0  502  501  0.00000000000E+00  0.00000000000E+00  0.68838901928E+02  0.68838901928E+02  0.00000000000E+00 0.  1.
         21   -1    0    0  501  502 -0.00000000000E+00 -0.00000000000E+00 -0.76941308190E+03  0.76941308190E+03  0.00000000000E+00 0.  1.
         25    1    1    2    0    0  0.51797449042E+02 -0.11909847610E+03 -0.61086641516E+03  0.63690674349E+03  0.12500000000E+03 0.  0.
         25    1    1    2    0    0 -0.51797449042E+02  0.11909847610E+03 -0.89707764812E+02  0.20134524033E+03  0.12500000000E+03 0.  0.
</event>
<event>
 4    0  0.2202290E-002  0.2259985E+03  0.7546771E-02  0.1129488E+00
         21   -1    0    0  502  501  0.00000000000E+00  0.00000000000E+00  0.71525296533E+03  0.71525296533E+03  0.00000000000E+00 0.  1.
         21   -1    0    0  501  502 -0.00000000000E+00 -0.00000000000E+00 -0.71408769675E+02  0.71408769675E+02  0.00000000000E+00 0.  1.
         25    1    1    2    0    0  0.15045165409E+03 -0.11283466015E+03  0.30606870731E+03  0.38035564192E+03  0.12500000000E+03 0.  0.
         25    1    1    2    0    0 -0.15045165409E+03  0.11283466015E+03  0.33777548835E+03  0.40630609308E+03  0.12500000000E+03 0.  0.
</event>
<event>
 4    0  0.2202290E-002  0.3027723E+03  0.7546771E-02  0.1083863E+00
         21   -1    0    0  502  501  0.00000000000E+00  0.00000000000E+00  0.63514290764E+02  0.63514290764E+02  0.00000000000E+00 0.  1.
         21   -1    0    0  501  502 -0.00000000000E+00 -0.00000000000E+00 -0.14433137874E+04  0.14433137874E+04  0.00000000000E+00 0.  1.
         25    1    1    2    0    0  0.14681123300E+03 -0.55283500644E+02 -0.12542545737E+04  0.12701926386E+04  0.12500000000E+03 0.  0.
         25    1    1    2    0    0 -0.14681123300E+03  0.55283500644E+02 -0.12554492298E+03  0.23663543958E+03  0.12500000000E+03 0.  0.
</event>
<event>
 4    0  0.2202290E-002  0.1795700E+03  0.7546771E-02  0.1168220E+00
         21   -1    0    0  502  501  0.00000000000E+00  0.00000000000E+00  0.40102175155E+03  0.40102175155E+03  0.00000000000E+00 0.  1.
         21   -1    0    0  501  502 -0.00000000000E+00 -0.00000000000E+00 -0.80408038898E+02  0.80408038898E+02  0.00000000000E+00 0.  1.
         25    1    1    2    0    0  0.26698442447E+02  0.24857919311E+02 -0.54486756460E+01  0.13032809002E+03  0.12500000000E+03 0.  0.
         25    1    1    2    0    0 -0.26698442447E+02 -0.24857919311E+02  0.32606238830E+03  0.35110170043E+03  0.12500000000E+03 0.  0.
</event>
<event>
 4    0  0.2202290E-002  0.2718513E+03  0.7546771E-02  0.1100225E+00
         21   -1    0    0  502  501  0.00000000000E+00  0.00000000000E+00  0.50765795069E+03  0.50765795069E+03  0.00000000000E+00 0. -1.
         21   -1    0    0  501  502 -0.00000000000E+00 -0.00000000000E+00 -0.14557664654E+03  0.14557664654E+03  0.00000000000E+00 0. -1.
         25    1    1    2    0    0 -0.15749367554E+03 -0.12107768941E+03  0.16243693039E+02  0.23527201761E+03  0.12500000000E+03 0.  0.
         25    1    1    2    0    0  0.15749367554E+03  0.12107768941E+03  0.34583761111E+03  0.41796257963E+03  0.12500000000E+03 0.  0.
</event>
<event>
 4    0  0.2202290E-002  0.2316186E+03  0.7546771E-02  0.1125506E+00
         21   -1    0    0  502  501  0.00000000000E+00  0.00000000000E+00  0.42724447484E+03  0.42724447484E+03  0.00000000000E+00 0.  1.
         21   -1    0    0  501  502 -0.00000000000E+00 -0.00000000000E+00 -0.12556557082E+03  0.12556557082E+03  0.00000000000E+00 0.  1.
         25    1    1    2    0    0  0.10558116562E+03 -0.13349740403E+03  0.26438623618E+03  0.33836965186E+03  0.12500000000E+03 0.  0.
         25    1    1    2    0    0 -0.10558116562E+03  0.13349740403E+03  0.37292667843E+02  0.21444039380E+03  0.12500000000E+03 0.  0.
</event>
<event>
 4    0  0.2202290E-002  0.2127543E+03  0.7546771E-02  0.1139403E+00
         21   -1    0    0  502  501  0.00000000000E+00  0.00000000000E+00  0.95085968821E+02  0.95085968821E+02  0.00000000000E+00 0. -1.
         21   -1    0    0  501  502 -0.00000000000E+00 -0.00000000000E+00 -0.47603647781E+03  0.47603647781E+03  0.00000000000E+00 0. -1.
         25    1    1    2    0    0  0.50402309942E+02  0.30633145910E+02  0.26617240199E+02  0.14075602989E+03  0.12500000000E+03 0.  0.
         25    1    1    2    0    0 -0.50402309942E+02 -0.30633145910E+02 -0.40756774919E+03  0.43036641674E+03  0.12500000000E+03 0.  0.
</event>
<event>
 4    0  0.2202290E-002  0.2773298E+03  0.7546771E-02  0.1097156E+00
         21   -1    0    0  502  501  0.00000000000E+00  0.00000000000E+00  0.17839954930E+03  0.17839954930E+03  0.00000000000E+00 0. -1.
         21   -1    0    0  501  502 -0.00000000000E+00 -0.00000000000E+00 -0.43112103813E+03  0.43112103813E+03  0.00000000000E+00 0. -1.
         25    1    1    2    0    0  0.11571560352E+03  0.20462898950E+03 -0.41071817075E+02  0.26939751001E+03  0.12500000000E+03 0.  0.
         25    1    1    2    0    0 -0.11571560352E+03 -0.20462898950E+03 -0.21164967175E+03  0.34012307742E+03  0.12500000000E+03 0.  0.
</event>
<event>
 4    0  0.2202290E-002  0.5636795E+03  0.7546771E-02  0.9983763E-01
         21   -1    0    0  502  501  0.00000000000E+00  0.00000000000E+00  0.10323947760E+04  0.10323947760E+04  0.00000000000E+00 0. -1.
         21   -1    0    0  501  502 -0.00000000000E+00 -0.00000000000E+00 -0.30776465216E+03  0.30776465216E+03  0.00000000000E+00 0.  1.
         25    1    1    2    0    0  0.19917277517E+03  0.35683502238E+03 -0.74638904004E+02  0.43381677417E+03  0.12500000000E+03 0.  0.
         25    1    1    2    0    0 -0.19917277517E+03 -0.35683502238E+03  0.79926902782E+03  0.90634265397E+03  0.12500000000E+03 0.  0.
</event>
<event>
 4    0  0.2202290E-002  0.1994710E+03  0.7546771E-02  0.1150186E+00
         21   -1    0    0  502  501  0.00000000000E+00  0.00000000000E+00  0.14729302497E+04  0.14729302497E+04  0.00000000000E+00 0. -1.
         21   -1    0    0  501  502 -0.00000000000E+00 -0.00000000000E+00 -0.27013289700E+02  0.27013289700E+02  0.00000000000E+00 0. -1.
         25    1    1    2    0    0  0.43781042976E+02 -0.14883640124E+03  0.75953452034E+03  0.78523037489E+03  0.12500000000E+03 0.  0.
         25    1    1    2    0    0 -0.43781042976E+02  0.14883640124E+03  0.68638243968E+03  0.71471316453E+03  0.12500000000E+03 0.  0.
</event>
<event>
 4    0  0.2202290E-002  0.1771140E+03  0.7546771E-02  0.1170626E+00
         21   -1    0    0  502  501  0.00000000000E+00  0.00000000000E+00  0.56497936245E+03  0.56497936245E+03  0.00000000000E+00 0.  1.
         21   -1    0    0  501  502 -0.00000000000E+00 -0.00000000000E+00 -0.55523023396E+02  0.55523023396E+02  0.00000000000E+00 0.  1.
         25    1    1    2    0    0 -0.66960284819E+02 -0.89204809014E+02  0.15405191700E+03  0.22759211504E+03  0.12500000000E+03 0.  0.
         25    1    1    2    0    0  0.66960284819E+02  0.89204809014E+02  0.35540442205E+03  0.39291027081E+03  0.12500000000E+03 0.  0.
</event>
<event>
 4    0  0.2202290E-002  0.2133561E+03  0.7546771E-02  0.1138936E+00
         21   -1    0    0  502  501  0.00000000000E+00  0.00000000000E+00  0.25886013836E+03  0.25886013836E+03  0.00000000000E+00 0. -1.
         21   -1    0    0  501  502 -0.00000000000E+00 -0.00000000000E+00 -0.17585100810E+03  0.17585100810E+03  0.00000000000E+00 0. -1.
         25    1    1    2    0    0  0.72435737658E+02  0.96083084257E+02 -0.84987879208E+02  0.19320153929E+03  0.12500000000E+03 0.  0.
         25    1    1    2    0    0 -0.72435737658E+02 -0.96083084257E+02  0.16799700946E+03  0.24150960718E+03  0.12500000000E+03 0.  0.
</event>
<event>
 4    0  0.2202290E-002  0.3040979E+03  0.7546771E-02  0.1083210E+00
         21   -1    0    0  502  501  0.00000000000E+00  0.00000000000E+00  0.93474796883E+02  0.93474796883E+02  0.00000000000E+00 0.  1.
         21   -1    0    0  501  502 -0.00000000000E+00 -0.00000000000E+00 -0.98931010899E+03  0.98931010899E+03  0.00000000000E+00 0.  1.
         25    1    1    2    0    0 -0.89378115380E+02  0.19394233444E+03 -0.76262957529E+03  0.80176738878E+03  0.12500000000E+03 0.  0.
         25    1    1    2    0    0  0.89378115380E+02 -0.19394233444E+03 -0.13320573682E+03  0.28101751710E+03  0.12500000000E+03 0.  0.
</event>
<event>
 4    0  0.2202290E-002  0.2064913E+03  0.7546771E-02  0.1144375E+00
         21   -1    0    0  502  501  0.00000000000E+00  0.00000000000E+00  0.10496653567E+04  0.10496653567E+04  0.00000000000E+00 0. -1.
         21   -1    0    0  501  502 -0.00000000000E+00 -0.00000000000E+00 -0.40621208494E+02  0.40621208494E+02  0.00000000000E+00 0. -1.
         25    1    1    2    0    0 -0.13723951627E+02  0.37686120517E+02  0.92531568534E+03  0.93458156843E+03  0.12500000000E+03 0.  0.
         25    1    1    2    0    0  0.13723951627E+02 -0.37686120517E+02  0.83728462917E+02  0.15570499681E+03  0.12500000000E+03 0.  0.
</event>
<event>
 4    0  0.2202290E-002  0.2059348E+03  0.7546771E-02  0.1144826E+00
         21   -1    0    0  502  501  0.00000000000E+00  0.00000000000E+00  0.10874940990E+03  0.10874940990E+03  0.00000000000E+00 0.  1.
         21   -1    0    0  501  502 -0.00000000000E+00 -0.00000000000E+00 -0.38997121627E+03  0.38997121627E+03  0.00000000000E+00 0.  1.
         25    1    1    2    0    0  0.14698608458E+03 -0.49205454138E+02 -0.77019416879E+02  0.21350193525E+03  0.12500000000E+03 0.  0.
         25    1    1    2    0    0 -0.14698608458E+03  0.49205454138E+02 -0.20420238949E+03  0.28521869092E+03  0.12500000000E+03 0.  0.
</event>
<event>
 4    0  0.2202290E-002  0.1832299E+03  0.7546771E-02  0.1164713E+00
         21   -1    0    0  502  501  0.00000000000E+00  0.00000000000E+00  0.73040028771E+03  0.73040028771E+03  0.00000000000E+00 0. -1.
         21   -1    0    0  501  502 -0.00000000000E+00 -0.00000000000E+00 -0.45965483563E+02  0.45965483563E+02  0.00000000000E+00 0. -1.
         25    1    1    2    0    0 -0.41053986274E+02 -0.32368838856E+02  0.60353967024E+03  0.61856148043E+03  0.12500000000E+03 0.  0.
         25    1    1    2    0    0  0.41053986274E+02  0.32368838856E+02  0.80895133902E+02  0.15780429084E+03  0.12500000000E+03 0.  0.
</event>
<event>
 4    0  0.2202290E-002  0.2790311E+03  0.7546771E-02  0.1096219E+00
         21   -1    0    0  502  501  0.00000000000E+00  0.00000000000E+00  0.38365686798E+03  0.38365686798E+03  0.00000000000E+00 0. -1.
         21   -1    0    0  501  502 -0.00000000000E+00 -0.00000000000E+00 -0.20293749622E+03  0.20293749622E+03  0.00000000000E+00 0. -1.
         25    1    1    2    0    0  0.23000252150E+03 -0.20927556386E+02 -0.87713663716E+01  0.26275665430E+03  0.12500000000E+03 0.  0.
         25    1    1    2    0    0 -0.23000252150E+03  0.20927556386E+02  0.18949073813E+03  0.32383770990E+03  0.12500000000E+03 0.  0.
</event>
<event>
 4    0  0.2202290E-002  0.2456636E+03  0.7546771E-02  0.1116076E+00
         21   -1    0    0  502  501  0.00000000000E+00  0.00000000000E+00  0.13261668156E+03  0.13261668156E+03  0.00000000000E+00 0.  1.
         21   -1    0    0  501  502 -0.00000000000E+00 -0.00000000000E+00 -0.45507538344E+03  0.45507538344E+03  0.00000000000E+00 0.  1.
         25    1    1    2    0    0  0.27297587747E+02  0.20591525754E+03 -0.20876465730E+03  0.31992801335E+03  0.12500000000E+03 0.  0.
         25    1    1    2    0    0 -0.27297587747E+02 -0.20591525754E+03 -0.11369404458E+03  0.26776405165E+03  0.12500000000E+03 0.  0.
</event>
<event>
 4    0  0.2202290E-002  0.2009611E+03  0.7546771E-02  0.1148931E+00
         21   -1    0    0  502  501  0.00000000000E+00  0.00000000000E+00  0.26143549573E+03  0.26143549573E+03  0.00000000000E+00 0.  1.
         21   -1    0    0  501  502 -0.00000000000E+00 -0.00000000000E+00 -0.15447543952E+03  0.15447543952E+03  0.00000000000E+00 0.  1.
         25    1    1    2    0    0 -0.74061814409E+02 -0.12768742889E+03 -0.29251878976E+01  0.19344970554E+03  0.12500000000E+03 0.  0.
         25    1    1    2    0    0  0.74061814409E+02  0.12768742889E+03  0.10988524411E+03  0.22246122971E+03  0.12500000000E+03 0.  0.
</event>
<event>
 4    0  0.2202290E-002  0.2532290E+03  0.7546771E-02  0.1111281E+00
         21   -1    0    0  502  501  0.00000000000E+00  0.00000000000E+00  0.50098952051E+03  0.50098952051E+03  0.00000000000E+00 0. -1.
         21   -1    0    0  501  502 -0.00000000000E+00 -0.00000000000E+00 -0.12799650725E+03  0.12799650725E+03  0.00000000000E+00 0. -1.
         25    1    1    2    0    0 -0.92936140257E+02 -0.16355685301E+03  0.32870681347E+03  0.39882469777E+03  0.12500000000E+03 0.  0.
         25    1    1    2    0    0  0.92936140257E+02  0.16355685301E+03  0.44286199788E+02  0.23016132999E+03  0.12500000000E+03 0.  0.
</event>
<event>
 4    0  0.2202290E-002  0.2874572E+03  0.7546771E-02  0.1091684E+00
         21   -1    0    0  502  501  0.00000000000E+00  0.00000000000E+00  0.56413880605E+02  0.56413880605E+02  0.00000000000E+00 0. -1.
         21   -1    0    0  501  502 -0.00000000000E+00 -0.00000000000E+00 -0.14647399189E+04  0.14647399189E+04  0.00000000000E+00 0. -1.
         25    1    1    2    0    0 -0.56200417833E+02  0.17786108872E+03 -0.22927678952E+03  0.32091416307E+03  0.12500000000E+03 0.  0.
         25    1    1    2    0    0  0.56200417833E+02 -0.17786108872E+03 -0.11790492488E+04  0.12002396364E+04  0.12500000000E+03 0.  0.
</event>
<event>
 4    0  0.2202290E-002  0.2094341E+03  0.7546771E-02  0.1142015E+00
         21   -1    0    0  502  501  0.00000000000E+00  0.00000000000E+00  0.39591963656E+02  0.39591963656E+02  0.00000000000E+00 0. -1.
         21   -1    0    0  501  502 -0.00000000000E+00 -0.00000000000E+00 -0.11078671916E+04  0.11078671916E+04  0.00000000000E+00 0. -1.
         25    1    1    2    0    0  0.15634516647E+03  0.50821382204E+02 -0.43880656289E+03  0.48497713720E+03  0.12500000000E+03 0.  0.
         25    1    1    2    0    0 -0.15634516647E+03 -0.50821382204E+02 -0.62946866510E+03  0.66248201811E+03  0.12500000000E+03 0.  0.
</event>
<event>
 4    0  0.2202290E-002  0.1626691E+03  0.7546771E-02  0.1185716E+00
         21   -1    0    0  502  501  0.00000000000E+00  0.00000000000E+00  0.10203381715E+04  0.10203381715E+04  0.00000000000E+00 0. -1.
         21   -1    0    0  501  502 -0.00000000000E+00 -0.00000000000E+00 -0.25933805839E+02  0.25933805839E+02  0.00000000000E+00 0. -1.
         25    1    1    2    0    0  0.45221041628E+02 -0.51401359681E+02  0.24501729772E+03  0.28345285069E+03  0.12500000000E+03 0.  0.
         25    1    1    2    0    0 -0.45221041628E+02  0.51401359681E+02  0.74938706793E+03  0.76281912664E+03  0.12500000000E+03 0.  0.
</event>
<event>
 4    0  0.2202290E-002  0.1794117E+03  0.7546771E-02  0.1168374E+00
         21   -1    0    0  502  501  0.00000000000E+00  0.00000000000E+00  0.70615962619E+02  0.70615962619E+02  0.00000000000E+00 0. -1.
         21   -1    0    0  501  502 -0.00000000000E+00 -0.00000000000E+00 -0.45582559110E+03  0.45582559110E+03  0.00000000000E+00 0. -1.
         25    1    1    2    0    0 -0.10886131519E+03 -0.93102555402E+00 -0.91895909470E+02  0.18952970989E+03  0.12500000000E+03 0.  0.
         25    1    1    2    0    0  0.10886131519E+03  0.93102555402E+00 -0.29331371901E+03  0.33691184383E+03  0.12500000000E+03 0.  0.
</event>
<event>
 4    0  0.2202290E-002  0.2470884E+03  0.7546771E-02  0.1115159E+00
         21   -1    0    0  502  501  0.00000000000E+00  0.00000000000E+00  0.18760796427E+03  0.18760796427E+03  0.00000000000E+00 0. -1.
         21   -1    0    0  501  502 -0.00000000000E+00 -0.00000000000E+00 -0.32542692051E+03  0.32542692051E+03  0.00000000000E+00 0. -1.
         25    1    1    2    0    0  0.18922764213E+03  0.93327000795E+02 -0.37580887485E+02  0.24810149683E+03  0.12500000000E+03 0.  0.
         25    1    1    2    0    0 -0.18922764213E+03 -0.93327000795E+02 -0.10023806876E+03  0.26493338795E+03  0.12500000000E+03 0.  0.
</event>
<event>
 4    0  0.2202290E-002  0.4534741E+03  0.7546771E-02  0.1026691E+00
         21   -1    0    0  502  501  0.00000000000E+00  0.00000000000E+00  0.21004165694E+04  0.21004165694E+04  0.00000000000E+00 0.  1.
         21   -1    0    0  501  502 -0.00000000000E+00 -0.00000000000E+00 -0.97903786847E+02  0.97903786847E+02  0.00000000000E+00 0. -1.
         25    1    1    2    0    0 -0.23523943581E+03  0.31848114096E+03  0.55930183630E+03  0.69657115458E+03  0.12500000000E+03 0.  0.
         25    1    1    2    0    0  0.23523943581E+03 -0.31848114096E+03  0.14432109462E+04  0.15017492016E+04  0.12500000000E+03 0.  0.
</event>
<event>
 4    0  0.2202290E-002  0.1990010E+03  0.7546771E-02  0.1150585E+00
         21   -1    0    0  502  501  0.00000000000E+00  0.00000000000E+00  0.80860443593E+02  0.80860443593E+02  0.00000000000E+00 0. -1.
         21   -1    0    0  501  502 -0.00000000000E+00 -0.00000000000E+00 -0.48974984346E+03  0.48974984346E+03  0.00000000000E+00 0. -1.
         25    1    1    2    0    0  0.11110052890E+03 -0.66720710514E+02 -0.82949473404E+02  0.19824377890E+03  0.12500000000E+03 0.  0.
         25    1    1    2    0    0 -0.11110052890E+03  0.66720710514E+02 -0.32593992646E+03  0.37236650816E+03  0.12500000000E+03 0.  0.
</event>
<event>
 4    0  0.2202290E-002  0.1942382E+03  0.7546771E-02  0.1154693E+00
         21   -1    0    0  502  501  0.00000000000E+00  0.00000000000E+00  0.11418475609E+03  0.11418475609E+03  0.00000000000E+00 0. -1.
         21   -1    0    0  501  502 -0.00000000000E+00 -0.00000000000E+00 -0.33041623717E+03  0.33041623717E+03  0.00000000000E+00 0. -1.
         25    1    1    2    0    0  0.34231179798E+02 -0.27151110794E+02 -0.27075398245E+03  0.30139952803E+03  0.12500000000E+03 0.  0.
         25    1    1    2    0    0 -0.34231179798E+02  0.27151110794E+02  0.54522501365E+02  0.14320146523E+03  0.12500000000E+03 0.  0.
</event>
<event>
 4    0  0.2202290E-002  0.1634564E+03  0.7546771E-02  0.1184849E+00
         21   -1    0    0  502  501  0.00000000000E+00  0.00000000000E+00  0.33017785298E+03  0.33017785298E+03  0.00000000000E+00 0. -1.
         21   -1    0    0  501  502 -0.00000000000E+00 -0.00000000000E+00 -0.80919972672E+02  0.80919972672E+02  0.00000000000E+00 0. -1.
         25    1    1    2    0    0 -0.55638610816E+02 -0.10001723625E+02  0.12877665350E+02  0.13779159537E+03  0.12500000000E+03 0.  0.
         25    1    1    2    0    0  0.55638610816E+02  0.10001723625E+02  0.23638021496E+03  0.27330623029E+03  0.12500000000E+03 0.  0.
</event>
<event>
 4    0  0.2202290E-002  0.2192349E+03  0.7546771E-02  0.1134455E+00
         21   -1    0    0  502  501  0.00000000000E+00  0.00000000000E+00  0.16058403331E+04  0.16058403331E+04  0.00000000000E+00 0. -1.
         21   -1    0    0  501  502 -0.00000000000E+00 -0.00000000000E+00 -0.29930698834E+02  0.29930698834E+02  0.00000000000E+00 0. -1.
         25    1    1    2    0    0  0.99115642166E+02  0.10378293419E+03  0.11939624737E+04  0.12090352338E+04  0.12500000000E+03 0.  0.
         25    1    1    2    0    0 -0.99115642166E+02 -0.10378293419E+03  0.38194716057E+03  0.42673579814E+03  0.12500000000E+03 0.  0.
</event>
<event>
 4    0  0.2202290E-002  0.2167668E+03  0.7546771E-02  0.1136317E+00
         21   -1    0    0  502  501  0.00000000000E+00  0.00000000000E+00  0.12079902773E+03  0.12079902773E+03  0.00000000000E+00 0.  1.
         21   -1    0    0  501  502 -0.00000000000E+00 -0.00000000000E+00 -0.38897542009E+03  0.38897542009E+03  0.00000000000E+00 0.  1.
         25    1    1    2    0    0  0.14985926300E+03 -0.93012825341E+02 -0.11536033173E+03  0.24503508019E+03  0.12500000000E+03 0.  0.
         25    1    1    2    0    0 -0.14985926300E+03  0.93012825341E+02 -0.15281606064E+03  0.26473936763E+03  0.12500000000E+03 0.  0.
</event>
<event>
 4    0  0.2202290E-002  0.1941538E+03  0.7546771E-02  0.1154767E+00
         21   -1    0    0  502  501  0.00000000000E+00  0.00000000000E+00  0.34220872659E+03  0.34220872659E+03  0.00000000000E+00 0. -1.
         21   -1    0    0  501  502 -0.00000000000E+00 -0.00000000000E+00 -0.11015406848E+03  0.11015406848E+03  0.00000000000E+00 0. -1.
         25    1    1    2    0    0 -0.12577697212E+02  0.13187015280E+03  0.19437250485E+03  0.26637118145E+03  0.12500000000E+03 0.  0.
         25    1    1    2    0    0  0.12577697212E+02 -0.13187015280E+03  0.37682153257E+02  0.18599161363E+03  0.12500000000E+03 0.  0.
</event>
<event>
 4    0  0.2202290E-002  0.2449638E+03  0.7546771E-02  0.1116530E+00
         21   -1    0    0  502  501  0.00000000000E+00  0.00000000000E+00  0.12946669525E+04  0.12946669525E+04  0.00000000000E+00 0.  1.
         21   -1    0    0  501  502 -0.00000000000E+00 -0.00000000000E+00 -0.46349584785E+02  0.46349584785E+02  0.00000000000E+00 0.  1.
         25    1    1    2    0    0  0.42340651782E+02 -0.20236961920E+03  0.51344412561E+03  0.56744696994E+03  0.12500000000E+03 0.  0.
         25    1    1    2    0    0 -0.42340651782E+02  0.20236961920E+03  0.73487324214E+03  0.77356956738E+03  0.12500000000E+03 0.  0.
</event>
<event>
 4    0  0.2202290E-002  0.1911311E+03  0.7546771E-02  0.1157445E+00
         21   -1    0    0  502  501  0.00000000000E+00  0.00000000000E+00  0.38657881239E+02  0.38657881239E+02  0.00000000000E+00 0.  1.
         21   -1    0    0  501  502 -0.00000000000E+00 -0.00000000000E+00 -0.94498418331E+03  0.94498418331E+03  0.00000000000E+00 0.  1.
         25    1    1    2    0    0 -0.45992240542E+02  0.43516274650E+02 -0.11867377582E+03  0.18362303073E+03  0.12500000000E+03 0.  0.
         25    1    1    2    0    0  0.45992240542E+02 -0.43516274650E+02 -0.78765252625E+03  0.80001903381E+03  0.12500000000E+03 0.  0.
</event>
<event>
 4    0  0.2202290E-002  0.1397936E+03  0.7546771E-02  0.1213607E+00
         21   -1    0    0  502  501  0.00000000000E+00  0.00000000000E+00  0.13944580697E+03  0.13944580697E+03  0.00000000000E+00 0. -1.
         21   -1    0    0  501  502 -0.00000000000E+00 -0.00000000000E+00 -0.14014232315E+03  0.14014232315E+03  0.00000000000E+00 0. -1.
         25    1    1    2    0    0 -0.34592511110E+02 -0.52061217358E+02 -0.35493872860E+01  0.13980203978E+03  0.12500000000E+03 0.  0.
         25    1    1    2    0    0  0.34592511110E+02  0.52061217358E+02  0.28528711130E+01  0.13978609034E+03  0.12500000000E+03 0.  0.
</event>
<event>
 4    0  0.2202290E-002  0.2496608E+03  0.7546771E-02  0.1113519E+00
         21   -1    0    0  502  501  0.00000000000E+00  0.00000000000E+00  0.13111737724E+04  0.13111737724E+04  0.00000000000E+00 0. -1.
         21   -1    0    0  501  502 -0.00000000000E+00 -0.00000000000E+00 -0.47537956574E+02  0.47537956574E+02  0.00000000000E+00 0.  1.
         25    1    1    2    0    0 -0.16248351702E+03 -0.98829733463E+02  0.35249157889E+03  0.41957540766E+03  0.12500000000E+03 0.  0.
         25    1    1    2    0    0  0.16248351702E+03  0.98829733463E+02  0.91114423688E+03  0.93913632127E+03  0.12500000000E+03 0.  0.
</event>
<event>
 4    0  0.2202290E-002  0.1947092E+03  0.7546771E-02  0.1154281E+00
         21   -1    0    0  502  501  0.00000000000E+00  0.00000000000E+00  0.86588795720E+02  0.86588795720E+02  0.00000000000E+00 0.  1.
         21   -1    0    0  501  502 -0.00000000000E+00 -0.00000000000E+00 -0.43783599585E+03  0.43783599585E+03  0.00000000000E+00 0.  1.
         25    1    1    2    0    0  0.51247890715E+02 -0.13752321012E+03 -0.21244784125E+03  0.28687639303E+03  0.12500000000E+03 0.  0.
         25    1    1    2    0    0 -0.51247890715E+02  0.13752321012E+03 -0.13879935888E+03  0.23754839854E+03  0.12500000000E+03 0.  0.
</event>
<event>
 4    0  0.2202290E-002  0.2295460E+03  0.7546771E-02  0.1126960E+00
         21   -1    0    0  502  501  0.00000000000E+00  0.00000000000E+00  0.61747410281E+03  0.61747410281E+03  0.00000000000E+00 0. -1.
         21   -1    0    0  501  502 -0.00000000000E+00 -0.00000000000E+00 -0.85333759367E+02  0.85333759367E+02  0.00000000000E+00 0. -1.
         25    1    1    2    0    0 -0.76742600257E+02 -0.58661292656E+02  0.52102148244E+03  0.54444371529E+03  0.12500000000E+03 0.  0.
         25    1    1    2    0    0  0.76742600257E+02  0.58661292656E+02  0.11118861001E+02  0.15836414689E+03  0.12500000000E+03 0.  0.
</event>
<event>
 4    0  0.2202290E-002  0.4492052E+03  0.7546771E-02  0.1027959E+00
         21   -1    0    0  502  501  0.00000000000E+00  0.00000000000E+00  0.47496846132E+03  0.47496846132E+03  0.00000000000E+00 0.  1.
         21   -1    0    0  501  502 -0.00000000000E+00 -0.00000000000E+00 -0.42483933977E+03  0.42483933977E+03  0.00000000000E+00 0. -1.
         25    1    1    2    0    0 -0.29820067261E+03  0.30620066496E+03 -0.34000037989E+02  0.44661335733E+03  0.12500000000E+03 0.  0.
         25    1    1    2    0    0  0.29820067261E+03 -0.30620066496E+03  0.84129159545E+02  0.45319444376E+03  0.12500000000E+03 0.  0.
</event>
<event>
 4    0  0.2202290E-002  0.2726114E+03  0.7546771E-02  0.1099794E+00
         21   -1    0    0  502  501  0.00000000000E+00  0.00000000000E+00  0.33504438284E+03  0.33504438284E+03  0.00000000000E+00 0.  1.
         21   -1    0    0  501  502 -0.00000000000E+00 -0.00000000000E+00 -0.22181232294E+03  0.22181232294E+03  0.00000000000E+00 0.  1.
         25    1    1    2    0    0 -0.14877111389E+03  0.14740911471E+03  0.18099167990E+03  0.30371908011E+03  0.12500000000E+03 0.  0.
         25    1    1    2    0    0  0.14877111389E+03 -0.14740911471E+03 -0.67759620005E+02  0.25313762567E+03  0.12500000000E+03 0.  0.
</event>
<event>
 4    0  0.2202290E-002  0.2464929E+03  0.7546771E-02  0.1115541E+00
         21   -1    0    0  502  501  0.00000000000E+00  0.00000000000E+00  0.34283861911E+02  0.34283861911E+02  0.00000000000E+00 0. -1.
         21   -1    0    0  501  502 -0.00000000000E+00 -0.00000000000E+00 -0.17722259373E+04  0.17722259373E+04  0.00000000000E+00 0. -1.
         25    1    1    2    0    0  0.16893540410E+03  0.10699968161E+03 -0.11318318797E+04  0.11561386191E+04  0.12500000000E+03 0.  0.
         25    1    1    2    0    0 -0.16893540410E+03 -0.10699968161E+03 -0.60611019569E+03  0.65037118013E+03  0.12500000000E+03 0.  0.
</event>
<event>
 4    0  0.2202290E-002  0.2517038E+03  0.7546771E-02  0.1112233E+00
         21   -1    0    0  502  501  0.00000000000E+00  0.00000000000E+00  0.17012793533E+03  0.17012793533E+03  0.00000000000E+00 0. -1.
         21   -1    0    0  501  502 -0.00000000000E+00 -0.00000000000E+00 -0.37239503140E+03  0.37239503140E+03  0.00000000000E+00 0.  1.
         25    1    1    2    0    0  0.10573872328E+03  0.17872013903E+03 -0.27974920207E+02  0.24398598701E+03  0.12500000000E+03 0.  0.
         25    1    1    2    0    0 -0.10573872328E+03 -0.17872013903E+03 -0.17429217586E+03  0.29853697972E+03  0.12500000000E+03 0.  0.
</event>
<event>
 4    0  0.2202290E-002  0.3266436E+03  0.7546771E-02  0.1072632E+00
         21   -1    0    0  502  501  0.00000000000E+00  0.00000000000E+00  0.40258875072E+03  0.40258875072E+03  0.00000000000E+00 0. -1.
         21   -1    0    0  501  502 -0.00000000000E+00 -0.00000000000E+00 -0.26502487901E+03  0.26502487901E+03  0.00000000000E+00 0. -1.
         25    1    1    2    0    0 -0.41947021587E+02 -0.93312443812E+02 -0.22135303820E+03  0.27402359809E+03  0.12500000000E+03 0.  0.
         25    1    1    2    0    0  0.41947021587E+02  0.93312443812E+02  0.35891690990E+03  0.39359003164E+03  0.12500000000E+03 0.  0.
</event>
<event>
 4    0  0.2202290E-002  0.2000018E+03  0.7546771E-02  0.1149737E+00
         21   -1    0    0  502  501  0.00000000000E+00  0.00000000000E+00  0.10581637811E+04  0.10581637811E+04  0.00000000000E+00 0.  1.
         21   -1    0    0  501  502 -0.00000000000E+00 -0.00000000000E+00 -0.37802028986E+02  0.37802028986E+02  0.00000000000E+00 0.  1.
         25    1    1    2    0    0 -0.15265671649E+03 -0.13261574075E+02  0.42817642156E+03  0.47163544228E+03  0.12500000000E+03 0.  0.
         25    1    1    2    0    0  0.15265671649E+03  0.13261574075E+02  0.59218533055E+03  0.62433036779E+03  0.12500000000E+03 0.  0.
</event>
<event>
 4    0  0.2202290E-002  0.4890428E+03  0.7546771E-02  0.1016679E+00
         21   -1    0    0  502  501  0.00000000000E+00  0.00000000000E+00  0.17510862486E+03  0.17510862486E+03  0.00000000000E+00 0. -1.
         21   -1    0    0  501  502 -0.00000000000E+00 -0.00000000000E+00 -0.13657968832E+04  0.13657968832E+04  0.00000000000E+00 0. -1.
         25    1    1    2    0    0  0.24096125290E+03  0.28361941199E+03 -0.10547529873E+04  0.11254470936E+04  0.12500000000E+03 0.  0.
         25    1    1    2    0    0 -0.24096125290E+03 -0.28361941199E+03 -0.13593527107E+03  0.41545841450E+03  0.12500000000E+03 0.  0.
</event>
<event>
 4    0  0.2202290E-002  0.2374521E+03  0.7546771E-02  0.1121502E+00
         21   -1    0    0  502  501  0.00000000000E+00  0.00000000000E+00  0.46172708215E+02  0.46172708215E+02  0.00000000000E+00 0. -1.
         21   -1    0    0  501  502 -0.00000000000E+00 -0.00000000000E+00 -0.12211434892E+04  0.12211434892E+04  0.00000000000E+00 0. -1.
         25    1    1    2    0    0  0.10958902784E+03 -0.16827989650E+03 -0.53210859845E+03  0.58231644244E+03  0.12500000000E+03 0.  0.
         25    1    1    2    0    0 -0.10958902784E+03  0.16827989650E+03 -0.64286218255E+03  0.68499975499E+03  0.12500000000E+03 0.  0.
</event>
<event>
 4    0  0.2202290E-002  0.2220581E+03  0.7546771E-02  0.1132358E+00
         21   -1    0    0  502  501  0.00000000000E+00  0.00000000000E+00  0.94067479768E+02  0.94067479768E+02  0.00000000000E+00 0.  1.
         21   -1    0    0  501  502 -0.00000000000E+00 -0.00000000000E+00 -0.52419587795E+03  0.52419587795E+03  0.00000000000E+00 0.  1.
         25    1    1    2    0    0  0.22542184844E+02 -0.14744608514E+03 -0.36393841279E+03  0.41270409063E+03  0.12500000000E+03 0.  0.
         25    1    1    2    0    0 -0.22542184844E+02  0.14744608514E+03 -0.66189985395E+02  0.20555926709E+03  0.12500000000E+03 0.  0.
</event>
<event>
 4    0  0.2202290E-002  0.2930853E+03  0.7546771E-02  0.1088749E+00
         21   -1    0    0  502  501  0.00000000000E+00  0.00000000000E+00  0.65964227569E+03  0.65964227569E+03  0.00000000000E+00 0.  1.
         21   -1    0    0  501  502 -0.00000000000E+00 -0.00000000000E+00 -0.13022057038E+03  0.13022057038E+03  0.00000000000E+00 0.  1.
         25    1    1    2    0    0  0.23966862401E+03 -0.47754392490E+02  0.12628903355E+03  0.30215137155E+03  0.12500000000E+03 0.  0.
         25    1    1    2    0    0 -0.23966862401E+03  0.47754392490E+02  0.40313267176E+03  0.48771147452E+03  0.12500000000E+03 0.  0.
</event>
<event>
 4    0  0.2202290E-002  0.2601681E+03  0.7546771E-02  0.1107042E+00
         21   -1    0    0  502  501  0.00000000000E+00  0.00000000000E+00  0.10725359740E+04  0.10725359740E+04  0.00000000000E+00 0.  1.
         21   -1    0    0  501  502 -0.00000000000E+00 -0.00000000000E+00 -0.63109739210E+02  0.63109739210E+02  0.00000000000E+00 0.  1.
         25    1    1    2    0    0  0.43985272811E+02 -0.15925950991E+03  0.16125749442E+03  0.26254004500E+03  0.12500000000E+03 0.  0.
         25    1    1    2    0    0 -0.43985272811E+02  0.15925950991E+03  0.84816874037E+03  0.87310566821E+03  0.12500000000E+03 0.  0.
</event>
<event>
 4    0  0.2202290E-002  0.1553096E+03  0.7546771E-02  0.1194096E+00
         21   -1    0    0  502  501  0.00000000000E+00  0.00000000000E+00  0.34289206467E+02  0.34289206467E+02  0.00000000000E+00 0.  1.
         21   -1    0    0  501  502 -0.00000000000E+00 -0.00000000000E+00 -0.70345929942E+03  0.70345929942E+03  0.00000000000E+00 0.  1.
         25    1    1    2    0    0  0.75226647071E+02 -0.24954834334E+02 -0.44634734510E+03  0.47024753552E+03  0.12500000000E+03 0.  0.
         25    1    1    2    0    0 -0.75226647071E+02  0.24954834334E+02 -0.22282274786E+03  0.26750097037E+03  0.12500000000E+03 0.  0.
</event>
<event>
 4    0  0.2202290E-002  0.2495531E+03  0.7546771E-02  0.1113588E+00
         21   -1    0    0  502  501  0.00000000000E+00  0.00000000000E+00  0.12784599669E+03  0.12784599669E+03  0.00000000000E+00 0. -1.
         21   -1    0    0  501  502 -0.00000000000E+00 -0.00000000000E+00 -0.48712320837E+03  0.48712320837E+03  0.00000000000E+00 0. -1.
         25    1    1    2    0    0  0.16271128591E+02 -0.66470347963E+02  0.72781026528E+02  0.16001604484E+03  0.12500000000E+03 0.  0.
         25    1    1    2    0    0 -0.16271128591E+02  0.66470347963E+02 -0.43205823821E+03  0.45495316022E+03  0.12500000000E+03 0.  0.
</event>
<event>
 4    0  0.2202290E-002  0.2313409E+03  0.7546771E-02  0.1125700E+00
         21   -1    0    0  502  501  0.00000000000E+00  0.00000000000E+00  0.30794213615E+03  0.30794213615E+03  0.00000000000E+00 0. -1.
         21   -1    0    0  501  502 -0.00000000000E+00 -0.00000000000E+00 -0.17379439589E+03  0.17379439589E+03  0.00000000000E+00 0. -1.
         25    1    1    2    0    0  0.19454357587E+03 -0.66657020893E+01  0.68540062403E+02  0.24127655222E+03  0.12500000000E+03 0.  0.
         25    1    1    2    0    0 -0.19454357587E+03  0.66657020893E+01  0.65607677859E+02  0.24045997981E+03  0.12500000000E+03 0.  0.
</event>
<event>
 4    0  0.2202290E-002  0.1947382E+03  0.7546771E-02  0.1154256E+00
         21   -1    0    0  502  501  0.00000000000E+00  0.00000000000E+00  0.96879063211E+03  0.96879063211E+03  0.00000000000E+00 0.  1.
         21   -1    0    0  501  502 -0.00000000000E+00 -0.00000000000E+00 -0.39144653517E+02  0.39144653517E+02  0.00000000000E+00 0.  1.
         25    1    1    2    0    0  0.10618898174E+03 -0.10236560429E+03  0.52513642776E+03  0.55959635859E+03  0.12500000000E+03 0.  0.
         25    1    1    2    0    0 -0.10618898174E+03  0.10236560429E+03  0.40450955084E+03  0.44833892704E+03  0.12500000000E+03 0.  0.
</event>
<event>
 4    0  0.2202290E-002  0.2265079E+03  0.7546771E-02  0.1129122E+00
         21   -1    0    0  502  501  0.00000000000E+00  0.00000000000E+00  0.22140769034E+03  0.22140769034E+03  0.00000000000E+00 0. -1.
         21   -1    0    0  501  502 -0.00000000000E+00 -0.00000000000E+00 -0.23172563298E+03  0.23172563298E+03  0.00000000000E+00 0. -1.
         25    1    1    2    0    0 -0.63668546381E+02 -0.17546989643E+03  0.23787587654E+02  0.22590754233E+03  0.12500000000E+03 0.  0.
         25    1    1    2    0    0  0.63668546381E+02  0.17546989643E+03 -0.34105530287E+02  0.22722578100E+03  0.12500000000E+03 0.  0.
</event>
<event>
 4    0  0.2202290E-002  0.2536854E+03  0.7546771E-02  0.1110998E+00
         21   -1    0    0  502  501  0.00000000000E+00  0.00000000000E+00  0.27856857201E+03  0.27856857201E+03  0.00000000000E+00 0. -1.
         21   -1    0    0  501  502 -0.00000000000E+00 -0.00000000000E+00 -0.23102491309E+03  0.23102491309E+03  0.00000000000E+00 0. -1.
         25    1    1    2    0    0  0.21331628034E+03  0.42465516297E+02 -0.14131067056E+02  0.25126050742E+03  0.12500000000E+03 0.  0.
         25    1    1    2    0    0 -0.21331628034E+03 -0.42465516297E+02  0.61674725969E+02  0.25833297768E+03  0.12500000000E+03 0.  0.
</event>
<event>
 4    0  0.2202290E-002  0.1697853E+03  0.7546771E-02  0.1178072E+00
         21   -1    0    0  502  501  0.00000000000E+00  0.00000000000E+00  0.41009298525E+02  0.41009298525E+02  0.00000000000E+00 0. -1.
         21   -1    0    0  501  502 -0.00000000000E+00 -0.00000000000E+00 -0.70293922538E+03  0.70293922538E+03  0.00000000000E+00 0. -1.
         25    1    1    2    0    0 -0.80673261428E+02 -0.40412432590E+02 -0.17511082803E+03  0.23330268303E+03  0.12500000000E+03 0.  0.
         25    1    1    2    0    0  0.80673261428E+02  0.40412432590E+02 -0.48681909883E+03  0.51064584088E+03  0.12500000000E+03 0.  0.
</event>
<event>
 4    0  0.2202290E-002  0.1780889E+03  0.7546771E-02  0.1169666E+00
         21   -1    0    0  502  501  0.00000000000E+00  0.00000000000E+00  0.15541142848E+04  0.15541142848E+04  0.00000000000E+00 0.  1.
         21   -1    0    0  501  502 -0.00000000000E+00 -0.00000000000E+00 -0.20407546289E+02  0.20407546289E+02  0.00000000000E+00 0.  1.
         25    1    1    2    0    0  0.78273929101E+02 -0.97418325579E+02  0.86304814219E+03  0.88096210694E+03  0.12500000000E+03 0.  0.
         25    1    1    2    0    0 -0.78273929101E+02  0.97418325579E+02  0.67065859633E+03  0.69355972416E+03  0.12500000000E+03 0.  0.
</event>
<event>
 4    0  0.2202290E-002  0.2402295E+03  0.7546771E-02  0.1119640E+00
         21   -1    0    0  502  501  0.00000000000E+00  0.00000000000E+00  0.61241183415E+02  0.61241183415E+02  0.00000000000E+00 0.  1.
         21   -1    0    0  501  502 -0.00000000000E+00 -0.00000000000E+00 -0.94234331703E+03  0.94234331703E+03  0.00000000000E+00 0.  1.
         25    1    1    2    0    0  0.32641775789E+02 -0.15187333889E+03 -0.72043688705E+03  0.74751943440E+03  0.12500000000E+03 0.  0.
         25    1    1    2    0    0 -0.32641775789E+02  0.15187333889E+03 -0.16066524656E+03  0.25606506604E+03  0.12500000000E+03 0.  0.
</event>
<event>
 4    0  0.2202290E-002  0.1972136E+03  0.7546771E-02  0.1152111E+00
         21   -1    0    0  502  501  0.00000000000E+00  0.00000000000E+00  0.27418703897E+03  0.27418703897E+03  0.00000000000E+00 0. -1.
         21   -1    0    0  501  502 -0.00000000000E+00 -0.00000000000E+00 -0.14184918570E+03  0.14184918570E+03  0.00000000000E+00 0. -1.
         25    1    1    2    0    0 -0.11397827783E+03  0.10040251289E+03  0.51383260432E+02  0.20331490812E+03  0.12500000000E+03 0.  0.
         25    1    1    2    0    0  0.11397827783E+03 -0.10040251289E+03  0.80954592834E+02  0.21272131654E+03  0.12500000000E+03 0.  0.
</event>
<event>
 4    0  0.2202290E-002  0.1666324E+03  0.7546771E-02  0.1181406E+00
         21   -1    0    0  502  501  0.00000000000E+00  0.00000000000E+00  0.10336332380E+04  0.10336332380E+04  0.00000000000E+00 0.  1.
         21   -1    0    0  501  502 -0.00000000000E+00 -0.00000000000E+00 -0.26862883356E+02  0.26862883356E+02  0.00000000000E+00 0.  1.
         25    1    1    2    0    0  0.39384304819E+02 -0.10287596139E+03  0.49509802871E+03  0.52238074709E+03  0.12500000000E+03 0.  0.
         25    1    1    2    0    0 -0.39384304819E+02  0.10287596139E+03  0.51167232598E+03  0.53811537431E+03  0.12500000000E+03 0.  0.
</event>
<event>
 4    0  0.2202290E-002  0.2778611E+03  0.7546771E-02  0.1096863E+00
         21   -1    0    0  502  501  0.00000000000E+00  0.00000000000E+00  0.39922443135E+03  0.39922443135E+03  0.00000000000E+00 0. -1.
         21   -1    0    0  501  502 -0.00000000000E+00 -0.00000000000E+00 -0.19339200924E+03  0.19339200924E+03  0.00000000000E+00 0. -1.
         25    1    1    2    0    0 -0.12422131326E+03 -0.21162449757E+03  0.63503741786E+02  0.28261915693E+03  0.12500000000E+03 0.  0.
         25    1    1    2    0    0  0.12422131326E+03  0.21162449757E+03  0.14232868033E+03  0.30999728367E+03  0.12500000000E+03 0.  0.
</event>
<event>
 4    0  0.2202290E-002  0.1889353E+03  0.7546771E-02  0.1159425E+00
         21   -1    0    0  502  501  0.00000000000E+00  0.00000000000E+00  0.58350761316E+03  0.58350761316E+03  0.00000000000E+00 0.  1.
         21   -1    0    0  501  502 -0.00000000000E+00 -0.00000000000E+00 -0.61175795503E+02  0.61175795503E+02  0.00000000000E+00 0.  1.
         25    1    1    2    0    0 -0.95544765802E+02 -0.12436402742E+02  0.43837068413E+03  0.46591557507E+03  0.12500000000E+03 0.  0.
         25    1    1    2    0    0  0.95544765802E+02  0.12436402742E+02  0.83961133526E+02  0.17876783360E+03  0.12500000000E+03 0.  0.
</event>
<event>
 4    0  0.2202290E-002  0.2600526E+03  0.7546771E-02  0.1107112E+00
         21   -1    0    0  502  501  0.00000000000E+00  0.00000000000E+00  0.51391280367E+02  0.51391280367E+02  0.00000000000E+00 0. -1.
         21   -1    0    0  501  502 -0.00000000000E+00 -0.00000000000E+00 -0.13159303239E+04  0.13159303239E+04  0.00000000000E+00 0.  1.
         25    1    1    2    0    0 -0.19233245213E+03  0.11511848620E+03 -0.52203267832E+03  0.58171054249E+03  0.12500000000E+03 0.  0.
         25    1    1    2    0    0  0.19233245213E+03 -0.11511848620E+03 -0.74250636516E+03  0.78561106173E+03  0.12500000000E+03 0.  0.
</event>
<event>
 4    0  0.2202290E-002  0.2886890E+03  0.7546771E-02  0.1091036E+00
         21   -1    0    0  502  501  0.00000000000E+00  0.00000000000E+00  0.35101238455E+03  0.35101238455E+03  0.00000000000E+00 0. -1.
         21   -1    0    0  501  502 -0.00000000000E+00 -0.00000000000E+00 -0.23743133235E+03  0.23743133235E+03  0.00000000000E+00 0. -1.
         25    1    1    2    0    0  0.23245905389E+03 -0.93761697089E+02  0.12804375473E+03  0.30797511377E+03  0.12500000000E+03 0.  0.
         25    1    1    2    0    0 -0.23245905389E+03  0.93761697089E+02 -0.14462702529E+02  0.28046860313E+03  0.12500000000E+03 0.  0.
</event>
<event>
 4    0  0.2202290E-002  0.2251699E+03  0.7546771E-02  0.1130086E+00
         21   -1    0    0  502  501  0.00000000000E+00  0.00000000000E+00  0.13551873223E+04  0.13551873223E+04  0.00000000000E+00 0.  1.
         21   -1    0    0  501  502 -0.00000000000E+00 -0.00000000000E+00 -0.37412910321E+02  0.37412910321E+02  0.00000000000E+00 0.  1.
         25    1    1    2    0    0  0.16020456875E+03  0.79809113617E+02  0.82942875429E+03  0.85767829453E+03  0.12500000000E+03 0.  0.
         25    1    1    2    0    0 -0.16020456875E+03 -0.79809113617E+02  0.48834565768E+03  0.53492193808E+03  0.12500000000E+03 0.  0.
</event>
<event>
 4    0  0.2202290E-002  0.2047446E+03  0.7546771E-02  0.1145797E+00
         21   -1    0    0  502  501  0.00000000000E+00  0.00000000000E+00  0.37195226924E+03  0.37195226924E+03  0.00000000000E+00 0.  1.
         21   -1    0    0  501  502 -0.00000000000E+00 -0.00000000000E+00 -0.11270356862E+03  0.11270356862E+03  0.00000000000E+00 0.  1.
         25    1    1    2    0    0 -0.83458382186E+02  0.44094282301E+02 -0.26434216047E+02  0.15885016546E+03  0.12500000000E+03 0.  0.
         25    1    1    2    0    0  0.83458382186E+02 -0.44094282301E+02  0.28568291667E+03  0.32580567239E+03  0.12500000000E+03 0.  0.
</event>
<event>
 4    0  0.2202290E-002  0.1717638E+03  0.7546771E-02  0.1176021E+00
         21   -1    0    0  502  501  0.00000000000E+00  0.00000000000E+00  0.13052878465E+03  0.13052878465E+03  0.00000000000E+00 0.  1.
         21   -1    0    0  501  502 -0.00000000000E+00 -0.00000000000E+00 -0.22602513795E+03  0.22602513795E+03  0.00000000000E+00 0.  1.
         25    1    1    2    0    0 -0.24744511347E+02 -0.93942081027E+02 -0.11691117752E+03  0.19680098795E+03  0.12500000000E+03 0.  0.
         25    1    1    2    0    0  0.24744511347E+02  0.93942081027E+02  0.21414824227E+02  0.15975293464E+03  0.12500000000E+03 0.  0.
</event>
<event>
 4    0  0.2202290E-002  0.1881651E+03  0.7546771E-02  0.1160127E+00
         21   -1    0    0  502  501  0.00000000000E+00  0.00000000000E+00  0.48134911945E+02  0.48134911945E+02  0.00000000000E+00 0.  1.
         21   -1    0    0  501  502 -0.00000000000E+00 -0.00000000000E+00 -0.73556007159E+03  0.73556007159E+03  0.00000000000E+00 0.  1.
         25    1    1    2    0    0  0.69718627755E+02 -0.94614133216E+02 -0.18282812905E+03  0.25072623722E+03  0.12500000000E+03 0.  0.
         25    1    1    2    0    0 -0.69718627755E+02  0.94614133216E+02 -0.50459703060E+03  0.53296874631E+03  0.12500000000E+03 0.  0.
</event>
<event>
 4    0  0.2202290E-002  0.2025657E+03  0.7546771E-02  0.1147592E+00
         21   -1    0    0  502  501  0.00000000000E+00  0.00000000000E+00  0.30864851532E+03  0.30864851532E+03  0.00000000000E+00 0. -1.
         21   -1    0    0  501  502 -0.00000000000E+00 -0.00000000000E+00 -0.13294368115E+03  0.13294368115E+03  0.00000000000E+00 0. -1.
         25    1    1    2    0    0  0.12522624979E+03  0.89852241122E+02  0.13216628565E+03  0.23842811481E+03  0.12500000000E+03 0.  0.
         25    1    1    2    0    0 -0.12522624979E+03 -0.89852241122E+02  0.43538548520E+02  0.20316408166E+03  0.12500000000E+03 0.  0.
</event>
<event>
 4    0  0.2202290E-002  0.3155558E+03  0.7546771E-02  0.1077713E+00
         21   -1    0    0  502  501  0.00000000000E+00  0.00000000000E+00  0.14946617207E+03  0.14946617207E+03  0.00000000000E+00 0. -1.
         21   -1    0    0  501  502 -0.00000000000E+00 -0.00000000000E+00 -0.66620724589E+03  0.66620724589E+03  0.00000000000E+00 0. -1.
         25    1    1    2    0    0  0.94838193121E+02 -0.33091905071E+02  0.92880841512E+02  0.18531380892E+03  0.12500000000E+03 0.  0.
         25    1    1    2    0    0 -0.94838193121E+02  0.33091905071E+02 -0.60962191534E+03  0.63035960904E+03  0.12500000000E+03 0.  0.
</event>
<event>
 4    0  0.2202290E-002  0.2433661E+03  0.7546771E-02  0.1117571E+00
         21   -1    0    0  502  501  0.00000000000E+00  0.00000000000E+00  0.12506321944E+03  0.12506321944E+03  0.00000000000E+00 0.  1.
         21   -1    0    0  501  502 -0.00000000000E+00 -0.00000000000E+00 -0.47357694221E+03  0.47357694221E+03  0.00000000000E+00 0.  1.
         25    1    1    2    0    0 -0.75984334691E+02  0.12005007777E+03 -0.36246395865E+03  0.40888966924E+03  0.12500000000E+03 0.  0.
         25    1    1    2    0    0  0.75984334691E+02 -0.12005007777E+03  0.13950235887E+02  0.18975049241E+03  0.12500000000E+03 0.  0.
</event>
<event>
 4    0  0.2202290E-002  0.1841076E+03  0.7546771E-02  0.1163886E+00
         21   -1    0    0  502  501  0.00000000000E+00  0.00000000000E+00  0.12307647447E+04  0.12307647447E+04  0.00000000000E+00 0. -1.
         21   -1    0    0  501  502 -0.00000000000E+00 -0.00000000000E+00 -0.27540267726E+02  0.27540267726E+02  0.00000000000E+00 0. -1.
         25    1    1    2    0    0  0.46912682639E+02 -0.12534371709E+03  0.66633786614E+03  0.69104486038E+03  0.12500000000E+03 0.  0.
         25    1    1    2    0    0 -0.46912682639E+02  0.12534371709E+03  0.53688661084E+03  0.56726015205E+03  0.12500000000E+03 0.  0.
</event>
<event>
 4    0  0.2202290E-002  0.2213494E+03  0.7546771E-02  0.1132881E+00
         21   -1    0    0  502  501  0.00000000000E+00  0.00000000000E+00  0.48798761645E+02  0.48798761645E+02  0.00000000000E+00 0.  1.
         21   -1    0    0  501  502 -0.00000000000E+00 -0.00000000000E+00 -0.10040323439E+04  0.10040323439E+04  0.00000000000E+00 0.  1.
         25    1    1    2    0    0 -0.10064999862E+03 -0.61111395109E+02 -0.80976286014E+03  0.82777165601E+03  0.12500000000E+03 0.  0.
         25    1    1    2    0    0  0.10064999862E+03  0.61111395109E+02 -0.14547072214E+03  0.22505944956E+03  0.12500000000E+03 0.  0.
</event>
<event>
 4    0  0.2202290E-002  0.2031541E+03  0.7546771E-02  0.1147105E+00
         21   -1    0    0  502  501  0.00000000000E+00  0.00000000000E+00  0.56334754703E+03  0.56334754703E+03  0.00000000000E+00 0. -1.
         21   -1    0    0  501  502 -0.00000000000E+00 -0.00000000000E+00 -0.73261327944E+02  0.73261327944E+02  0.00000000000E+00 0. -1.
         25    1    1    2    0    0 -0.91490043639E+02  0.12881467783E+03  0.28598881865E+03  0.34982603348E+03  0.12500000000E+03 0.  0.
         25    1    1    2    0    0  0.91490043639E+02 -0.12881467783E+03  0.20409740044E+03  0.28678284149E+03  0.12500000000E+03 0.  0.
</event>
<event>
 4    0  0.2202290E-002  0.1794969E+03  0.7546771E-02  0.1168291E+00
         21   -1    0    0  502  501  0.00000000000E+00  0.00000000000E+00  0.19441499355E+03  0.19441499355E+03  0.00000000000E+00 0.  1.
         21   -1    0    0  501  502 -0.00000000000E+00 -0.00000000000E+00 -0.16572353525E+03  0.16572353525E+03  0.00000000000E+00 0.  1.
         25    1    1    2    0    0 -0.81218499584E+02  0.23526561674E+02 -0.83145404381E+02  0.17230235648E+03  0.12500000000E+03 0.  0.
         25    1    1    2    0    0  0.81218499584E+02 -0.23526561674E+02  0.11183686268E+03  0.18783617232E+03  0.12500000000E+03 0.  0.
</event>
<event>
 4    0  0.2202290E-002  0.3090272E+03  0.7546771E-02  0.1080813E+00
         21   -1    0    0  502  501  0.00000000000E+00  0.00000000000E+00  0.72026646956E+03  0.72026646956E+03  0.00000000000E+00 0. -1.
         21   -1    0    0  501  502 -0.00000000000E+00 -0.00000000000E+00 -0.13258674139E+03  0.13258674139E+03  0.00000000000E+00 0.  1.
         25    1    1    2    0    0 -0.19007765535E+01  0.26604659338E+03  0.16228984472E+03  0.33577879102E+03  0.12500000000E+03 0.  0.
         25    1    1    2    0    0  0.19007765535E+01 -0.26604659338E+03  0.42538988345E+03  0.51707441993E+03  0.12500000000E+03 0.  0.
</event>
<event>
 4    0  0.2202290E-002  0.3209933E+03  0.7546771E-02  0.1075193E+00
         21   -1    0    0  502  501  0.00000000000E+00  0.00000000000E+00  0.21197754556E+03  0.21197754556E+03  0.00000000000E+00 0. -1.
         21   -1    0    0  501  502 -0.00000000000E+00 -0.00000000000E+00 -0.48607369328E+03  0.48607369328E+03  0.00000000000E+00 0. -1.
         25    1    1    2    0    0  0.77970427051E+01 -0.25830864349E+03  0.19117477976E+02  0.28770579963E+03  0.12500000000E+03 0.  0.
         25    1    1    2    0    0 -0.77970427051E+01  0.25830864349E+03 -0.29321362570E+03  0.41034543920E+03  0.12500000000E+03 0.  0.
</event>
<event>
 4    0  0.2202290E-002  0.1907026E+03  0.7546771E-02  0.1157829E+00
         21   -1    0    0  502  501  0.00000000000E+00  0.00000000000E+00  0.42452264460E+03  0.42452264460E+03  0.00000000000E+00 0.  1.
         21   -1    0    0  501  502 -0.00000000000E+00 -0.00000000000E+00 -0.85666763684E+02  0.85666763684E+02  0.00000000000E+00 0.  1.
         25    1    1    2    0    0  0.13630206092E+03 -0.39962427544E+02  0.13756940378E+03  0.23393500868E+03  0.12500000000E+03 0.  0.
         25    1    1    2    0    0 -0.13630206092E+03  0.39962427544E+02  0.20128647713E+03  0.27625439960E+03  0.12500000000E+03 0.  0.
</event>
<event>
 4    0  0.2202290E-002  0.1607118E+03  0.7546771E-02  0.1187895E+00
         21   -1    0    0  502  501  0.00000000000E+00  0.00000000000E+00  0.70771130640E+02  0.70771130640E+02  0.00000000000E+00 0.  1.
         21   -1    0    0  501  502 -0.00000000000E+00 -0.00000000000E+00 -0.36495519428E+03  0.36495519428E+03  0.00000000000E+00 0.  1.
         25    1    1    2    0    0 -0.54167904896E+02  0.62927837655E+02 -0.69109274103E+02  0.16521248875E+03  0.12500000000E+03 0.  0.
         25    1    1    2    0    0  0.54167904896E+02 -0.62927837655E+02 -0.22507478954E+03  0.27051383617E+03  0.12500000000E+03 0.  0.
</event>
<event>
 4    0  0.2202290E-002  0.2019138E+03  0.7546771E-02  0.1148134E+00
         21   -1    0    0  502  501  0.00000000000E+00  0.00000000000E+00  0.50933274250E+03  0.50933274250E+03  0.00000000000E+00 0.  1.
         21   -1    0    0  501  502 -0.00000000000E+00 -0.00000000000E+00 -0.80044313009E+02  0.80044313009E+02  0.00000000000E+00 0.  1.
         25    1    1    2    0    0 -0.50369715915E+02 -0.11401644710E+03  0.35769774070E+03  0.39888536222E+03  0.12500000000E+03 0.  0.
         25    1    1    2    0    0  0.50369715915E+02  0.11401644710E+03  0.71590688788E+02  0.19049169329E+03  0.12500000000E+03 0.  0.
</event>
<event>
 4    0  0.2202290E-002  0.2737792E+03  0.7546771E-02  0.1099136E+00
         21   -1    0    0  502  501  0.00000000000E+00  0.00000000000E+00  0.12752541246E+03  0.12752541246E+03  0.00000000000E+00 0. -1.
         21   -1    0    0  501  502 -0.00000000000E+00 -0.00000000000E+00 -0.58776540103E+03  0.58776540103E+03  0.00000000000E+00 0. -1.
         25    1    1    2    0    0  0.71746912528E+02 -0.10613507528E+02 -0.53387923057E+03  0.55309339070E+03  0.12500000000E+03 0.  0.
         25    1    1    2    0    0 -0.71746912528E+02  0.10613507528E+02  0.73639242004E+02  0.16219742280E+03  0.12500000000E+03 0.  0.
</event>
<event>
 4    0  0.2202290E-002  0.2835927E+03  0.7546771E-02  0.1093743E+00
         21   -1    0    0  502  501  0.00000000000E+00  0.00000000000E+00  0.98925068140E+02  0.98925068140E+02  0.00000000000E+00 0. -1.
         21   -1    0    0  501  502 -0.00000000000E+00 -0.00000000000E+00 -0.81298712808E+03  0.81298712808E+03  0.00000000000E+00 0. -1.
         25    1    1    2    0    0  0.76658799341E+02 -0.35061946684E+02 -0.74321384697E+03  0.75835198552E+03  0.12500000000E+03 0.  0.
         25    1    1    2    0    0 -0.76658799341E+02  0.35061946684E+02  0.29151787029E+02  0.15356021069E+03  0.12500000000E+03 0.  0.
</event>
<event>
 4    0  0.2202290E-002  0.1876759E+03  0.7546771E-02  0.1160574E+00
         21   -1    0    0  502  501  0.00000000000E+00  0.00000000000E+00  0.24150662004E+03  0.24150662004E+03  0.00000000000E+00 0.  1.
         21   -1    0    0  501  502 -0.00000000000E+00 -0.00000000000E+00 -0.14584374016E+03  0.14584374016E+03  0.00000000000E+00 0.  1.
         25    1    1    2    0    0 -0.11107894826E+03  0.16653044796E+02  0.13405698427E+03  0.21497007159E+03  0.12500000000E+03 0.  0.
         25    1    1    2    0    0  0.11107894826E+03 -0.16653044796E+02 -0.38394104392E+02  0.17238028860E+03  0.12500000000E+03 0.  0.
</event>
<event>
 4    0  0.2202290E-002  0.1858797E+03  0.7546771E-02  0.1162231E+00
         21   -1    0    0  502  501  0.00000000000E+00  0.00000000000E+00  0.48624172290E+02  0.48624172290E+02  0.00000000000E+00 0. -1.
         21   -1    0    0  501  502 -0.00000000000E+00 -0.00000000000E+00 -0.71057766485E+03  0.71057766485E+03  0.00000000000E+00 0. -1.
         25    1    1    2    0    0  0.88822203427E+02 -0.91775899890E+02 -0.22656426641E+03  0.28856293323E+03  0.12500000000E+03 0.  0.
         25    1    1    2    0    0 -0.88822203427E+02  0.91775899890E+02 -0.43538922615E+03  0.47063890391E+03  0.12500000000E+03 0.  0.
</event>
<event>
 4    0  0.2202290E-002  0.2853067E+03  0.7546771E-02  0.1092825E+00
         21   -1    0    0  502  501  0.00000000000E+00  0.00000000000E+00  0.29444889460E+03  0.29444889460E+03  0.00000000000E+00 0.  1.
         21   -1    0    0  501  502 -0.00000000000E+00 -0.00000000000E+00 -0.27644831161E+03  0.27644831161E+03  0.00000000000E+00 0.  1.
         25    1    1    2    0    0 -0.11345369916E+03  0.22995742817E+03  0.42293613881E+01  0.28529817406E+03  0.12500000000E+03 0.  0.
         25    1    1    2    0    0  0.11345369916E+03 -0.22995742817E+03  0.13771221605E+02  0.28559903216E+03  0.12500000000E+03 0.  0.
</event>
<event>
 4    0  0.2202290E-002  0.2203825E+03  0.7546771E-02  0.1133598E+00
         21   -1    0    0  502  501  0.00000000000E+00  0.00000000000E+00  0.16132754072E+03  0.16132754072E+03  0.00000000000E+00 0.  1.
         21   -1    0    0  501  502 -0.00000000000E+00 -0.00000000000E+00 -0.30105491755E+03  0.30105491755E+03  0.00000000000E+00 0.  1.
         25    1    1    2    0    0  0.15765807125E+03  0.41261378563E+02  0.13960745125E+02  0.20586031962E+03  0.12500000000E+03 0.  0.
         25    1    1    2    0    0 -0.15765807125E+03 -0.41261378563E+02 -0.15368812195E+03  0.25652213865E+03  0.12500000000E+03 0.  0.
</event>
<event>
 4    0  0.2202290E-002  0.2586184E+03  0.7546771E-02  0.1107976E+00
         21   -1    0    0  502  501  0.00000000000E+00  0.00000000000E+00  0.16218009402E+03  0.16218009402E+03  0.00000000000E+00 0. -1.
         21   -1    0    0  501  502 -0.00000000000E+00 -0.00000000000E+00 -0.41240265437E+03  0.41240265437E+03  0.00000000000E+00 0. -1.
         25    1    1    2    0    0 -0.17619155483E+03  0.11857732776E+03 -0.37963190143E+02  0.24933962873E+03  0.12500000000E+03 0.  0.
         25    1    1    2    0    0  0.17619155483E+03 -0.11857732776E+03 -0.21225937021E+03  0.32524311967E+03  0.12500000000E+03 0.  0.
</event>
<event>
 4    0  0.2202290E-002  0.2452478E+03  0.7546771E-02  0.1116345E+00
         21   -1    0    0  502  501  0.00000000000E+00  0.00000000000E+00  0.71818220452E+03  0.71818220452E+03  0.00000000000E+00 0.  1.
         21   -1    0    0  501  502 -0.00000000000E+00 -0.00000000000E+00 -0.83748214720E+02  0.83748214720E+02  0.00000000000E+00 0.  1.
         25    1    1    2    0    0 -0.23219732654E+01  0.17942590130E+01  0.66215764273E+03  0.67385929893E+03  0.12500000000E+03 0.  0.
         25    1    1    2    0    0  0.23219732654E+01 -0.17942590130E+01 -0.27723652933E+02  0.12807112031E+03  0.12500000000E+03 0.  0.
</event>
<event>
 4    0  0.2202290E-002  0.1847255E+03  0.7546771E-02  0.1163306E+00
         21   -1    0    0  502  501  0.00000000000E+00  0.00000000000E+00  0.46108081811E+02  0.46108081811E+02  0.00000000000E+00 0.  1.
         21   -1    0    0  501  502 -0.00000000000E+00 -0.00000000000E+00 -0.74007658134E+03  0.74007658134E+03  0.00000000000E+00 0.  1.
         25    1    1    2    0    0  0.48088485575E+02  0.33128873978E+02 -0.85593293698E+02  0.16236143835E+03  0.12500000000E+03 0.  0.
         25    1    1    2    0    0 -0.48088485575E+02 -0.33128873978E+02 -0.60837520583E+03  0.62382322480E+03  0.12500000000E+03 0.  0.
</event>
<event>
 4    0  0.2202290E-002  0.2221056E+03  0.7546771E-02  0.1132323E+00
         21   -1    0    0  502  501  0.00000000000E+00  0.00000000000E+00  0.11224189667E+03  0.11224189667E+03  0.00000000000E+00 0.  1.
         21   -1    0    0  501  502 -0.00000000000E+00 -0.00000000000E+00 -0.43950515183E+03  0.43950515183E+03  0.00000000000E+00 0.  1.
         25    1    1    2    0    0  0.15657682046E+03  0.86807315441E+02 -0.11311562908E+03  0.24591046391E+03  0.12500000000E+03 0.  0.
         25    1    1    2    0    0 -0.15657682046E+03 -0.86807315441E+02 -0.21414762608E+03  0.30583658459E+03  0.12500000000E+03 0.  0.
</event>
<event>
 4    0  0.2202290E-002  0.2345382E+03  0.7546771E-02  0.1123486E+00
         21   -1    0    0  502  501  0.00000000000E+00  0.00000000000E+00  0.41254601709E+03  0.41254601709E+03  0.00000000000E+00 0. -1.
         21   -1    0    0  501  502 -0.00000000000E+00 -0.00000000000E+00 -0.13333825876E+03  0.13333825876E+03  0.00000000000E+00 0. -1.
         25    1    1    2    0    0 -0.59125102793E+02  0.55543751986E+02 -0.71166232220E+02  0.16513787807E+03  0.12500000000E+03 0.  0.
         25    1    1    2    0    0  0.59125102793E+02 -0.55543751986E+02  0.35037399055E+03  0.38074639778E+03  0.12500000000E+03 0.  0.
</event>
<event>
 4    0  0.2202290E-002  0.2343864E+03  0.7546771E-02  0.1123590E+00
         21   -1    0    0  502  501  0.00000000000E+00  0.00000000000E+00  0.34698068691E+02  0.34698068691E+02  0.00000000000E+00 0. -1.
         21   -1    0    0  501  502 -0.00000000000E+00 -0.00000000000E+00 -0.15832860009E+04  0.15832860009E+04  0.00000000000E+00 0. -1.
         25    1    1    2    0    0  0.36413700036E+01  0.19708562158E+03 -0.70059227119E+03  0.73845144204E+03  0.12500000000E+03 0.  0.
         25    1    1    2    0    0 -0.36413700036E+01 -0.19708562158E+03 -0.84799566103E+03  0.87953262755E+03  0.12500000000E+03 0.  0.
</event>
<event>
 4    0  0.2202290E-002  0.3060926E+03  0.7546771E-02  0.1082234E+00
         21   -1    0    0  502  501  0.00000000000E+00  0.00000000000E+00  0.22055868090E+03  0.22055868090E+03  0.00000000000E+00 0. -1.
         21   -1    0    0  501  502 -0.00000000000E+00 -0.00000000000E+00 -0.42479703421E+03  0.42479703421E+03  0.00000000000E+00 0. -1.
         25    1    1    2    0    0 -0.15912825447E+03 -0.17843241902E+03  0.50310642965E+02  0.27443777131E+03  0.12500000000E+03 0.  0.
         25    1    1    2    0    0  0.15912825447E+03  0.17843241902E+03 -0.25454899627E+03  0.37091794380E+03  0.12500000000E+03 0.  0.
</event>
<event>
 4    0  0.2202290E-002  0.2975056E+03  0.7546771E-02  0.1086494E+00
         21   -1    0    0  502  501  0.00000000000E+00  0.00000000000E+00  0.47494243718E+02  0.47494243718E+02  0.00000000000E+00 0.  1.
         21   -1    0    0  501  502 -0.00000000000E+00 -0.00000000000E+00 -0.18635850556E+04  0.18635850556E+04  0.00000000000E+00 0.  1.
         25    1    1    2    0    0  0.24190770250E+03 -0.36429755477E+02 -0.54130331613E+03  0.60702614743E+03  0.12500000000E+03 0.  0.
         25    1    1    2    0    0 -0.24190770250E+03  0.36429755477E+02 -0.12747874958E+04  0.13040531519E+04  0.12500000000E+03 0.  0.
</event>
<event>
 4    0  0.2202290E-002  0.3349361E+03  0.7546771E-02  0.1068973E+00
         21   -1    0    0  502  501  0.00000000000E+00  0.00000000000E+00  0.57964937228E+02  0.57964937228E+02  0.00000000000E+00 0. -1.
         21   -1    0    0  501  502 -0.00000000000E+00 -0.00000000000E+00 -0.19353453779E+04  0.19353453779E+04  0.00000000000E+00 0. -1.
         25    1    1    2    0    0 -0.17596589223E+03 -0.62033664326E+02 -0.16780978037E+04  0.16930591867E+04  0.12500000000E+03 0.  0.
         25    1    1    2    0    0  0.17596589223E+03  0.62033664326E+02 -0.19928263690E+03  0.30025112840E+03  0.12500000000E+03 0.  0.
</event>
<event>
 4    0  0.2202290E-002  0.2031988E+03  0.7546771E-02  0.1147068E+00
         21   -1    0    0  502  501  0.00000000000E+00  0.00000000000E+00  0.68455335687E+03  0.68455335687E+03  0.00000000000E+00 0.  1.
         21   -1    0    0  501  502 -0.00000000000E+00 -0.00000000000E+00 -0.60316367718E+02  0.60316367718E+02  0.00000000000E+00 0.  1.
         25    1    1    2    0    0 -0.75109381703E+02 -0.56091185984E+01  0.57127136141E+03  0.58961754537E+03  0.12500000000E+03 0.  0.
         25    1    1    2    0    0  0.75109381703E+02  0.56091185984E+01  0.52965627736E+02  0.15525217922E+03  0.12500000000E+03 0.  0.
</event>
<event>
 4    0  0.2202290E-002  0.2155170E+03  0.7546771E-02  0.1137270E+00
         21   -1    0    0  502  501  0.00000000000E+00  0.00000000000E+00  0.89152746658E+03  0.89152746658E+03  0.00000000000E+00 0. -1.
         21   -1    0    0  501  502 -0.00000000000E+00 -0.00000000000E+00 -0.52098866910E+02  0.52098866910E+02  0.00000000000E+00 0. -1.
         25    1    1    2    0    0 -0.41718481209E+02  0.11128330368E+03  0.13682082263E+03  0.22015754100E+03  0.12500000000E+03 0.  0.
         25    1    1    2    0    0  0.41718481209E+02 -0.11128330368E+03  0.70260777704E+03  0.72346879249E+03  0.12500000000E+03 0.  0.
</event>
<event>
 4    0  0.2202290E-002  0.1880343E+03  0.7546771E-02  0.1160246E+00
         21   -1    0    0  502  501  0.00000000000E+00  0.00000000000E+00  0.47977523503E+02  0.47977523503E+02  0.00000000000E+00 0.  1.
         21   -1    0    0  501  502 -0.00000000000E+00 -0.00000000000E+00 -0.73694734289E+03  0.73694734289E+03  0.00000000000E+00 0.  1.
         25    1    1    2    0    0  0.12744598976E+03  0.10859593750E+02 -0.22329335318E+03  0.28608623290E+03  0.12500000000E+03 0.  0.
         25    1    1    2    0    0 -0.12744598976E+03 -0.10859593750E+02 -0.46567646621E+03  0.49883863349E+03  0.12500000000E+03 0.  0.
</event>
<event>
 4    0  0.2202290E-002  0.2389653E+03  0.7546771E-02  0.1120484E+00
         21   -1    0    0  502  501  0.00000000000E+00  0.00000000000E+00  0.19404463026E+03  0.19404463026E+03  0.00000000000E+00 0. -1.
         21   -1    0    0  501  502 -0.00000000000E+00 -0.00000000000E+00 -0.29428485289E+03  0.29428485289E+03  0.00000000000E+00 0. -1.
         25    1    1    2    0    0  0.38855228728E+02 -0.13487473078E+03  0.10066619425E+03  0.21321258046E+03  0.12500000000E+03 0.  0.
         25    1    1    2    0    0 -0.38855228728E+02  0.13487473078E+03 -0.20090641688E+03  0.27511690269E+03  0.12500000000E+03 0.  0.
</event>
<event>
 4    0  0.2202290E-002  0.1762843E+03  0.7546771E-02  0.1171448E+00
         21   -1    0    0  502  501  0.00000000000E+00  0.00000000000E+00  0.17986972606E+02  0.17986972606E+02  0.00000000000E+00 0. -1.
         21   -1    0    0  501  502 -0.00000000000E+00 -0.00000000000E+00 -0.17277033214E+04  0.17277033214E+04  0.00000000000E+00 0. -1.
         25    1    1    2    0    0 -0.77029023724E+02 -0.47108978141E+02 -0.12778560490E+04  0.12871261820E+04  0.12500000000E+03 0.  0.
         25    1    1    2    0    0  0.77029023724E+02  0.47108978141E+02 -0.43186029975E+03  0.45856411200E+03  0.12500000000E+03 0.  0.
</event>
<event>
 4    0  0.2202290E-002  0.1559860E+03  0.7546771E-02  0.1193305E+00
         21   -1    0    0  502  501  0.00000000000E+00  0.00000000000E+00  0.13102204552E+04  0.13102204552E+04  0.00000000000E+00 0. -1.
         21   -1    0    0  501  502 -0.00000000000E+00 -0.00000000000E+00 -0.18570630264E+02  0.18570630264E+02  0.00000000000E+00 0. -1.
         25    1    1    2    0    0 -0.44984865582E+02 -0.80821785569E+02  0.69813330405E+03  0.71524185377E+03  0.12500000000E+03 0.  0.
         25    1    1    2    0    0  0.44984865582E+02  0.80821785569E+02  0.59351652089E+03  0.61354923171E+03  0.12500000000E+03 0.  0.
</event>
<event>
 4    0  0.2202290E-002  0.1471338E+03  0.7546771E-02  0.1204040E+00
         21   -1    0    0  502  501  0.00000000000E+00  0.00000000000E+00  0.33950982652E+02  0.33950982652E+02  0.00000000000E+00 0. -1.
         21   -1    0    0  501  502 -0.00000000000E+00 -0.00000000000E+00 -0.63763593282E+03  0.63763593282E+03  0.00000000000E+00 0. -1.
         25    1    1    2    0    0 -0.24522873768E+02  0.73606256235E+02 -0.30647163604E+03  0.33995457931E+03  0.12500000000E+03 0.  0.
         25    1    1    2    0    0  0.24522873768E+02 -0.73606256235E+02 -0.29721331413E+03  0.33163233616E+03  0.12500000000E+03 0.  0.
</event>
<event>
 4    0  0.2202290E-002  0.1871948E+03  0.7546771E-02  0.1161016E+00
         21   -1    0    0  502  501  0.00000000000E+00  0.00000000000E+00  0.13564826950E+03  0.13564826950E+03  0.00000000000E+00 0.  1.
         21   -1    0    0  501  502 -0.00000000000E+00 -0.00000000000E+00 -0.25832908315E+03  0.25832908315E+03  0.00000000000E+00 0.  1.
         25    1    1    2    0    0 -0.11762954346E+03  0.73968277934E+02 -0.50360049697E+02  0.19356949719E+03  0.12500000000E+03 0.  0.
         25    1    1    2    0    0  0.11762954346E+03 -0.73968277934E+02 -0.72320763952E+02  0.20040785547E+03  0.12500000000E+03 0.  0.
</event>
<event>
 4    0  0.2202290E-002  0.2054813E+03  0.7546771E-02  0.1145195E+00
         21   -1    0    0  502  501  0.00000000000E+00  0.00000000000E+00  0.96594288142E+03  0.96594288142E+03  0.00000000000E+00 0.  1.
         21   -1    0    0  501  502 -0.00000000000E+00 -0.00000000000E+00 -0.43711250275E+02  0.43711250275E+02  0.00000000000E+00 0.  1.
         25    1    1    2    0    0  0.43594768504E+02  0.48546033772E+02  0.93905157267E+02  0.16941192342E+03  0.12500000000E+03 0.  0.
         25    1    1    2    0    0 -0.43594768504E+02 -0.48546033772E+02  0.82832647388E+03  0.84024220827E+03  0.12500000000E+03 0.  0.
</event>
<event>
 4    0  0.2202290E-002  0.2519505E+03  0.7546771E-02  0.1112078E+00
         21   -1    0    0  502  501  0.00000000000E+00  0.00000000000E+00  0.89605186670E+02  0.89605186670E+02  0.00000000000E+00 0. -1.
         21   -1    0    0  501  502 -0.00000000000E+00 -0.00000000000E+00 -0.70843071574E+03  0.70843071574E+03  0.00000000000E+00 0. -1.
         25    1    1    2    0    0 -0.18949825845E+03  0.10051630929E+03 -0.37736409203E+03  0.45170983645E+03  0.12500000000E+03 0.  0.
         25    1    1    2    0    0  0.18949825845E+03 -0.10051630929E+03 -0.24146143704E+03  0.34632606596E+03  0.12500000000E+03 0.  0.
</event>
<event>
 4    0  0.2202290E-002  0.1797289E+03  0.7546771E-02  0.1168066E+00
         21   -1    0    0  502  501  0.00000000000E+00  0.00000000000E+00  0.56685118625E+03  0.56685118625E+03  0.00000000000E+00 0. -1.
         21   -1    0    0  501  502 -0.00000000000E+00 -0.00000000000E+00 -0.56985797754E+02  0.56985797754E+02  0.00000000000E+00 0. -1.
         25    1    1    2    0    0 -0.11787280187E+03  0.15263219521E+02  0.34257953387E+03  0.38355273473E+03  0.12500000000E+03 0.  0.
         25    1    1    2    0    0  0.11787280187E+03 -0.15263219521E+02  0.16728585463E+03  0.24028424928E+03  0.12500000000E+03 0.  0.
</event>
<event>
 4    0  0.2202290E-002  0.1522687E+03  0.7546771E-02  0.1197713E+00
         21   -1    0    0  502  501  0.00000000000E+00  0.00000000000E+00  0.16055132200E+03  0.16055132200E+03  0.00000000000E+00 0. -1.
         21   -1    0    0  501  502 -0.00000000000E+00 -0.00000000000E+00 -0.14441344550E+03  0.14441344550E+03  0.00000000000E+00 0. -1.
         25    1    1    2    0    0  0.23729861504E+02 -0.21293821912E+02  0.89078895825E+02  0.15676920252E+03  0.12500000000E+03 0.  0.
         25    1    1    2    0    0 -0.23729861504E+02  0.21293821912E+02 -0.72941019329E+02  0.14819556498E+03  0.12500000000E+03 0.  0.
</event>
<event>
 4    0  0.2202290E-002  0.1703220E+03  0.7546771E-02  0.1177512E+00
         21   -1    0    0  502  501  0.00000000000E+00  0.00000000000E+00  0.19685676878E+03  0.19685676878E+03  0.00000000000E+00 0. -1.
         21   -1    0    0  501  502 -0.00000000000E+00 -0.00000000000E+00 -0.14736399005E+03  0.14736399005E+03  0.00000000000E+00 0. -1.
         25    1    1    2    0    0 -0.68257867269E+02 -0.52036970968E+02  0.10313418284E+03  0.18338113987E+03  0.12500000000E+03 0.  0.
         25    1    1    2    0    0  0.68257867269E+02  0.52036970968E+02 -0.53641404101E+02  0.16083961895E+03  0.12500000000E+03 0.  0.
</event>
<event>
 4    0  0.2202290E-002  0.3787290E+03  0.7546771E-02  0.1051405E+00
         21   -1    0    0  502  501  0.00000000000E+00  0.00000000000E+00  0.13891667630E+03  0.13891667630E+03  0.00000000000E+00 0.  1.
         21   -1    0    0  501  502 -0.00000000000E+00 -0.00000000000E+00 -0.10325303214E+04  0.10325303214E+04  0.00000000000E+00 0.  1.
         25    1    1    2    0    0  0.18286748531E+03 -0.84583785928E+02  0.99252398411E+01  0.23731507413E+03  0.12500000000E+03 0.  0.
         25    1    1    2    0    0 -0.18286748531E+03  0.84583785928E+02 -0.90353888490E+03  0.93413192352E+03  0.12500000000E+03 0.  0.
</event>
<event>
 4    0  0.2202290E-002  0.2917643E+03  0.7546771E-02  0.1089432E+00
         21   -1    0    0  502  501  0.00000000000E+00  0.00000000000E+00  0.75702213671E+02  0.75702213671E+02  0.00000000000E+00 0. -1.
         21   -1    0    0  501  502 -0.00000000000E+00 -0.00000000000E+00 -0.11244905451E+04  0.11244905451E+04  0.00000000000E+00 0. -1.
         25    1    1    2    0    0  0.17683059621E+03  0.19546622840E+03 -0.53474314862E+03  0.60913983715E+03  0.12500000000E+03 0.  0.
         25    1    1    2    0    0 -0.17683059621E+03 -0.19546622840E+03 -0.51404518284E+03  0.59105292166E+03  0.12500000000E+03 0.  0.
</event>
<event>
 4    0  0.2202290E-002  0.3963269E+03  0.7546771E-02  0.1045059E+00
         21   -1    0    0  502  501  0.00000000000E+00  0.00000000000E+00  0.18603517640E+03  0.18603517640E+03  0.00000000000E+00 0. -1.
         21   -1    0    0  501  502 -0.00000000000E+00 -0.00000000000E+00 -0.84432973343E+03  0.84432973343E+03  0.00000000000E+00 0.  1.
         25    1    1    2    0    0 -0.46938881117E+02 -0.37282391506E+03 -0.30863117143E+03  0.50207482528E+03  0.12500000000E+03 0.  0.
         25    1    1    2    0    0  0.46938881117E+02  0.37282391506E+03 -0.34966338560E+03  0.52829008455E+03  0.12500000000E+03 0.  0.
</event>
<event>
 4    0  0.2202290E-002  0.1601624E+03  0.7546771E-02  0.1188513E+00
         21   -1    0    0  502  501  0.00000000000E+00  0.00000000000E+00  0.33314705640E+03  0.33314705640E+03  0.00000000000E+00 0.  1.
         21   -1    0    0  501  502 -0.00000000000E+00 -0.00000000000E+00 -0.76999042561E+02  0.76999042561E+02  0.00000000000E+00 0.  1.
         25    1    1    2    0    0  0.61328836918E+02 -0.48960594863E+02  0.20771322727E+03  0.25481002898E+03  0.12500000000E+03 0.  0.
         25    1    1    2    0    0 -0.61328836918E+02  0.48960594863E+02  0.48434786571E+02  0.15533606998E+03  0.12500000000E+03 0.  0.
</event>
<event>
 4    0  0.2202290E-002  0.1854002E+03  0.7546771E-02  0.1162677E+00
         21   -1    0    0  502  501  0.00000000000E+00  0.00000000000E+00  0.41777832036E+03  0.41777832036E+03  0.00000000000E+00 0.  1.
         21   -1    0    0  501  502 -0.00000000000E+00 -0.00000000000E+00 -0.82276262823E+02  0.82276262823E+02  0.00000000000E+00 0.  1.
         25    1    1    2    0    0  0.12995714313E+02  0.44182525208E+01  0.35147430339E+03  0.37329290844E+03  0.12500000000E+03 0.  0.
         25    1    1    2    0    0 -0.12995714313E+02 -0.44182525208E+01 -0.15972245857E+02  0.12676167474E+03  0.12500000000E+03 0.  0.
</event>
<event>
 4    0  0.2202290E-002  0.1979289E+03  0.7546771E-02  0.1151498E+00
         21   -1    0    0  502  501  0.00000000000E+00  0.00000000000E+00  0.94937551661E+03  0.94937551661E+03  0.00000000000E+00 0. -1.
         21   -1    0    0  501  502 -0.00000000000E+00 -0.00000000000E+00 -0.41264878453E+02  0.41264878453E+02  0.00000000000E+00 0. -1.
         25    1    1    2    0    0 -0.14931357295E+02 -0.67810948495E+02  0.11157080947E+03  0.18136790150E+03  0.12500000000E+03 0.  0.
         25    1    1    2    0    0  0.14931357295E+02  0.67810948495E+02  0.79653982868E+03  0.80927249356E+03  0.12500000000E+03 0.  0.
</event>
<event>
 4    0  0.2202290E-002  0.1787833E+03  0.7546771E-02  0.1168986E+00
         21   -1    0    0  502  501  0.00000000000E+00  0.00000000000E+00  0.11522446771E+03  0.11522446771E+03  0.00000000000E+00 0. -1.
         21   -1    0    0  501  502 -0.00000000000E+00 -0.00000000000E+00 -0.27740188105E+03  0.27740188105E+03  0.00000000000E+00 0. -1.
         25    1    1    2    0    0 -0.27442617735E+02  0.12313406946E+03 -0.10368262406E+03  0.20564577035E+03  0.12500000000E+03 0.  0.
         25    1    1    2    0    0  0.27442617735E+02 -0.12313406946E+03 -0.58494789283E+02  0.18698057841E+03  0.12500000000E+03 0.  0.
</event>
<event>
 4    0  0.2202290E-002  0.2667588E+03  0.7546771E-02  0.1103149E+00
         21   -1    0    0  502  501  0.00000000000E+00  0.00000000000E+00  0.59252627063E+02  0.59252627063E+02  0.00000000000E+00 0. -1.
         21   -1    0    0  501  502 -0.00000000000E+00 -0.00000000000E+00 -0.12009633897E+04  0.12009633897E+04  0.00000000000E+00 0. -1.
         25    1    1    2    0    0  0.17533186104E+03 -0.10717115488E+03 -0.29836078566E+03  0.38323762387E+03  0.12500000000E+03 0.  0.
         25    1    1    2    0    0 -0.17533186104E+03  0.10717115488E+03 -0.84334997701E+03  0.87697839292E+03  0.12500000000E+03 0.  0.
</event>
<event>
 4    0  0.2202290E-002  0.1791280E+03  0.7546771E-02  0.1168650E+00
         21   -1    0    0  502  501  0.00000000000E+00  0.00000000000E+00  0.32361184153E+02  0.32361184153E+02  0.00000000000E+00 0. -1.
         21   -1    0    0  501  502 -0.00000000000E+00 -0.00000000000E+00 -0.99152206501E+03  0.99152206501E+03  0.00000000000E+00 0. -1.
         25    1    1    2    0    0  0.42111722014E+02  0.49953574966E+02 -0.16399743641E+03  0.21630745695E+03  0.12500000000E+03 0.  0.
         25    1    1    2    0    0 -0.42111722014E+02 -0.49953574966E+02 -0.79516344445E+03  0.80757579222E+03  0.12500000000E+03 0.  0.
</event>
<event>
 4    0  0.2202290E-002  0.1447262E+03  0.7546771E-02  0.1207107E+00
         21   -1    0    0  502  501  0.00000000000E+00  0.00000000000E+00  0.17745846503E+03  0.17745846503E+03  0.00000000000E+00 0.  1.
         21   -1    0    0  501  502 -0.00000000000E+00 -0.00000000000E+00 -0.11803134293E+03  0.11803134293E+03  0.00000000000E+00 0.  1.
         25    1    1    2    0    0 -0.71916571136E+02  0.33797005552E+01  0.41673096572E+02  0.15015013339E+03  0.12500000000E+03 0.  0.
         25    1    1    2    0    0  0.71916571136E+02 -0.33797005552E+01  0.17754025534E+02  0.14533967456E+03  0.12500000000E+03 0.  0.
</event>
<event>
 4    0  0.2202290E-002  0.3094184E+03  0.7546771E-02  0.1080625E+00
         21   -1    0    0  502  501  0.00000000000E+00  0.00000000000E+00  0.21110070044E+03  0.21110070044E+03  0.00000000000E+00 0.  1.
         21   -1    0    0  501  502 -0.00000000000E+00 -0.00000000000E+00 -0.45352634415E+03  0.45352634415E+03  0.00000000000E+00 0.  1.
         25    1    1    2    0    0 -0.14481651508E+03  0.14124087703E+03 -0.33383632578E+03  0.40986888244E+03  0.12500000000E+03 0.  0.
         25    1    1    2    0    0  0.14481651508E+03 -0.14124087703E+03  0.91410682063E+02  0.25475816215E+03  0.12500000000E+03 0.  0.
</event>
<event>
 4    0  0.2202290E-002  0.2348083E+03  0.7546771E-02  0.1123301E+00
         21   -1    0    0  502  501  0.00000000000E+00  0.00000000000E+00  0.16068996955E+03  0.16068996955E+03  0.00000000000E+00 0. -1.
         21   -1    0    0  501  502 -0.00000000000E+00 -0.00000000000E+00 -0.34311360879E+03  0.34311360879E+03  0.00000000000E+00 0. -1.
         25    1    1    2    0    0  0.12435830825E+03 -0.11791752005E+03 -0.19924200412E+03  0.29101873921E+03  0.12500000000E+03 0.  0.
         25    1    1    2    0    0 -0.12435830825E+03  0.11791752005E+03  0.16818364887E+02  0.21278483913E+03  0.12500000000E+03 0.  0.
</event>
<event>
 4    0  0.2202290E-002  0.3018647E+03  0.7546771E-02  0.1084312E+00
         21   -1    0    0  502  501  0.00000000000E+00  0.00000000000E+00  0.12928069553E+03  0.12928069553E+03  0.00000000000E+00 0. -1.
         21   -1    0    0  501  502 -0.00000000000E+00 -0.00000000000E+00 -0.70484057072E+03  0.70484057072E+03  0.00000000000E+00 0. -1.
         25    1    1    2    0    0 -0.14873086823E+03  0.20873801866E+03 -0.42458662764E+03  0.51145990651E+03  0.12500000000E+03 0.  0.
         25    1    1    2    0    0  0.14873086823E+03 -0.20873801866E+03 -0.15097324755E+03  0.32266135975E+03  0.12500000000E+03 0.  0.
</event>
<event>
 4    0  0.2202290E-002  0.2030202E+03  0.7546771E-02  0.1147216E+00
         21   -1    0    0  502  501  0.00000000000E+00  0.00000000000E+00  0.13577251855E+04  0.13577251855E+04  0.00000000000E+00 0. -1.
         21   -1    0    0  501  502 -0.00000000000E+00 -0.00000000000E+00 -0.30357553556E+02  0.30357553556E+02  0.00000000000E+00 0. -1.
         25    1    1    2    0    0 -0.11952554384E+02 -0.15300073350E+03  0.81809353782E+03  0.84169716920E+03  0.12500000000E+03 0.  0.
         25    1    1    2    0    0  0.11952554384E+02  0.15300073350E+03  0.50927409413E+03  0.54638556987E+03  0.12500000000E+03 0.  0.
</event>
<event>
 4    0  0.2202290E-002  0.3461858E+03  0.7546771E-02  0.1064192E+00
         21   -1    0    0  502  501  0.00000000000E+00  0.00000000000E+00  0.26544097724E+03  0.26544097724E+03  0.00000000000E+00 0.  1.
         21   -1    0    0  501  502 -0.00000000000E+00 -0.00000000000E+00 -0.45149240011E+03  0.45149240011E+03  0.00000000000E+00 0.  1.
         25    1    1    2    0    0 -0.15490836269E+02  0.14462276395E+03 -0.39145791753E+03  0.43591284801E+03  0.12500000000E+03 0.  0.
         25    1    1    2    0    0  0.15490836269E+02 -0.14462276395E+03  0.20540649466E+03  0.28102052934E+03  0.12500000000E+03 0.  0.
</event>
<event>
 4    0  0.2202290E-002  0.1648966E+03  0.7546771E-02  0.1183277E+00
         21   -1    0    0  502  501  0.00000000000E+00  0.00000000000E+00  0.14729067764E+02  0.14729067764E+02  0.00000000000E+00 0.  1.
         21   -1    0    0  501  502 -0.00000000000E+00 -0.00000000000E+00 -0.18460708039E+04  0.18460708039E+04  0.00000000000E+00 0.  1.
         25    1    1    2    0    0 -0.10000909401E+03  0.18422291313E+02 -0.71821359929E+03  0.73606859321E+03  0.12500000000E+03 0.  0.
         25    1    1    2    0    0  0.10000909401E+03 -0.18422291313E+02 -0.11131281368E+04  0.11247312785E+04  0.12500000000E+03 0.  0.
</event>
<event>
 4    0  0.2202290E-002  0.2066175E+03  0.7546771E-02  0.1144273E+00
         21   -1    0    0  502  501  0.00000000000E+00  0.00000000000E+00  0.63374615235E+02  0.63374615235E+02  0.00000000000E+00 0. -1.
         21   -1    0    0  501  502 -0.00000000000E+00 -0.00000000000E+00 -0.67362599994E+03  0.67362599994E+03  0.00000000000E+00 0. -1.
         25    1    1    2    0    0  0.85950064900E+02  0.11471816250E+03 -0.44911554213E+03  0.48772680944E+03  0.12500000000E+03 0.  0.
         25    1    1    2    0    0 -0.85950064900E+02 -0.11471816250E+03 -0.16113584257E+03  0.24927380573E+03  0.12500000000E+03 0.  0.
</event>
<event>
 4    0  0.2202290E-002  0.2364185E+03  0.7546771E-02  0.1122202E+00
         21   -1    0    0  502  501  0.00000000000E+00  0.00000000000E+00  0.16108459112E+03  0.16108459112E+03  0.00000000000E+00 0.  1.
         21   -1    0    0  501  502 -0.00000000000E+00 -0.00000000000E+00 -0.34698347209E+03  0.34698347209E+03  0.00000000000E+00 0.  1.
         25    1    1    2    0    0 -0.11575358334E+03  0.17216689089E+02  0.82210157967E+02  0.18994424580E+03  0.12500000000E+03 0.  0.
         25    1    1    2    0    0  0.11575358334E+03 -0.17216689089E+02 -0.26810903894E+03  0.31812381740E+03  0.12500000000E+03 0.  0.
</event>
<event>
 4    0  0.2202290E-002  0.2640021E+03  0.7546771E-02  0.1104762E+00
         21   -1    0    0  502  501  0.00000000000E+00  0.00000000000E+00  0.59471467804E+03  0.59471467804E+03  0.00000000000E+00 0.  1.
         21   -1    0    0  501  502 -0.00000000000E+00 -0.00000000000E+00 -0.11719421140E+03  0.11719421140E+03  0.00000000000E+00 0.  1.
         25    1    1    2    0    0 -0.10856333515E+03  0.20152848887E+03  0.29389880987E+03  0.39293923196E+03  0.12500000000E+03 0.  0.
         25    1    1    2    0    0  0.10856333515E+03 -0.20152848887E+03  0.18362165677E+03  0.31896965749E+03  0.12500000000E+03 0.  0.
</event>
<event>
 4    0  0.2202290E-002  0.3561452E+03  0.7546771E-02  0.1060121E+00
         21   -1    0    0  502  501  0.00000000000E+00  0.00000000000E+00  0.20352148550E+03  0.20352148550E+03  0.00000000000E+00 0.  1.
         21   -1    0    0  501  502 -0.00000000000E+00 -0.00000000000E+00 -0.62322380608E+03  0.62322380608E+03  0.00000000000E+00 0.  1.
         25    1    1    2    0    0  0.18374155041E+03 -0.16520225565E+03 -0.46980765660E+03  0.54534115636E+03  0.12500000000E+03 0.  0.
         25    1    1    2    0    0 -0.18374155041E+03  0.16520225565E+03  0.50105336015E+02  0.28140413522E+03  0.12500000000E+03 0.  0.
</event>
<event>
 4    0  0.2202290E-002  0.2133321E+03  0.7546771E-02  0.1138954E+00
         21   -1    0    0  502  501  0.00000000000E+00  0.00000000000E+00  0.90082060044E+02  0.90082060044E+02  0.00000000000E+00 0. -1.
         21   -1    0    0  501  502 -0.00000000000E+00 -0.00000000000E+00 -0.50521238377E+03  0.50521238377E+03  0.00000000000E+00 0. -1.
         25    1    1    2    0    0  0.46619206263E+02  0.37830407077E+01 -0.43976889031E+03  0.45957517196E+03  0.12500000000E+03 0.  0.
         25    1    1    2    0    0 -0.46619206263E+02 -0.37830407077E+01  0.24638566590E+02  0.13571927186E+03  0.12500000000E+03 0.  0.
</event>
<event>
 4    0  0.2202290E-002  0.2612979E+03  0.7546771E-02  0.1106366E+00
         21   -1    0    0  502  501  0.00000000000E+00  0.00000000000E+00  0.67414773388E+02  0.67414773388E+02  0.00000000000E+00 0. -1.
         21   -1    0    0  501  502 -0.00000000000E+00 -0.00000000000E+00 -0.10127835110E+04  0.10127835110E+04  0.00000000000E+00 0. -1.
         25    1    1    2    0    0 -0.21198901655E+03 -0.49990824609E+02 -0.62192516168E+03  0.67071181026E+03  0.12500000000E+03 0.  0.
         25    1    1    2    0    0  0.21198901655E+03  0.49990824609E+02 -0.32344357592E+03  0.40948647412E+03  0.12500000000E+03 0.  0.
</event>
<event>
 4    0  0.2202290E-002  0.2859324E+03  0.7546771E-02  0.1092492E+00
         21   -1    0    0  502  501  0.00000000000E+00  0.00000000000E+00  0.73277184879E+03  0.73277184879E+03  0.00000000000E+00 0. -1.
         21   -1    0    0  501  502 -0.00000000000E+00 -0.00000000000E+00 -0.11157273653E+03  0.11157273653E+03  0.00000000000E+00 0. -1.
         25    1    1    2    0    0  0.18493380033E+02  0.10010670005E+03  0.65927610601E+03  0.67869974249E+03  0.12500000000E+03 0.  0.
         25    1    1    2    0    0 -0.18493380033E+02 -0.10010670005E+03 -0.38076993750E+02  0.16564484282E+03  0.12500000000E+03 0.  0.
</event>
<event>
 4    0  0.2202290E-002  0.1809037E+03  0.7546771E-02  0.1166931E+00
         21   -1    0    0  502  501  0.00000000000E+00  0.00000000000E+00  0.25088623610E+03  0.25088623610E+03  0.00000000000E+00 0.  1.
         21   -1    0    0  501  502 -0.00000000000E+00 -0.00000000000E+00 -0.13044221394E+03  0.13044221394E+03  0.00000000000E+00 0.  1.
         25    1    1    2    0    0 -0.39502915922E+02 -0.86255864931E+02 -0.34637383264E+02  0.16070252929E+03  0.12500000000E+03 0.  0.
         25    1    1    2    0    0  0.39502915922E+02  0.86255864931E+02  0.15508140542E+03  0.22062592075E+03  0.12500000000E+03 0.  0.
</event>
<event>
 4    0  0.2202290E-002  0.2136775E+03  0.7546771E-02  0.1138686E+00
         21   -1    0    0  502  501  0.00000000000E+00  0.00000000000E+00  0.30747114400E+02  0.30747114400E+02  0.00000000000E+00 0.  1.
         21   -1    0    0  501  502 -0.00000000000E+00 -0.00000000000E+00 -0.14849544979E+04  0.14849544979E+04  0.00000000000E+00 0.  1.
         25    1    1    2    0    0 -0.16166088520E+03 -0.44452402020E+02 -0.57158130245E+03  0.60863818740E+03  0.12500000000E+03 0.  0.
         25    1    1    2    0    0  0.16166088520E+03  0.44452402020E+02 -0.88262608107E+03  0.90706342492E+03  0.12500000000E+03 0.  0.
</event>
<event>
 4    0  0.2202290E-002  0.1607015E+03  0.7546771E-02  0.1187907E+00
         21   -1    0    0  502  501  0.00000000000E+00  0.00000000000E+00  0.14794788044E+03  0.14794788044E+03  0.00000000000E+00 0.  1.
         21   -1    0    0  501  502 -0.00000000000E+00 -0.00000000000E+00 -0.17455458914E+03  0.17455458914E+03  0.00000000000E+00 0. -1.
         25    1    1    2    0    0 -0.40370544054E+02 -0.88486726539E+02  0.13998168998E+02  0.15899883753E+03  0.12500000000E+03 0.  0.
         25    1    1    2    0    0  0.40370544054E+02  0.88486726539E+02 -0.40604877690E+02  0.16350363205E+03  0.12500000000E+03 0.  0.
</event>
<event>
 4    0  0.2202290E-002  0.2126749E+03  0.7546771E-02  0.1139465E+00
         21   -1    0    0  502  501  0.00000000000E+00  0.00000000000E+00  0.45652293884E+02  0.45652293884E+02  0.00000000000E+00 0.  1.
         21   -1    0    0  501  502 -0.00000000000E+00 -0.00000000000E+00 -0.99076313516E+03  0.99076313516E+03  0.00000000000E+00 0.  1.
         25    1    1    2    0    0  0.60950708145E+02  0.15514941576E+03 -0.36862626496E+03  0.42343435531E+03  0.12500000000E+03 0.  0.
         25    1    1    2    0    0 -0.60950708145E+02 -0.15514941576E+03 -0.57648457632E+03  0.61298107374E+03  0.12500000000E+03 0.  0.
</event>
<event>
 4    0  0.2202290E-002  0.5086860E+03  0.7546771E-02  0.1011536E+00
         21   -1    0    0  502  501  0.00000000000E+00  0.00000000000E+00  0.14604316349E+04  0.14604316349E+04  0.00000000000E+00 0. -1.
         21   -1    0    0  501  502 -0.00000000000E+00 -0.00000000000E+00 -0.17718150124E+03  0.17718150124E+03  0.00000000000E+00 0. -1.
         25    1    1    2    0    0 -0.23803502759E+03 -0.29023094642E+03  0.11563150802E+04  0.12221228422E+04  0.12500000000E+03 0.  0.
         25    1    1    2    0    0  0.23803502759E+03  0.29023094642E+03  0.12693505348E+03  0.41549029402E+03  0.12500000000E+03 0.  0.
</event>
<event>
 4    0  0.2202290E-002  0.1897749E+03  0.7546771E-02  0.1158665E+00
         21   -1    0    0  502  501  0.00000000000E+00  0.00000000000E+00  0.15954806796E+04  0.15954806796E+04  0.00000000000E+00 0.  1.
         21   -1    0    0  501  502 -0.00000000000E+00 -0.00000000000E+00 -0.22572831545E+02  0.22572831545E+02  0.00000000000E+00 0.  1.
         25    1    1    2    0    0  0.39834993304E+02  0.13575220102E+03  0.86890137172E+03  0.88917381909E+03  0.12500000000E+03 0.  0.
         25    1    1    2    0    0 -0.39834993304E+02 -0.13575220102E+03  0.70400647636E+03  0.72887969208E+03  0.12500000000E+03 0.  0.
</event>
<event>
 4    0  0.2202290E-002  0.1624387E+03  0.7546771E-02  0.1185971E+00
         21   -1    0    0  502  501  0.00000000000E+00  0.00000000000E+00  0.14454904936E+04  0.14454904936E+04  0.00000000000E+00 0.  1.
         21   -1    0    0  501  502 -0.00000000000E+00 -0.00000000000E+00 -0.18254236597E+02  0.18254236597E+02  0.00000000000E+00 0.  1.
         25    1    1    2    0    0 -0.63031351865E+02  0.30949596889E+02  0.36958626754E+03  0.39642128856E+03  0.12500000000E+03 0.  0.
         25    1    1    2    0    0  0.63031351865E+02 -0.30949596889E+02  0.10576499894E+04  0.10673234416E+04  0.12500000000E+03 0.  0.
</event>
<event>
 4    0  0.2202290E-002  0.1921373E+03  0.7546771E-02  0.1156548E+00
         21   -1    0    0  502  501  0.00000000000E+00  0.00000000000E+00  0.36425955935E+03  0.36425955935E+03  0.00000000000E+00 0.  1.
         21   -1    0    0  501  502 -0.00000000000E+00 -0.00000000000E+00 -0.10134735461E+03  0.10134735461E+03  0.00000000000E+00 0.  1.
         25    1    1    2    0    0 -0.62205472255E+02  0.44994403192E+02  0.28180700022E+03  0.31770143606E+03  0.12500000000E+03 0.  0.
         25    1    1    2    0    0  0.62205472255E+02 -0.44994403192E+02 -0.18894795484E+02  0.14790547790E+03  0.12500000000E+03 0.  0.
</event>
<event>
 4    0  0.2202290E-002  0.1840589E+03  0.7546771E-02  0.1163932E+00
         21   -1    0    0  502  501  0.00000000000E+00  0.00000000000E+00  0.64080566939E+02  0.64080566939E+02  0.00000000000E+00 0.  1.
         21   -1    0    0  501  502 -0.00000000000E+00 -0.00000000000E+00 -0.52867331670E+03  0.52867331670E+03  0.00000000000E+00 0.  1.
         25    1    1    2    0    0 -0.10236112745E+03 -0.16177730763E+02 -0.92724134400E+02  0.18698204322E+03  0.12500000000E+03 0.  0.
         25    1    1    2    0    0  0.10236112745E+03  0.16177730763E+02 -0.37186861536E+03  0.40577184042E+03  0.12500000000E+03 0.  0.
</event>
<event>
 4    0  0.2202290E-002  0.2130409E+03  0.7546771E-02  0.1139180E+00
         21   -1    0    0  502  501  0.00000000000E+00  0.00000000000E+00  0.27522610080E+03  0.27522610080E+03  0.00000000000E+00 0. -1.
         21   -1    0    0  501  502 -0.00000000000E+00 -0.00000000000E+00 -0.16490589227E+03  0.16490589227E+03  0.00000000000E+00 0. -1.
         25    1    1    2    0    0 -0.55890345246E+01  0.15497991468E+03 -0.22905751618E+02  0.20049859032E+03  0.12500000000E+03 0.  0.
         25    1    1    2    0    0  0.55890345246E+01 -0.15497991468E+03  0.13322596014E+03  0.23963340276E+03  0.12500000000E+03 0.  0.
</event>
<event>
 4    0  0.2202290E-002  0.3220617E+03  0.7546771E-02  0.1074704E+00
         21   -1    0    0  502  501  0.00000000000E+00  0.00000000000E+00  0.81722315828E+03  0.81722315828E+03  0.00000000000E+00 0.  1.
         21   -1    0    0  501  502 -0.00000000000E+00 -0.00000000000E+00 -0.12692218643E+03  0.12692218643E+03  0.00000000000E+00 0.  1.
         25    1    1    2    0    0  0.22807507643E+03  0.26899649356E+02  0.62076809356E+03  0.67358730511E+03  0.12500000000E+03 0.  0.
         25    1    1    2    0    0 -0.22807507643E+03 -0.26899649356E+02  0.69532878289E+02  0.27055803959E+03  0.12500000000E+03 0.  0.
</event>
<event>
 4    0  0.2202290E-002  0.2042695E+03  0.7546771E-02  0.1146186E+00
         21   -1    0    0  502  501  0.00000000000E+00  0.00000000000E+00  0.13598694891E+04  0.13598694891E+04  0.00000000000E+00 0. -1.
         21   -1    0    0  501  502 -0.00000000000E+00 -0.00000000000E+00 -0.30683859356E+02  0.30683859356E+02  0.00000000000E+00 0. -1.
         25    1    1    2    0    0  0.42713638989E+02 -0.15576820122E+03  0.65238835773E+03  0.68361082259E+03  0.12500000000E+03 0.  0.
         25    1    1    2    0    0 -0.42713638989E+02  0.15576820122E+03  0.67679727206E+03  0.70694252591E+03  0.12500000000E+03 0.  0.
</event>
<event>
 4    0  0.2202290E-002  0.2482346E+03  0.7546771E-02  0.1114426E+00
         21   -1    0    0  502  501  0.00000000000E+00  0.00000000000E+00  0.15737658268E+03  0.15737658268E+03  0.00000000000E+00 0.  1.
         21   -1    0    0  501  502 -0.00000000000E+00 -0.00000000000E+00 -0.39154758378E+03  0.39154758378E+03  0.00000000000E+00 0.  1.
         25    1    1    2    0    0 -0.17631174667E+03 -0.12190083288E+03 -0.12488610690E+03  0.27778982121E+03  0.12500000000E+03 0.  0.
         25    1    1    2    0    0  0.17631174667E+03  0.12190083288E+03 -0.10928489420E+03  0.27113434525E+03  0.12500000000E+03 0.  0.
</event>
<event>
 4    0  0.2202290E-002  0.1737957E+03  0.7546771E-02  0.1173946E+00
         21   -1    0    0  502  501  0.00000000000E+00  0.00000000000E+00  0.91563344145E+03  0.91563344145E+03  0.00000000000E+00 0.  1.
         21   -1    0    0  501  502 -0.00000000000E+00 -0.00000000000E+00 -0.32988047840E+02  0.32988047840E+02  0.00000000000E+00 0.  1.
         25    1    1    2    0    0 -0.23402296226E+01  0.87811024949E+02  0.21522132368E+03  0.26393459596E+03  0.12500000000E+03 0.  0.
         25    1    1    2    0    0  0.23402296226E+01 -0.87811024949E+02  0.66742406993E+03  0.68468689333E+03  0.12500000000E+03 0.  0.
</event>
<event>
 4    0  0.2202290E-002  0.2081628E+03  0.7546771E-02  0.1143029E+00
         21   -1    0    0  502  501  0.00000000000E+00  0.00000000000E+00  0.13572420254E+04  0.13572420254E+04  0.00000000000E+00 0.  1.
         21   -1    0    0  501  502 -0.00000000000E+00 -0.00000000000E+00 -0.31926314692E+02  0.31926314692E+02  0.00000000000E+00 0.  1.
         25    1    1    2    0    0  0.17844341236E+02 -0.16116063915E+03  0.78819914181E+03  0.81435499585E+03  0.12500000000E+03 0.  0.
         25    1    1    2    0    0 -0.17844341236E+02  0.16116063915E+03  0.53711656889E+03  0.57481334423E+03  0.12500000000E+03 0.  0.
</event>
<event>
 4    0  0.2202290E-002  0.3214930E+03  0.7546771E-02  0.1074964E+00
         21   -1    0    0  502  501  0.00000000000E+00  0.00000000000E+00  0.19716915818E+04  0.19716915818E+04  0.00000000000E+00 0.  1.
         21   -1    0    0  501  502 -0.00000000000E+00 -0.00000000000E+00 -0.52420861496E+02  0.52420861496E+02  0.00000000000E+00 0.  1.
         25    1    1    2    0    0  0.16592335036E+03 -0.22716573564E+02  0.19055817473E+03  0.28281446014E+03  0.12500000000E+03 0.  0.
         25    1    1    2    0    0 -0.16592335036E+03  0.22716573564E+02  0.17287125456E+04  0.17412979832E+04  0.12500000000E+03 0.  0.
</event>
<event>
 4    0  0.2202290E-002  0.2009932E+03  0.7546771E-02  0.1148904E+00
         21   -1    0    0  502  501  0.00000000000E+00  0.00000000000E+00  0.11517158224E+03  0.11517158224E+03  0.00000000000E+00 0. -1.
         21   -1    0    0  501  502 -0.00000000000E+00 -0.00000000000E+00 -0.35076585944E+03  0.35076585944E+03  0.00000000000E+00 0. -1.
         25    1    1    2    0    0 -0.53955472793E+02 -0.14785634615E+03 -0.11866983695E+03  0.23340998767E+03  0.12500000000E+03 0.  0.
         25    1    1    2    0    0  0.53955472793E+02  0.14785634615E+03 -0.11692444025E+03  0.23252745401E+03  0.12500000000E+03 0.  0.
</event>
<event>
 4    0  0.2202290E-002  0.2340300E+03  0.7546771E-02  0.1123835E+00
         21   -1    0    0  502  501  0.00000000000E+00  0.00000000000E+00  0.51374597127E+02  0.51374597127E+02  0.00000000000E+00 0. -1.
         21   -1    0    0  501  502 -0.00000000000E+00 -0.00000000000E+00 -0.10660920328E+04  0.10660920328E+04  0.00000000000E+00 0. -1.
         25    1    1    2    0    0 -0.43618221025E+01  0.12104793892E+03 -0.13386755310E+03  0.21958404036E+03  0.12500000000E+03 0.  0.
         25    1    1    2    0    0  0.43618221025E+01 -0.12104793892E+03 -0.88084988256E+03  0.89788258955E+03  0.12500000000E+03 0.  0.
</event>
<event>
 4    0  0.2202290E-002  0.1786919E+03  0.7546771E-02  0.1169075E+00
         21   -1    0    0  502  501  0.00000000000E+00  0.00000000000E+00  0.18331782772E+03  0.18331782772E+03  0.00000000000E+00 0.  1.
         21   -1    0    0  501  502 -0.00000000000E+00 -0.00000000000E+00 -0.17418264638E+03  0.17418264638E+03  0.00000000000E+00 0.  1.
         25    1    1    2    0    0  0.11367281860E+03  0.46044734997E+02  0.40134190531E+02  0.17965906756E+03  0.12500000000E+03 0.  0.
         25    1    1    2    0    0 -0.11367281860E+03 -0.46044734997E+02 -0.30999009188E+02  0.17784140654E+03  0.12500000000E+03 0.  0.
</event>
<event>
 4    0  0.2202290E-002  0.3077884E+03  0.7546771E-02  0.1081411E+00
         21   -1    0    0  502  501  0.00000000000E+00  0.00000000000E+00  0.12311194671E+04  0.12311194671E+04  0.00000000000E+00 0. -1.
         21   -1    0    0  501  502 -0.00000000000E+00 -0.00000000000E+00 -0.76949258009E+02  0.76949258009E+02  0.00000000000E+00 0. -1.
         25    1    1    2    0    0 -0.18883602353E+03  0.16841354622E+03  0.83808684710E+03  0.88432840598E+03  0.12500000000E+03 0.  0.
         25    1    1    2    0    0  0.18883602353E+03 -0.16841354622E+03  0.31608336201E+03  0.42374031915E+03  0.12500000000E+03 0.  0.
</event>
<event>
 4    0  0.2202290E-002  0.1757592E+03  0.7546771E-02  0.1171972E+00
         21   -1    0    0  502  501  0.00000000000E+00  0.00000000000E+00  0.14135179076E+03  0.14135179076E+03  0.00000000000E+00 0. -1.
         21   -1    0    0  501  502 -0.00000000000E+00 -0.00000000000E+00 -0.21854204611E+03  0.21854204611E+03  0.00000000000E+00 0. -1.
         25    1    1    2    0    0 -0.32825538678E+02  0.23293107279E+02 -0.15819549504E+03  0.20559888007E+03  0.12500000000E+03 0.  0.
         25    1    1    2    0    0  0.32825538678E+02 -0.23293107279E+02  0.81005239691E+02  0.15429495680E+03  0.12500000000E+03 0.  0.
</event>
<event>
 4    0  0.2202290E-002  0.3321490E+03  0.7546771E-02  0.1070190E+00
         21   -1    0    0  502  501  0.00000000000E+00  0.00000000000E+00  0.73433094734E+03  0.73433094734E+03  0.00000000000E+00 0. -1.
         21   -1    0    0  501  502 -0.00000000000E+00 -0.00000000000E+00 -0.15023597683E+03  0.15023597683E+03  0.00000000000E+00 0. -1.
         25    1    1    2    0    0 -0.19072439387E+03 -0.18903446074E+03  0.49217542076E+03  0.57443142895E+03  0.12500000000E+03 0.  0.
         25    1    1    2    0    0  0.19072439387E+03  0.18903446074E+03  0.91919549753E+02  0.31013549521E+03  0.12500000000E+03 0.  0.
</event>
<event>
 4    0  0.2202290E-002  0.2204651E+03  0.7546771E-02  0.1133537E+00
         21   -1    0    0  502  501  0.00000000000E+00  0.00000000000E+00  0.29475504406E+02  0.29475504406E+02  0.00000000000E+00 0.  1.
         21   -1    0    0  501  502 -0.00000000000E+00 -0.00000000000E+00 -0.16489910688E+04  0.16489910688E+04  0.00000000000E+00 0.  1.
         25    1    1    2    0    0  0.17505024155E+03 -0.47306108193E+02 -0.84770772798E+03  0.87585035652E+03  0.12500000000E+03 0.  0.
         25    1    1    2    0    0 -0.17505024155E+03  0.47306108193E+02 -0.77180783646E+03  0.80261621673E+03  0.12500000000E+03 0.  0.
</event>
<event>
 4    0  0.2202290E-002  0.1997677E+03  0.7546771E-02  0.1149935E+00
         21   -1    0    0  502  501  0.00000000000E+00  0.00000000000E+00  0.37907191067E+02  0.37907191067E+02  0.00000000000E+00 0.  1.
         21   -1    0    0  501  502 -0.00000000000E+00 -0.00000000000E+00 -0.10527592921E+04  0.10527592921E+04  0.00000000000E+00 0.  1.
         25    1    1    2    0    0 -0.62237045837E+02 -0.75880464622E+02 -0.83784738501E+03  0.85278633628E+03  0.12500000000E+03 0.  0.
         25    1    1    2    0    0  0.62237045837E+02  0.75880464622E+02 -0.17700471602E+03  0.23788014688E+03  0.12500000000E+03 0.  0.
</event>
<event>
 4    0  0.2202290E-002  0.2301608E+03  0.7546771E-02  0.1126527E+00
         21   -1    0    0  502  501  0.00000000000E+00  0.00000000000E+00  0.13964668138E+04  0.13964668138E+04  0.00000000000E+00 0. -1.
         21   -1    0    0  501  502 -0.00000000000E+00 -0.00000000000E+00 -0.37934287542E+02  0.37934287542E+02  0.00000000000E+00 0. -1.
         25    1    1    2    0    0  0.23592550608E+02 -0.18867070137E+03  0.57151404912E+03  0.61514758419E+03  0.12500000000E+03 0.  0.
         25    1    1    2    0    0 -0.23592550608E+02  0.18867070137E+03  0.78701847716E+03  0.81925351717E+03  0.12500000000E+03 0.  0.
</event>
<event>
 4    0  0.2202290E-002  0.2932208E+03  0.7546771E-02  0.1088679E+00
         21   -1    0    0  502  501  0.00000000000E+00  0.00000000000E+00  0.10773681798E+03  0.10773681798E+03  0.00000000000E+00 0. -1.
         21   -1    0    0  501  502 -0.00000000000E+00 -0.00000000000E+00 -0.79804123510E+03  0.79804123510E+03  0.00000000000E+00 0. -1.
         25    1    1    2    0    0  0.22897998716E+03 -0.47418287616E+02 -0.53851568223E+03  0.60025367015E+03  0.12500000000E+03 0.  0.
         25    1    1    2    0    0 -0.22897998716E+03  0.47418287616E+02 -0.15178873489E+03  0.30552438293E+03  0.12500000000E+03 0.  0.
</event>
<event>
 4    0  0.2202290E-002  0.2232364E+03  0.7546771E-02  0.1131493E+00
         21   -1    0    0  502  501  0.00000000000E+00  0.00000000000E+00  0.89989796220E+02  0.89989796220E+02  0.00000000000E+00 0.  1.
         21   -1    0    0  501  502 -0.00000000000E+00 -0.00000000000E+00 -0.55377937934E+03  0.55377937934E+03  0.00000000000E+00 0.  1.
         25    1    1    2    0    0 -0.89246746244E+02 -0.62276054082E+02 -0.16253806188E+02  0.16653070240E+03  0.12500000000E+03 0.  0.
         25    1    1    2    0    0  0.89246746244E+02  0.62276054082E+02 -0.44753577693E+03  0.47723847316E+03  0.12500000000E+03 0.  0.
</event>
<event>
 4    0  0.2202290E-002  0.1950682E+03  0.7546771E-02  0.1153968E+00
         21   -1    0    0  502  501  0.00000000000E+00  0.00000000000E+00  0.38599863455E+03  0.38599863455E+03  0.00000000000E+00 0. -1.
         21   -1    0    0  501  502 -0.00000000000E+00 -0.00000000000E+00 -0.98579630406E+02  0.98579630406E+02  0.00000000000E+00 0.  1.
         25    1    1    2    0    0  0.11679546053E+03 -0.93173202050E+02  0.13103197551E+03  0.23476968242E+03  0.12500000000E+03 0.  0.
         25    1    1    2    0    0 -0.11679546053E+03  0.93173202050E+02  0.15638702863E+03  0.24980858253E+03  0.12500000000E+03 0.  0.
</event>
<event>
 4    0  0.2202290E-002  0.3305645E+03  0.7546771E-02  0.1070887E+00
         21   -1    0    0  502  501  0.00000000000E+00  0.00000000000E+00  0.44696715411E+03  0.44696715411E+03  0.00000000000E+00 0. -1.
         21   -1    0    0  501  502 -0.00000000000E+00 -0.00000000000E+00 -0.24447627646E+03  0.24447627646E+03  0.00000000000E+00 0. -1.
         25    1    1    2    0    0  0.25930531769E+03 -0.22108806621E+02 -0.67132996889E+02  0.29641168396E+03  0.12500000000E+03 0.  0.
         25    1    1    2    0    0 -0.25930531769E+03  0.22108806621E+02  0.26962387454E+03  0.39503174662E+03  0.12500000000E+03 0.  0.
</event>
<event>
 4    0  0.2202290E-002  0.2206400E+03  0.7546771E-02  0.1133407E+00
         21   -1    0    0  502  501  0.00000000000E+00  0.00000000000E+00  0.69853525444E+03  0.69853525444E+03  0.00000000000E+00 0.  1.
         21   -1    0    0  501  502 -0.00000000000E+00 -0.00000000000E+00 -0.69691579621E+02  0.69691579621E+02  0.00000000000E+00 0.  1.
         25    1    1    2    0    0 -0.11770496280E+03 -0.23769452697E+02  0.55208940451E+03  0.57865979272E+03  0.12500000000E+03 0.  0.
         25    1    1    2    0    0  0.11770496280E+03  0.23769452697E+02  0.76754270312E+02  0.18956704133E+03  0.12500000000E+03 0.  0.
</event>
<event>
 4    0  0.2202290E-002  0.2425725E+03  0.7546771E-02  0.1118091E+00
         21   -1    0    0  502  501  0.00000000000E+00  0.00000000000E+00  0.39465129135E+03  0.39465129135E+03  0.00000000000E+00 0. -1.
         21   -1    0    0  501  502 -0.00000000000E+00 -0.00000000000E+00 -0.14909725398E+03  0.14909725398E+03  0.00000000000E+00 0. -1.
         25    1    1    2    0    0  0.86496298928E+02 -0.15487943321E+03  0.24425379268E+03  0.32673255699E+03  0.12500000000E+03 0.  0.
         25    1    1    2    0    0 -0.86496298928E+02  0.15487943321E+03  0.13002446872E+01  0.21701598834E+03  0.12500000000E+03 0.  0.
</event>
<event>
 4    0  0.2202290E-002  0.3049868E+03  0.7546771E-02  0.1082774E+00
         21   -1    0    0  502  501  0.00000000000E+00  0.00000000000E+00  0.14723896826E+03  0.14723896826E+03  0.00000000000E+00 0.  1.
         21   -1    0    0  501  502 -0.00000000000E+00 -0.00000000000E+00 -0.63174153898E+03  0.63174153898E+03  0.00000000000E+00 0.  1.
         25    1    1    2    0    0  0.16987100722E+03  0.18337626333E+03 -0.86317881125E+02  0.29250434125E+03  0.12500000000E+03 0.  0.
         25    1    1    2    0    0 -0.16987100722E+03 -0.18337626333E+03 -0.39818468960E+03  0.48647616599E+03  0.12500000000E+03 0.  0.
</event>
<event>
 4    0  0.2202290E-002  0.1758370E+03  0.7546771E-02  0.1171894E+00
         21   -1    0    0  502  501  0.00000000000E+00  0.00000000000E+00  0.56978739938E+03  0.56978739938E+03  0.00000000000E+00 0. -1.
         21   -1    0    0  501  502 -0.00000000000E+00 -0.00000000000E+00 -0.54263489729E+02  0.54263489729E+02  0.00000000000E+00 0. -1.
         25    1    1    2    0    0  0.32555681715E+02  0.10905985637E+03  0.34359656069E+03  0.38293278941E+03  0.12500000000E+03 0.  0.
         25    1    1    2    0    0 -0.32555681715E+02 -0.10905985637E+03  0.17192734896E+03  0.24111809970E+03  0.12500000000E+03 0.  0.
</event>
<event>
 4    0  0.2202290E-002  0.2861412E+03  0.7546771E-02  0.1092381E+00
         21   -1    0    0  502  501  0.00000000000E+00  0.00000000000E+00  0.42072779246E+03  0.42072779246E+03  0.00000000000E+00 0. -1.
         21   -1    0    0  501  502 -0.00000000000E+00 -0.00000000000E+00 -0.19460754249E+03  0.19460754249E+03  0.00000000000E+00 0. -1.
         25    1    1    2    0    0  0.23580793307E+03  0.79147317814E+02  0.18423778112E+03  0.33382366484E+03  0.12500000000E+03 0.  0.
         25    1    1    2    0    0 -0.23580793307E+03 -0.79147317814E+02  0.41882468844E+02  0.28151167011E+03  0.12500000000E+03 0.  0.
</event>
<event>
 4    0  0.2202290E-002  0.2027972E+03  0.7546771E-02  0.1147400E+00
         21   -1    0    0  502  501  0.00000000000E+00  0.00000000000E+00  0.63175639868E+02  0.63175639868E+02  0.00000000000E+00 0. -1.
         21   -1    0    0  501  502 -0.00000000000E+00 -0.00000000000E+00 -0.65098984389E+03  0.65098984389E+03  0.00000000000E+00 0. -1.
         25    1    1    2    0    0 -0.68342601007E+02  0.11673880564E+03 -0.44334640915E+03  0.48008301194E+03  0.12500000000E+03 0.  0.
         25    1    1    2    0    0  0.68342601007E+02 -0.11673880564E+03 -0.14446779488E+03  0.23408247182E+03  0.12500000000E+03 0.  0.
</event>
<event>
 4    0  0.2202290E-002  0.4974214E+03  0.7546771E-02  0.1014454E+00
         21   -1    0    0  502  501  0.00000000000E+00  0.00000000000E+00  0.48586569218E+03  0.48586569218E+03  0.00000000000E+00 0.  1.
         21   -1    0    0  501  502 -0.00000000000E+00 -0.00000000000E+00 -0.50925188837E+03  0.50925188837E+03  0.00000000000E+00 0. -1.
         25    1    1    2    0    0 -0.42317634364E+03 -0.72096933858E+02  0.20637363215E+03  0.49243401765E+03  0.12500000000E+03 0.  0.
         25    1    1    2    0    0  0.42317634364E+03  0.72096933858E+02 -0.22975982835E+03  0.50268356290E+03  0.12500000000E+03 0.  0.
</event>
<event>
 4    0  0.2202290E-002  0.2664972E+03  0.7546771E-02  0.1103301E+00
         21   -1    0    0  502  501  0.00000000000E+00  0.00000000000E+00  0.62101516578E+02  0.62101516578E+02  0.00000000000E+00 0.  1.
         21   -1    0    0  501  502 -0.00000000000E+00 -0.00000000000E+00 -0.11436234766E+04  0.11436234766E+04  0.00000000000E+00 0.  1.
         25    1    1    2    0    0 -0.20784973003E+03 -0.70796280854E+02 -0.34904768870E+03  0.43089779837E+03  0.12500000000E+03 0.  0.
         25    1    1    2    0    0  0.20784973003E+03  0.70796280854E+02 -0.73247427131E+03  0.77482719479E+03  0.12500000000E+03 0.  0.
</event>
<event>
 4    0  0.2202290E-002  0.1923716E+03  0.7546771E-02  0.1156340E+00
         21   -1    0    0  502  501  0.00000000000E+00  0.00000000000E+00  0.79200889377E+02  0.79200889377E+02  0.00000000000E+00 0. -1.
         21   -1    0    0  501  502 -0.00000000000E+00 -0.00000000000E+00 -0.46725261097E+03  0.46725261097E+03  0.00000000000E+00 0. -1.
         25    1    1    2    0    0  0.65756458631E+02 -0.29435179987E+02 -0.37475392709E+03  0.40156674108E+03  0.12500000000E+03 0.  0.
         25    1    1    2    0    0 -0.65756458631E+02  0.29435179987E+02 -0.13297794505E+02  0.14488675927E+03  0.12500000000E+03 0.  0.
</event>
<event>
 4    0  0.2202290E-002  0.1952428E+03  0.7546771E-02  0.1153816E+00
         21   -1    0    0  502  501  0.00000000000E+00  0.00000000000E+00  0.25586877080E+03  0.25586877080E+03  0.00000000000E+00 0.  1.
         21   -1    0    0  501  502 -0.00000000000E+00 -0.00000000000E+00 -0.14898165416E+03  0.14898165416E+03  0.00000000000E+00 0.  1.
         25    1    1    2    0    0  0.15670642459E+02  0.74066426068E+02 -0.80792734451E+02  0.16698464135E+03  0.12500000000E+03 0.  0.
         25    1    1    2    0    0 -0.15670642459E+02 -0.74066426068E+02  0.18767985110E+03  0.23786578361E+03  0.12500000000E+03 0.  0.
</event>
<event>
 4    0  0.2202290E-002  0.1881448E+03  0.7546771E-02  0.1160145E+00
         21   -1    0    0  502  501  0.00000000000E+00  0.00000000000E+00  0.62211077222E+02  0.62211077222E+02  0.00000000000E+00 0.  1.
         21   -1    0    0  501  502 -0.00000000000E+00 -0.00000000000E+00 -0.56900606455E+03  0.56900606455E+03  0.00000000000E+00 0.  1.
         25    1    1    2    0    0 -0.49508067127E+00 -0.11440142776E+03 -0.11623827567E+03  0.20548544598E+03  0.12500000000E+03 0.  0.
         25    1    1    2    0    0  0.49508067127E+00  0.11440142776E+03 -0.39055671166E+03  0.42573169579E+03  0.12500000000E+03 0.  0.
</event>
<event>
 4    0  0.2202290E-002  0.2437539E+03  0.7546771E-02  0.1117317E+00
         21   -1    0    0  502  501  0.00000000000E+00  0.00000000000E+00  0.12910879910E+04  0.12910879910E+04  0.00000000000E+00 0. -1.
         21   -1    0    0  501  502 -0.00000000000E+00 -0.00000000000E+00 -0.46020076413E+02  0.46020076413E+02  0.00000000000E+00 0. -1.
         25    1    1    2    0    0 -0.15612708305E+03 -0.70466237885E+02  0.29283618540E+03  0.36155108660E+03  0.12500000000E+03 0.  0.
         25    1    1    2    0    0  0.15612708305E+03  0.70466237885E+02  0.95223172916E+03  0.97555698079E+03  0.12500000000E+03 0.  0.
</event>
<event>
 4    0  0.2202290E-002  0.2325234E+03  0.7546771E-02  0.1124876E+00
         21   -1    0    0  502  501  0.00000000000E+00  0.00000000000E+00  0.10170466840E+03  0.10170466840E+03  0.00000000000E+00 0.  1.
         21   -1    0    0  501  502 -0.00000000000E+00 -0.00000000000E+00 -0.53160934671E+03  0.53160934671E+03  0.00000000000E+00 0.  1.
         25    1    1    2    0    0  0.49700350296E+02 -0.10435473826E+03  0.72496286634E+00  0.17025146633E+03  0.12500000000E+03 0.  0.
         25    1    1    2    0    0 -0.49700350296E+02  0.10435473826E+03 -0.43062964118E+03  0.46306254878E+03  0.12500000000E+03 0.  0.
</event>
<event>
 4    0  0.2202290E-002  0.1890698E+03  0.7546771E-02  0.1159303E+00
         21   -1    0    0  502  501  0.00000000000E+00  0.00000000000E+00  0.17058258075E+03  0.17058258075E+03  0.00000000000E+00 0. -1.
         21   -1    0    0  501  502 -0.00000000000E+00 -0.00000000000E+00 -0.20956051534E+03  0.20956051534E+03  0.00000000000E+00 0. -1.
         25    1    1    2    0    0 -0.11617127370E+02 -0.11248974965E+03 -0.10557840374E+03  0.19889871986E+03  0.12500000000E+03 0.  0.
         25    1    1    2    0    0  0.11617127370E+02  0.11248974965E+03  0.66600469145E+02  0.18124437623E+03  0.12500000000E+03 0.  0.
</event>
<event>
 4    0  0.2202290E-002  0.3295885E+03  0.7546771E-02  0.1071319E+00
         21   -1    0    0  502  501  0.00000000000E+00  0.00000000000E+00  0.51746310234E+03  0.51746310234E+03  0.00000000000E+00 0. -1.
         21   -1    0    0  501  502 -0.00000000000E+00 -0.00000000000E+00 -0.20992524752E+03  0.20992524752E+03  0.00000000000E+00 0. -1.
         25    1    1    2    0    0  0.22672209609E+03  0.10587962714E+03 -0.38598194453E+02  0.28236186873E+03  0.12500000000E+03 0.  0.
         25    1    1    2    0    0 -0.22672209609E+03 -0.10587962714E+03  0.34613604928E+03  0.44502648113E+03  0.12500000000E+03 0.  0.
</event>
<event>
 4    0  0.2202290E-002  0.3018827E+03  0.7546771E-02  0.1084303E+00
         21   -1    0    0  502  501  0.00000000000E+00  0.00000000000E+00  0.69233201406E+03  0.69233201406E+03  0.00000000000E+00 0.  1.
         21   -1    0    0  501  502 -0.00000000000E+00 -0.00000000000E+00 -0.13163216461E+03  0.13163216461E+03  0.00000000000E+00 0. -1.
         25    1    1    2    0    0  0.23757802789E+03  0.10637991185E+03  0.16022328916E+03  0.33023704724E+03  0.12500000000E+03 0.  0.
         25    1    1    2    0    0 -0.23757802789E+03 -0.10637991185E+03  0.40047656029E+03  0.49372713144E+03  0.12500000000E+03 0.  0.
</event>
<event>
 4    0  0.2202290E-002  0.2979337E+03  0.7546771E-02  0.1086278E+00
         21   -1    0    0  502  501  0.00000000000E+00  0.00000000000E+00  0.51059736340E+03  0.51059736340E+03  0.00000000000E+00 0.  1.
         21   -1    0    0  501  502 -0.00000000000E+00 -0.00000000000E+00 -0.17384440840E+03  0.17384440840E+03  0.00000000000E+00 0.  1.
         25    1    1    2    0    0  0.93425178851E+00 -0.24939264639E+03  0.28852926847E+03  0.40133739380E+03  0.12500000000E+03 0.  0.
         25    1    1    2    0    0 -0.93425178851E+00  0.24939264639E+03  0.48223686528E+02  0.28310437800E+03  0.12500000000E+03 0.  0.
</event>
<event>
 4    0  0.2202290E-002  0.1972481E+03  0.7546771E-02  0.1152082E+00
         21   -1    0    0  502  501  0.00000000000E+00  0.00000000000E+00  0.18157886603E+04  0.18157886603E+04  0.00000000000E+00 0.  1.
         21   -1    0    0  501  502 -0.00000000000E+00 -0.00000000000E+00 -0.21426954923E+02  0.21426954923E+02  0.00000000000E+00 0. -1.
         25    1    1    2    0    0 -0.46317293002E+02 -0.14493231518E+03  0.84384634550E+03  0.86651735264E+03  0.12500000000E+03 0.  0.
         25    1    1    2    0    0  0.46317293002E+02  0.14493231518E+03  0.95051535987E+03  0.97069826257E+03  0.12500000000E+03 0.  0.
</event>
<event>
 4    0  0.2202290E-002  0.2762218E+03  0.7546771E-02  0.1097771E+00
         21   -1    0    0  502  501  0.00000000000E+00  0.00000000000E+00  0.11009773800E+04  0.11009773800E+04  0.00000000000E+00 0.  1.
         21   -1    0    0  501  502 -0.00000000000E+00 -0.00000000000E+00 -0.69300695220E+02  0.69300695220E+02  0.00000000000E+00 0.  1.
         25    1    1    2    0    0 -0.47342257369E+02  0.21207267450E+02  0.57453010405E+01  0.13545865055E+03  0.12500000000E+03 0.  0.
         25    1    1    2    0    0  0.47342257369E+02 -0.21207267450E+02  0.10259313837E+04  0.10348194246E+04  0.12500000000E+03 0.  0.
</event>
<event>
 4    0  0.2202290E-002  0.2380447E+03  0.7546771E-02  0.1121102E+00
         21   -1    0    0  502  501  0.00000000000E+00  0.00000000000E+00  0.12252193058E+03  0.12252193058E+03  0.00000000000E+00 0. -1.
         21   -1    0    0  501  502 -0.00000000000E+00 -0.00000000000E+00 -0.46249072673E+03  0.46249072673E+03  0.00000000000E+00 0. -1.
         25    1    1    2    0    0 -0.12488668360E+03 -0.93462949405E+02 -0.11150819879E+02  0.20020326530E+03  0.12500000000E+03 0.  0.
         25    1    1    2    0    0  0.12488668360E+03  0.93462949405E+02 -0.32881797627E+03  0.38480939200E+03  0.12500000000E+03 0.  0.
</event>
<event>
 4    0  0.2202290E-002  0.2351203E+03  0.7546771E-02  0.1123087E+00
         21   -1    0    0  502  501  0.00000000000E+00  0.00000000000E+00  0.62123717515E+02  0.62123717515E+02  0.00000000000E+00 0. -1.
         21   -1    0    0  501  502 -0.00000000000E+00 -0.00000000000E+00 -0.88986199395E+03  0.88986199395E+03  0.00000000000E+00 0. -1.
         25    1    1    2    0    0  0.89651437255E+02 -0.17474681258E+03 -0.48048317384E+03  0.53391282907E+03  0.12500000000E+03 0.  0.
         25    1    1    2    0    0 -0.89651437255E+02  0.17474681258E+03 -0.34725510259E+03  0.41807288239E+03  0.12500000000E+03 0.  0.
</event>
<event>
 4    0  0.2202290E-002  0.2269435E+03  0.7546771E-02  0.1128810E+00
         21   -1    0    0  502  501  0.00000000000E+00  0.00000000000E+00  0.10563053138E+03  0.10563053138E+03  0.00000000000E+00 0. -1.
         21   -1    0    0  501  502 -0.00000000000E+00 -0.00000000000E+00 -0.48758030058E+03  0.48758030058E+03  0.00000000000E+00 0. -1.
         25    1    1    2    0    0 -0.36250675945E+01  0.18433416225E+03 -0.24773567490E+03  0.33315190095E+03  0.12500000000E+03 0.  0.
         25    1    1    2    0    0  0.36250675945E+01 -0.18433416225E+03 -0.13421409431E+03  0.26005893101E+03  0.12500000000E+03 0.  0.
</event>
<event>
 4    0  0.2202290E-002  0.1827106E+03  0.7546771E-02  0.1165205E+00
         21   -1    0    0  502  501  0.00000000000E+00  0.00000000000E+00  0.13586624230E+03  0.13586624230E+03  0.00000000000E+00 0.  1.
         21   -1    0    0  501  502 -0.00000000000E+00 -0.00000000000E+00 -0.24570614554E+03  0.24570614554E+03  0.00000000000E+00 0.  1.
         25    1    1    2    0    0 -0.78325829857E+02 -0.60700698152E+02 -0.14795717967E+03  0.21756800637E+03  0.12500000000E+03 0.  0.
         25    1    1    2    0    0  0.78325829857E+02  0.60700698152E+02  0.38117276430E+02  0.16400438147E+03  0.12500000000E+03 0.  0.
</event>
<event>
 4    0  0.2202290E-002  0.2977091E+03  0.7546771E-02  0.1086391E+00
         21   -1    0    0  502  501  0.00000000000E+00  0.00000000000E+00  0.41141859325E+03  0.41141859325E+03  0.00000000000E+00 0. -1.
         21   -1    0    0  501  502 -0.00000000000E+00 -0.00000000000E+00 -0.21542714771E+03  0.21542714771E+03  0.00000000000E+00 0. -1.
         25    1    1    2    0    0  0.68204343058E+01  0.22812087122E+02  0.38134636902E+03  0.40201612257E+03  0.12500000000E+03 0.  0.
         25    1    1    2    0    0 -0.68204343058E+01 -0.22812087122E+02 -0.18535492348E+03  0.22482961838E+03  0.12500000000E+03 0.  0.
</event>
<event>
 4    0  0.2202290E-002  0.3086688E+03  0.7546771E-02  0.1080986E+00
         21   -1    0    0  502  501  0.00000000000E+00  0.00000000000E+00  0.46449897975E+03  0.46449897975E+03  0.00000000000E+00 0.  1.
         21   -1    0    0  501  502 -0.00000000000E+00 -0.00000000000E+00 -0.20511658570E+03  0.20511658570E+03  0.00000000000E+00 0.  1.
         25    1    1    2    0    0  0.17673760820E+02 -0.26652952690E+03  0.22851702140E+03  0.37308897008E+03  0.12500000000E+03 0.  0.
         25    1    1    2    0    0 -0.17673760820E+02  0.26652952690E+03  0.30865372659E+02  0.29652659537E+03  0.12500000000E+03 0.  0.
</event>
<event>
 4    0  0.2202290E-002  0.2116392E+03  0.7546771E-02  0.1140274E+00
         21   -1    0    0  502  501  0.00000000000E+00  0.00000000000E+00  0.12021545968E+03  0.12021545968E+03  0.00000000000E+00 0. -1.
         21   -1    0    0  501  502 -0.00000000000E+00 -0.00000000000E+00 -0.37259056180E+03  0.37259056180E+03  0.00000000000E+00 0. -1.
         25    1    1    2    0    0  0.71650215119E+02 -0.12156347553E+03 -0.14184096019E+02  0.18904396443E+03  0.12500000000E+03 0.  0.
         25    1    1    2    0    0 -0.71650215119E+02  0.12156347553E+03 -0.23819100610E+03  0.30376205704E+03  0.12500000000E+03 0.  0.
</event>
<event>
 4    0  0.2202290E-002  0.1664675E+03  0.7546771E-02  0.1181583E+00
         21   -1    0    0  502  501  0.00000000000E+00  0.00000000000E+00  0.12837669989E+03  0.12837669989E+03  0.00000000000E+00 0.  1.
         21   -1    0    0  501  502 -0.00000000000E+00 -0.00000000000E+00 -0.21586031780E+03  0.21586031780E+03  0.00000000000E+00 0.  1.
         25    1    1    2    0    0 -0.10477071379E+03 -0.17193311760E+02 -0.14244005880E+02  0.16462200382E+03  0.12500000000E+03 0.  0.
         25    1    1    2    0    0  0.10477071379E+03  0.17193311760E+02 -0.73239612032E+02  0.17961501387E+03  0.12500000000E+03 0.  0.
</event>
<event>
 4    0  0.2202290E-002  0.2608869E+03  0.7546771E-02  0.1106612E+00
         21   -1    0    0  502  501  0.00000000000E+00  0.00000000000E+00  0.10978851430E+04  0.10978851430E+04  0.00000000000E+00 0.  1.
         21   -1    0    0  501  502 -0.00000000000E+00 -0.00000000000E+00 -0.61993724583E+02  0.61993724583E+02  0.00000000000E+00 0.  1.
         25    1    1    2    0    0 -0.11325378023E+03 -0.12028971412E+03  0.87041493760E+03  0.89473079619E+03  0.12500000000E+03 0.  0.
         25    1    1    2    0    0  0.11325378023E+03  0.12028971412E+03  0.16547648082E+03  0.26514807140E+03  0.12500000000E+03 0.  0.
</event>
<event>
 4    0  0.2202290E-002  0.3938957E+03  0.7546771E-02  0.1045914E+00
         21   -1    0    0  502  501  0.00000000000E+00  0.00000000000E+00  0.31497356146E+03  0.31497356146E+03  0.00000000000E+00 0. -1.
         21   -1    0    0  501  502 -0.00000000000E+00 -0.00000000000E+00 -0.49259316770E+03  0.49259316770E+03  0.00000000000E+00 0. -1.
         25    1    1    2    0    0 -0.10038930238E+03  0.32695230583E+03  0.65136533912E+02  0.36992376292E+03  0.12500000000E+03 0.  0.
         25    1    1    2    0    0  0.10038930238E+03 -0.32695230583E+03 -0.24275614016E+03  0.43764296625E+03  0.12500000000E+03 0.  0.
</event>
<event>
 4    0  0.2202290E-002  0.2491812E+03  0.7546771E-02  0.1113823E+00
         21   -1    0    0  502  501  0.00000000000E+00  0.00000000000E+00  0.14612768950E+04  0.14612768950E+04  0.00000000000E+00 0. -1.
         21   -1    0    0  501  502 -0.00000000000E+00 -0.00000000000E+00 -0.42491100136E+02  0.42491100136E+02  0.00000000000E+00 0. -1.
         25    1    1    2    0    0  0.15156080382E+03 -0.11666308158E+03  0.10093994664E+04  0.10349363433E+04  0.12500000000E+03 0.  0.
         25    1    1    2    0    0 -0.15156080382E+03  0.11666308158E+03  0.40938632851E+03  0.46883165190E+03  0.12500000000E+03 0.  0.
</event>
<event>
 4    0  0.2202290E-002  0.1818923E+03  0.7546771E-02  0.1165984E+00
         21   -1    0    0  502  501  0.00000000000E+00  0.00000000000E+00  0.16735416380E+02  0.16735416380E+02  0.00000000000E+00 0. -1.
         21   -1    0    0  501  502 -0.00000000000E+00 -0.00000000000E+00 -0.19769328943E+04  0.19769328943E+04  0.00000000000E+00 0. -1.
         25    1    1    2    0    0 -0.50971703466E+02  0.45870592232E+02 -0.36109588092E+03  0.38822346787E+03  0.12500000000E+03 0.  0.
         25    1    1    2    0    0  0.50971703466E+02 -0.45870592232E+02 -0.15991015970E+04  0.16054448428E+04  0.12500000000E+03 0.  0.
</event>
<event>
 4    0  0.2202290E-002  0.1765642E+03  0.7546771E-02  0.1171170E+00
         21   -1    0    0  502  501  0.00000000000E+00  0.00000000000E+00  0.39482870274E+03  0.39482870274E+03  0.00000000000E+00 0. -1.
         21   -1    0    0  501  502 -0.00000000000E+00 -0.00000000000E+00 -0.78958059026E+02  0.78958059026E+02  0.00000000000E+00 0. -1.
         25    1    1    2    0    0  0.10422014108E+03  0.58775013071E+02  0.11081243465E+03  0.20547684940E+03  0.12500000000E+03 0.  0.
         25    1    1    2    0    0 -0.10422014108E+03 -0.58775013071E+02  0.20505820907E+03  0.26830991237E+03  0.12500000000E+03 0.  0.
</event>
<event>
 4    0  0.2202290E-002  0.1775387E+03  0.7546771E-02  0.1170207E+00
         21   -1    0    0  502  501  0.00000000000E+00  0.00000000000E+00  0.17911762335E+04  0.17911762335E+04  0.00000000000E+00 0.  1.
         21   -1    0    0  501  502 -0.00000000000E+00 -0.00000000000E+00 -0.17597367212E+02  0.17597367212E+02  0.00000000000E+00 0.  1.
         25    1    1    2    0    0 -0.46934797522E+02  0.11472773399E+03  0.76955400444E+03  0.78943251385E+03  0.12500000000E+03 0.  0.
         25    1    1    2    0    0  0.46934797522E+02 -0.11472773399E+03  0.10040248618E+04  0.10193410868E+04  0.12500000000E+03 0.  0.
</event>
<event>
 4    0  0.2202290E-002  0.1797496E+03  0.7546771E-02  0.1168046E+00
         21   -1    0    0  502  501  0.00000000000E+00  0.00000000000E+00  0.68675318295E+02  0.68675318295E+02  0.00000000000E+00 0.  1.
         21   -1    0    0  501  502 -0.00000000000E+00 -0.00000000000E+00 -0.47047350045E+03  0.47047350045E+03  0.00000000000E+00 0.  1.
         25    1    1    2    0    0 -0.11775221891E+03 -0.38636691736E+02 -0.14627670726E+03  0.22886732859E+03  0.12500000000E+03 0.  0.
         25    1    1    2    0    0  0.11775221891E+03  0.38636691736E+02 -0.25552147489E+03  0.31028149016E+03  0.12500000000E+03 0.  0.
</event>
<event>
 4    0  0.2202290E-002  0.1944988E+03  0.7546771E-02  0.1154465E+00
         21   -1    0    0  502  501  0.00000000000E+00  0.00000000000E+00  0.93144536506E+03  0.93144536506E+03  0.00000000000E+00 0. -1.
         21   -1    0    0  501  502 -0.00000000000E+00 -0.00000000000E+00 -0.40614065325E+02  0.40614065325E+02  0.00000000000E+00 0. -1.
         25    1    1    2    0    0 -0.14668453312E+03  0.25016625912E+02  0.42564459428E+03  0.46791078687E+03  0.12500000000E+03 0.  0.
         25    1    1    2    0    0  0.14668453312E+03 -0.25016625912E+02  0.46518670546E+03  0.50414864352E+03  0.12500000000E+03 0.  0.
</event>
<event>
 4    0  0.2202290E-002  0.2307762E+03  0.7546771E-02  0.1126095E+00
         21   -1    0    0  502  501  0.00000000000E+00  0.00000000000E+00  0.10082389668E+04  0.10082389668E+04  0.00000000000E+00 0.  1.
         21   -1    0    0  501  502 -0.00000000000E+00 -0.00000000000E+00 -0.52822435356E+02  0.52822435356E+02  0.00000000000E+00 0.  1.
         25    1    1    2    0    0  0.12592097560E+03 -0.30484372930E+02  0.14578022383E+03  0.23165116609E+03  0.12500000000E+03 0.  0.
         25    1    1    2    0    0 -0.12592097560E+03  0.30484372930E+02  0.80963630761E+03  0.82941023607E+03  0.12500000000E+03 0.  0.
</event>
<event>
 4    0  0.2202290E-002  0.2125441E+03  0.7546771E-02  0.1139567E+00
         21   -1    0    0  502  501  0.00000000000E+00  0.00000000000E+00  0.39876693640E+03  0.39876693640E+03  0.00000000000E+00 0. -1.
         21   -1    0    0  501  502 -0.00000000000E+00 -0.00000000000E+00 -0.11328672075E+03  0.11328672075E+03  0.00000000000E+00 0. -1.
         25    1    1    2    0    0  0.22052242146E+02 -0.14313992129E+03  0.25428376000E+03  0.31821465876E+03  0.12500000000E+03 0.  0.
         25    1    1    2    0    0 -0.22052242146E+02  0.14313992129E+03  0.31196455646E+02  0.19383899838E+03  0.12500000000E+03 0.  0.
</event>
<event>
 4    0  0.2202290E-002  0.1938244E+03  0.7546771E-02  0.1155056E+00
         21   -1    0    0  502  501  0.00000000000E+00  0.00000000000E+00  0.12679922046E+03  0.12679922046E+03  0.00000000000E+00 0. -1.
         21   -1    0    0  501  502 -0.00000000000E+00 -0.00000000000E+00 -0.29627875118E+03  0.29627875118E+03  0.00000000000E+00 0. -1.
         25    1    1    2    0    0 -0.34506984125E+02 -0.58211656259E+02 -0.22855390326E+03  0.26914905828E+03  0.12500000000E+03 0.  0.
         25    1    1    2    0    0  0.34506984125E+02  0.58211656259E+02  0.59074372541E+02  0.15392891336E+03  0.12500000000E+03 0.  0.
</event>
<event>
 4    0  0.2202290E-002  0.2427461E+03  0.7546771E-02  0.1117977E+00
         21   -1    0    0  502  501  0.00000000000E+00  0.00000000000E+00  0.15967685836E+04  0.15967685836E+04  0.00000000000E+00 0.  1.
         21   -1    0    0  501  502 -0.00000000000E+00 -0.00000000000E+00 -0.36903071954E+02  0.36903071954E+02  0.00000000000E+00 0.  1.
         25    1    1    2    0    0 -0.20582190125E+03  0.76952614265E+01  0.87968577148E+03  0.91208219401E+03  0.12500000000E+03 0.  0.
         25    1    1    2    0    0  0.20582190125E+03 -0.76952614265E+01  0.68017974015E+03  0.72158946153E+03  0.12500000000E+03 0.  0.
</event>
<event>
 4    0  0.2202290E-002  0.3305781E+03  0.7546771E-02  0.1070881E+00
         21   -1    0    0  502  501  0.00000000000E+00  0.00000000000E+00  0.98845580119E+02  0.98845580119E+02  0.00000000000E+00 0. -1.
         21   -1    0    0  501  502 -0.00000000000E+00 -0.00000000000E+00 -0.11055819551E+04  0.11055819551E+04  0.00000000000E+00 0. -1.
         25    1    1    2    0    0 -0.20509284233E+03  0.20272231496E+03 -0.31672201678E+03  0.44620314529E+03  0.12500000000E+03 0.  0.
         25    1    1    2    0    0  0.20509284233E+03 -0.20272231496E+03 -0.69001435824E+03  0.75822438996E+03  0.12500000000E+03 0.  0.
</event>
<event>
 4    0  0.2202290E-002  0.1914093E+03  0.7546771E-02  0.1157196E+00
         21   -1    0    0  502  501  0.00000000000E+00  0.00000000000E+00  0.11401867217E+04  0.11401867217E+04  0.00000000000E+00 0.  1.
         21   -1    0    0  501  502 -0.00000000000E+00 -0.00000000000E+00 -0.32132914823E+02  0.32132914823E+02  0.00000000000E+00 0.  1.
         25    1    1    2    0    0  0.22727542908E+02 -0.58012219817E+02  0.15321664977E+03  0.20732173215E+03  0.12500000000E+03 0.  0.
         25    1    1    2    0    0 -0.22727542908E+02  0.58012219817E+02  0.95483715709E+03  0.96499790436E+03  0.12500000000E+03 0.  0.
</event>
<event>
 4    0  0.2202290E-002  0.2597705E+03  0.7546771E-02  0.1107281E+00
         21   -1    0    0  502  501  0.00000000000E+00  0.00000000000E+00  0.31023884798E+03  0.31023884798E+03  0.00000000000E+00 0.  1.
         21   -1    0    0  501  502 -0.00000000000E+00 -0.00000000000E+00 -0.21751214573E+03  0.21751214573E+03  0.00000000000E+00 0.  1.
         25    1    1    2    0    0  0.31023864730E+02  0.86338652659E+01  0.27535569734E+03  0.30410982206E+03  0.12500000000E+03 0.  0.
         25    1    1    2    0    0 -0.31023864730E+02 -0.86338652659E+01 -0.18262899509E+03  0.22364117165E+03  0.12500000000E+03 0.  0.
</event>
<event>
 4    0  0.2202290E-002  0.1739726E+03  0.7546771E-02  0.1173767E+00
         21   -1    0    0  502  501  0.00000000000E+00  0.00000000000E+00  0.13222446789E+03  0.13222446789E+03  0.00000000000E+00 0. -1.
         21   -1    0    0  501  502 -0.00000000000E+00 -0.00000000000E+00 -0.22890211738E+03  0.22890211738E+03  0.00000000000E+00 0. -1.
         25    1    1    2    0    0  0.52852668965E+02  0.83015380989E+02  0.24730705383E+02  0.16100175740E+03  0.12500000000E+03 0.  0.
         25    1    1    2    0    0 -0.52852668965E+02 -0.83015380989E+02 -0.12140835487E+03  0.20012482787E+03  0.12500000000E+03 0.  0.
</event>
<event>
 4    0  0.2202290E-002  0.2112622E+03  0.7546771E-02  0.1140570E+00
         21   -1    0    0  502  501  0.00000000000E+00  0.00000000000E+00  0.83668494314E+02  0.83668494314E+02  0.00000000000E+00 0.  1.
         21   -1    0    0  501  502 -0.00000000000E+00 -0.00000000000E+00 -0.53343507678E+03  0.53343507678E+03  0.00000000000E+00 0.  1.
         25    1    1    2    0    0  0.35095402666E+02  0.13894694945E+03 -0.35928859624E+03  0.40651105451E+03  0.12500000000E+03 0.  0.
         25    1    1    2    0    0 -0.35095402666E+02 -0.13894694945E+03 -0.90477986223E+02  0.21059251658E+03  0.12500000000E+03 0.  0.
</event>
<event>
 4    0  0.2202290E-002  0.2009499E+03  0.7546771E-02  0.1148940E+00
         21   -1    0    0  502  501  0.00000000000E+00  0.00000000000E+00  0.17149824865E+03  0.17149824865E+03  0.00000000000E+00 0.  1.
         21   -1    0    0  501  502 -0.00000000000E+00 -0.00000000000E+00 -0.23545924754E+03  0.23545924754E+03  0.00000000000E+00 0.  1.
         25    1    1    2    0    0 -0.12515239198E+03 -0.64169842514E+02 -0.10340152388E+03  0.21470390086E+03  0.12500000000E+03 0.  0.
         25    1    1    2    0    0  0.12515239198E+03  0.64169842514E+02  0.39440524984E+02  0.19225359533E+03  0.12500000000E+03 0.  0.
</event>
<event>
 4    0  0.2202290E-002  0.2660200E+03  0.7546771E-02  0.1103579E+00
         21   -1    0    0  502  501  0.00000000000E+00  0.00000000000E+00  0.12158868805E+04  0.12158868805E+04  0.00000000000E+00 0. -1.
         21   -1    0    0  501  502 -0.00000000000E+00 -0.00000000000E+00 -0.58201685829E+02  0.58201685829E+02  0.00000000000E+00 0. -1.
         25    1    1    2    0    0  0.22693720683E+03  0.28532761340E+02  0.70617007795E+03  0.75273886130E+03  0.12500000000E+03 0.  0.
         25    1    1    2    0    0 -0.22693720683E+03 -0.28532761340E+02  0.45151511674E+03  0.52134970505E+03  0.12500000000E+03 0.  0.
</event>
<event>
 4    0  0.2202290E-002  0.1971210E+03  0.7546771E-02  0.1152191E+00
         21   -1    0    0  502  501  0.00000000000E+00  0.00000000000E+00  0.50502889629E+03  0.50502889629E+03  0.00000000000E+00 0. -1.
         21   -1    0    0  501  502 -0.00000000000E+00 -0.00000000000E+00 -0.76939563679E+02  0.76939563679E+02  0.00000000000E+00 0. -1.
         25    1    1    2    0    0 -0.13895703223E+03 -0.20091717330E+02  0.12647691435E+03  0.22657039475E+03  0.12500000000E+03 0.  0.
         25    1    1    2    0    0  0.13895703223E+03  0.20091717330E+02  0.30161241826E+03  0.35539806522E+03  0.12500000000E+03 0.  0.
</event>
<event>
 4    0  0.2202290E-002  0.3625922E+03  0.7546771E-02  0.1057562E+00
         21   -1    0    0  502  501  0.00000000000E+00  0.00000000000E+00  0.16980858627E+04  0.16980858627E+04  0.00000000000E+00 0.  1.
         21   -1    0    0  501  502 -0.00000000000E+00 -0.00000000000E+00 -0.77424289428E+02  0.77424289428E+02  0.00000000000E+00 0.  1.
         25    1    1    2    0    0 -0.95725456690E+02  0.32660242631E+03  0.81999586806E+03  0.89657723123E+03  0.12500000000E+03 0.  0.
         25    1    1    2    0    0  0.95725456690E+02 -0.32660242631E+03  0.80066570521E+03  0.87893292090E+03  0.12500000000E+03 0.  0.
</event>
<event>
 4    0  0.2202290E-002  0.2095407E+03  0.7546771E-02  0.1141930E+00
         21   -1    0    0  502  501  0.00000000000E+00  0.00000000000E+00  0.35330582342E+03  0.35330582342E+03  0.00000000000E+00 0. -1.
         21   -1    0    0  501  502 -0.00000000000E+00 -0.00000000000E+00 -0.12427561181E+03  0.12427561181E+03  0.00000000000E+00 0. -1.
         25    1    1    2    0    0 -0.88201442712E+02 -0.13001081552E+03  0.18289048977E+03  0.27158099693E+03  0.12500000000E+03 0.  0.
         25    1    1    2    0    0  0.88201442712E+02  0.13001081552E+03  0.46139721848E+02  0.20600043830E+03  0.12500000000E+03 0.  0.
</event>
<event>
 4    0  0.2202290E-002  0.2098650E+03  0.7546771E-02  0.1141673E+00
         21   -1    0    0  502  501  0.00000000000E+00  0.00000000000E+00  0.13250284951E+04  0.13250284951E+04  0.00000000000E+00 0.  1.
         21   -1    0    0  501  502 -0.00000000000E+00 -0.00000000000E+00 -0.33239534849E+02  0.33239534849E+02  0.00000000000E+00 0.  1.
         25    1    1    2    0    0 -0.52179057669E+01 -0.16417667338E+03  0.76857131395E+03  0.79580655391E+03  0.12500000000E+03 0.  0.
         25    1    1    2    0    0  0.52179057669E+01  0.16417667338E+03  0.52321764625E+03  0.56246147599E+03  0.12500000000E+03 0.  0.
</event>
<event>
 4    0  0.2202290E-002  0.2188366E+03  0.7546771E-02  0.1134753E+00
         21   -1    0    0  502  501  0.00000000000E+00  0.00000000000E+00  0.14482457624E+03  0.14482457624E+03  0.00000000000E+00 0.  1.
         21   -1    0    0  501  502 -0.00000000000E+00 -0.00000000000E+00 -0.33067217266E+03  0.33067217266E+03  0.00000000000E+00 0.  1.
         25    1    1    2    0    0  0.14603056326E+03 -0.10250221092E+01  0.20701781249E+02  0.19333789029E+03  0.12500000000E+03 0.  0.
         25    1    1    2    0    0 -0.14603056326E+03  0.10250221092E+01 -0.20654937767E+03  0.28215885861E+03  0.12500000000E+03 0.  0.
</event>
<event>
 4    0  0.2202290E-002  0.2072980E+03  0.7546771E-02  0.1143724E+00
         21   -1    0    0  502  501  0.00000000000E+00  0.00000000000E+00  0.16966418466E+03  0.16966418466E+03  0.00000000000E+00 0. -1.
         21   -1    0    0  501  502 -0.00000000000E+00 -0.00000000000E+00 -0.25327959495E+03  0.25327959495E+03  0.00000000000E+00 0. -1.
         25    1    1    2    0    0  0.11028604990E+03 -0.46979141413E+02  0.74404487494E+02  0.18849689729E+03  0.12500000000E+03 0.  0.
         25    1    1    2    0    0 -0.11028604990E+03  0.46979141413E+02 -0.15801989779E+03  0.23444688232E+03  0.12500000000E+03 0.  0.
</event>
<event>
 4    0  0.2202290E-002  0.6162087E+03  0.7546771E-02  0.9872337E-01
         21   -1    0    0  502  501  0.00000000000E+00  0.00000000000E+00  0.22330717886E+04  0.22330717886E+04  0.00000000000E+00 0. -1.
         21   -1    0    0  501  502 -0.00000000000E+00 -0.00000000000E+00 -0.17004073330E+03  0.17004073330E+03  0.00000000000E+00 0. -1.
         25    1    1    2    0    0 -0.22658770704E+02  0.33512350894E+03  0.54089291515E+02  0.36245253150E+03  0.12500000000E+03 0.  0.
         25    1    1    2    0    0  0.22658770704E+02 -0.33512350894E+03  0.20089417638E+04  0.20406599904E+04  0.12500000000E+03 0.  0.
</event>
<event>
 4    0  0.2202290E-002  0.2558010E+03  0.7546771E-02  0.1109693E+00
         21   -1    0    0  502  501  0.00000000000E+00  0.00000000000E+00  0.70292728288E+02  0.70292728288E+02  0.00000000000E+00 0. -1.
         21   -1    0    0  501  502 -0.00000000000E+00 -0.00000000000E+00 -0.93088105258E+03  0.93088105258E+03  0.00000000000E+00 0. -1.
         25    1    1    2    0    0  0.16561177767E+03 -0.11735772822E+03 -0.24871946140E+03  0.34450902420E+03  0.12500000000E+03 0.  0.
         25    1    1    2    0    0 -0.16561177767E+03  0.11735772822E+03 -0.61186886290E+03  0.65666475667E+03  0.12500000000E+03 0.  0.
</event>
<event>
 4    0  0.2202290E-002  0.2575182E+03  0.7546771E-02  0.1108644E+00
         21   -1    0    0  502  501  0.00000000000E+00  0.00000000000E+00  0.19313551239E+03  0.19313551239E+03  0.00000000000E+00 0.  1.
         21   -1    0    0  501  502 -0.00000000000E+00 -0.00000000000E+00 -0.34336305991E+03  0.34336305991E+03  0.00000000000E+00 0.  1.
         25    1    1    2    0    0  0.14377539927E+02  0.19756775726E+03 -0.18658170181E+03  0.29946195721E+03  0.12500000000E+03 0.  0.
         25    1    1    2    0    0 -0.14377539927E+02 -0.19756775726E+03  0.36354154285E+02  0.23703661510E+03  0.12500000000E+03 0.  0.
</event>
<event>
 4    0  0.2202290E-002  0.2148902E+03  0.7546771E-02  0.1137751E+00
         21   -1    0    0  502  501  0.00000000000E+00  0.00000000000E+00  0.44134141473E+02  0.44134141473E+02  0.00000000000E+00 0. -1.
         21   -1    0    0  501  502 -0.00000000000E+00 -0.00000000000E+00 -0.10463056750E+04  0.10463056750E+04  0.00000000000E+00 0. -1.
         25    1    1    2    0    0 -0.29978186961E+02 -0.12628743560E+03 -0.20405323682E+03  0.27223139337E+03  0.12500000000E+03 0.  0.
         25    1    1    2    0    0  0.29978186961E+02  0.12628743560E+03 -0.79811829670E+03  0.81820842309E+03  0.12500000000E+03 0.  0.
</event>
<event>
 4    0  0.2202290E-002  0.2124142E+03  0.7546771E-02  0.1139668E+00
         21   -1    0    0  502  501  0.00000000000E+00  0.00000000000E+00  0.34365443805E+03  0.34365443805E+03  0.00000000000E+00 0.  1.
         21   -1    0    0  501  502 -0.00000000000E+00 -0.00000000000E+00 -0.13129403966E+03  0.13129403966E+03  0.00000000000E+00 0.  1.
         25    1    1    2    0    0  0.16198133546E+03  0.94554757405E+01  0.43260610863E+02  0.20934144241E+03  0.12500000000E+03 0.  0.
         25    1    1    2    0    0 -0.16198133546E+03 -0.94554757405E+01  0.16909978753E+03  0.26560703530E+03  0.12500000000E+03 0.  0.
</event>
<event>
 4    0  0.2202290E-002  0.2073736E+03  0.7546771E-02  0.1143663E+00
         21   -1    0    0  502  501  0.00000000000E+00  0.00000000000E+00  0.25950991264E+03  0.25950991264E+03  0.00000000000E+00 0.  1.
         21   -1    0    0  501  502 -0.00000000000E+00 -0.00000000000E+00 -0.16571166362E+03  0.16571166362E+03  0.00000000000E+00 0.  1.
         25    1    1    2    0    0  0.51967103359E+01 -0.13048356564E+03 -0.57283368277E+02  0.18962950979E+03  0.12500000000E+03 0.  0.
         25    1    1    2    0    0 -0.51967103359E+01  0.13048356564E+03  0.15108161729E+03  0.23559206647E+03  0.12500000000E+03 0.  0.
</event>
<event>
 4    0  0.2202290E-002  0.2764647E+03  0.7546771E-02  0.1097636E+00
         21   -1    0    0  502  501  0.00000000000E+00  0.00000000000E+00  0.20237038235E+03  0.20237038235E+03  0.00000000000E+00 0.  1.
         21   -1    0    0  501  502 -0.00000000000E+00 -0.00000000000E+00 -0.37768725542E+03  0.37768725542E+03  0.00000000000E+00 0.  1.
         25    1    1    2    0    0  0.18299502760E+03  0.14416864564E+03 -0.17247006473E+03  0.31566232233E+03  0.12500000000E+03 0.  0.
         25    1    1    2    0    0 -0.18299502760E+03 -0.14416864564E+03 -0.28468083425E+01  0.26439531544E+03  0.12500000000E+03 0.  0.
</event>
<event>
 4    0  0.2202290E-002  0.2174484E+03  0.7546771E-02  0.1135800E+00
         21   -1    0    0  502  501  0.00000000000E+00  0.00000000000E+00  0.33369478362E+02  0.33369478362E+02  0.00000000000E+00 0.  1.
         21   -1    0    0  501  502 -0.00000000000E+00 -0.00000000000E+00 -0.14169777756E+04  0.14169777756E+04  0.00000000000E+00 0.  1.
         25    1    1    2    0    0  0.15950363747E+03 -0.41149618233E+02 -0.91611601254E+03  0.93916359058E+03  0.12500000000E+03 0.  0.
         25    1    1    2    0    0 -0.15950363747E+03  0.41149618233E+02 -0.46749228465E+03  0.51118366333E+03  0.12500000000E+03 0.  0.
</event>
<event>
 4    0  0.2202290E-002  0.2397958E+03  0.7546771E-02  0.1119929E+00
         21   -1    0    0  502  501  0.00000000000E+00  0.00000000000E+00  0.13295168096E+03  0.13295168096E+03  0.00000000000E+00 0.  1.
         21   -1    0    0  501  502 -0.00000000000E+00 -0.00000000000E+00 -0.43250305847E+03  0.43250305847E+03  0.00000000000E+00 0.  1.
         25    1    1    2    0    0  0.90745098719E+02 -0.18193528054E+03 -0.12232952365E+03  0.26818767981E+03  0.12500000000E+03 0.  0.
         25    1    1    2    0    0 -0.90745098719E+02  0.18193528054E+03 -0.17722185386E+03  0.29726705961E+03  0.12500000000E+03 0.  0.
</event>
<event>
 4    0  0.2202290E-002  0.2137297E+03  0.7546771E-02  0.1138646E+00
         21   -1    0    0  502  501  0.00000000000E+00  0.00000000000E+00  0.33203888145E+03  0.33203888145E+03  0.00000000000E+00 0.  1.
         21   -1    0    0  501  502 -0.00000000000E+00 -0.00000000000E+00 -0.13757535062E+03  0.13757535062E+03  0.00000000000E+00 0.  1.
         25    1    1    2    0    0  0.20811627438E+01  0.12578703283E+03 -0.33815637715E+02  0.18054142522E+03  0.12500000000E+03 0.  0.
         25    1    1    2    0    0 -0.20811627438E+01 -0.12578703283E+03  0.22827916855E+03  0.28907280685E+03  0.12500000000E+03 0.  0.
</event>
<event>
 4    0  0.2202290E-002  0.2628067E+03  0.7546771E-02  0.1105469E+00
         21   -1    0    0  502  501  0.00000000000E+00  0.00000000000E+00  0.49530829667E+02  0.49530829667E+02  0.00000000000E+00 0. -1.
         21   -1    0    0  501  502 -0.00000000000E+00 -0.00000000000E+00 -0.13944319062E+04  0.13944319062E+04  0.00000000000E+00 0. -1.
         25    1    1    2    0    0  0.19138226402E+03  0.10425762725E+03 -0.46062155433E+03  0.52468470546E+03  0.12500000000E+03 0.  0.
         25    1    1    2    0    0 -0.19138226402E+03 -0.10425762725E+03 -0.88427952224E+03  0.91927803045E+03  0.12500000000E+03 0.  0.
</event>
<event>
 4    0  0.2202290E-002  0.3037202E+03  0.7546771E-02  0.1083396E+00
         21   -1    0    0  502  501  0.00000000000E+00  0.00000000000E+00  0.34774140879E+03  0.34774140879E+03  0.00000000000E+00 0.  1.
         21   -1    0    0  501  502 -0.00000000000E+00 -0.00000000000E+00 -0.26527163601E+03  0.26527163601E+03  0.00000000000E+00 0.  1.
         25    1    1    2    0    0 -0.69430909627E+02  0.20140775563E+03  0.21959109593E+03  0.33050111142E+03  0.12500000000E+03 0.  0.
         25    1    1    2    0    0  0.69430909627E+02 -0.20140775563E+03 -0.13712132315E+03  0.28251193338E+03  0.12500000000E+03 0.  0.
</event>
<event>
 4    0  0.2202290E-002  0.2278628E+03  0.7546771E-02  0.1128153E+00
         21   -1    0    0  502  501  0.00000000000E+00  0.00000000000E+00  0.71135408508E+02  0.71135408508E+02  0.00000000000E+00 0. -1.
         21   -1    0    0  501  502 -0.00000000000E+00 -0.00000000000E+00 -0.72989581540E+03  0.72989581540E+03  0.00000000000E+00 0. -1.
         25    1    1    2    0    0  0.23861855139E+02 -0.10252011276E+03 -0.50260810993E+02  0.17097049679E+03  0.12500000000E+03 0.  0.
         25    1    1    2    0    0 -0.23861855139E+02  0.10252011276E+03 -0.60849959590E+03  0.63006072712E+03  0.12500000000E+03 0.  0.
</event>
<event>
 4    0  0.2202290E-002  0.1766005E+03  0.7546771E-02  0.1171134E+00
         21   -1    0    0  502  501  0.00000000000E+00  0.00000000000E+00  0.15661309283E+04  0.15661309283E+04  0.00000000000E+00 0.  1.
         21   -1    0    0  501  502 -0.00000000000E+00 -0.00000000000E+00 -0.19913876134E+02  0.19913876134E+02  0.00000000000E+00 0.  1.
         25    1    1    2    0    0  0.51429719807E+02  0.11341525041E+03  0.73989645503E+03  0.76064433165E+03  0.12500000000E+03 0.  0.
         25    1    1    2    0    0 -0.51429719807E+02 -0.11341525041E+03  0.80632059709E+03  0.82540047273E+03  0.12500000000E+03 0.  0.
</event>
<event>
 4    0  0.2202290E-002  0.1809786E+03  0.7546771E-02  0.1166859E+00
         21   -1    0    0  502  501  0.00000000000E+00  0.00000000000E+00  0.39955254289E+03  0.39955254289E+03  0.00000000000E+00 0.  1.
         21   -1    0    0  501  502 -0.00000000000E+00 -0.00000000000E+00 -0.81974849843E+02  0.81974849843E+02  0.00000000000E+00 0.  1.
         25    1    1    2    0    0 -0.21106841266E+02 -0.51908551648E+02  0.31613119782E+03  0.34453436798E+03  0.12500000000E+03 0.  0.
         25    1    1    2    0    0  0.21106841266E+02  0.51908551648E+02  0.14464952229E+01  0.13699302475E+03  0.12500000000E+03 0.  0.
</event>
<event>
 4    0  0.2202290E-002  0.1942833E+03  0.7546771E-02  0.1154654E+00
         21   -1    0    0  502  501  0.00000000000E+00  0.00000000000E+00  0.29338385435E+03  0.29338385435E+03  0.00000000000E+00 0. -1.
         21   -1    0    0  501  502 -0.00000000000E+00 -0.00000000000E+00 -0.12865735709E+03  0.12865735709E+03  0.00000000000E+00 0. -1.
         25    1    1    2    0    0 -0.79955001719E+02  0.23973921289E+02 -0.51340956344E+02  0.15883464672E+03  0.12500000000E+03 0.  0.
         25    1    1    2    0    0  0.79955001719E+02 -0.23973921289E+02  0.21606745360E+03  0.26320656471E+03  0.12500000000E+03 0.  0.
</event>
<event>
 4    0  0.2202290E-002  0.1952422E+03  0.7546771E-02  0.1153816E+00
         21   -1    0    0  502  501  0.00000000000E+00  0.00000000000E+00  0.87305864697E+03  0.87305864697E+03  0.00000000000E+00 0. -1.
         21   -1    0    0  501  502 -0.00000000000E+00 -0.00000000000E+00 -0.43662017159E+02  0.43662017159E+02  0.00000000000E+00 0. -1.
         25    1    1    2    0    0  0.12230213683E+03 -0.41965629948E+02  0.23628345352E+03  0.29694073008E+03  0.12500000000E+03 0.  0.
         25    1    1    2    0    0 -0.12230213683E+03  0.41965629948E+02  0.59311317629E+03  0.61977993405E+03  0.12500000000E+03 0.  0.
</event>
<event>
 4    0  0.2202290E-002  0.2350192E+03  0.7546771E-02  0.1123156E+00
         21   -1    0    0  502  501  0.00000000000E+00  0.00000000000E+00  0.70543349281E+02  0.70543349281E+02  0.00000000000E+00 0. -1.
         21   -1    0    0  501  502 -0.00000000000E+00 -0.00000000000E+00 -0.78297997341E+03  0.78297997341E+03  0.00000000000E+00 0. -1.
         25    1    1    2    0    0  0.16563770555E+03 -0.45241937678E+02 -0.17348890630E+03  0.27423727506E+03  0.12500000000E+03 0.  0.
         25    1    1    2    0    0 -0.16563770555E+03  0.45241937678E+02 -0.53894771783E+03  0.57928604763E+03  0.12500000000E+03 0.  0.
</event>
<event>
 4    0  0.2202290E-002  0.2349834E+03  0.7546771E-02  0.1123181E+00
         21   -1    0    0  502  501  0.00000000000E+00  0.00000000000E+00  0.40828747709E+03  0.40828747709E+03  0.00000000000E+00 0. -1.
         21   -1    0    0  501  502 -0.00000000000E+00 -0.00000000000E+00 -0.13524102723E+03  0.13524102723E+03  0.00000000000E+00 0. -1.
         25    1    1    2    0    0 -0.14420568711E+03  0.13683092401E+03  0.12655857805E+03  0.26675842186E+03  0.12500000000E+03 0.  0.
         25    1    1    2    0    0  0.14420568711E+03 -0.13683092401E+03  0.14648787181E+03  0.27677008246E+03  0.12500000000E+03 0.  0.
</event>
<event>
 4    0  0.2202290E-002  0.2514285E+03  0.7546771E-02  0.1112405E+00
         21   -1    0    0  502  501  0.00000000000E+00  0.00000000000E+00  0.50810347707E+03  0.50810347707E+03  0.00000000000E+00 0. -1.
         21   -1    0    0  501  502 -0.00000000000E+00 -0.00000000000E+00 -0.12441621574E+03  0.12441621574E+03  0.00000000000E+00 0. -1.
         25    1    1    2    0    0  0.12235038400E+03  0.43453429485E+02  0.41235726783E+03  0.45002370307E+03  0.12500000000E+03 0.  0.
         25    1    1    2    0    0 -0.12235038400E+03 -0.43453429485E+02 -0.28670006499E+02  0.18249598974E+03  0.12500000000E+03 0.  0.
</event>
<event>
 4    0  0.2202290E-002  0.1538605E+03  0.7546771E-02  0.1195808E+00
         21   -1    0    0  502  501  0.00000000000E+00  0.00000000000E+00  0.19761498087E+03  0.19761498087E+03  0.00000000000E+00 0.  1.
         21   -1    0    0  501  502 -0.00000000000E+00 -0.00000000000E+00 -0.11979385105E+03  0.11979385105E+03  0.00000000000E+00 0.  1.
         25    1    1    2    0    0 -0.63485500772E+02 -0.63333243692E+02  0.36270490179E+02  0.15805713215E+03  0.12500000000E+03 0.  0.
         25    1    1    2    0    0  0.63485500772E+02  0.63333243692E+02  0.41550639637E+02  0.15935169977E+03  0.12500000000E+03 0.  0.
</event>
<event>
 4    0  0.2202290E-002  0.2062457E+03  0.7546771E-02  0.1144574E+00
         21   -1    0    0  502  501  0.00000000000E+00  0.00000000000E+00  0.29107925760E+03  0.29107925760E+03  0.00000000000E+00 0. -1.
         21   -1    0    0  501  502 -0.00000000000E+00 -0.00000000000E+00 -0.14613649631E+03  0.14613649631E+03  0.00000000000E+00 0. -1.
         25    1    1    2    0    0 -0.96854584976E+02  0.11687706185E+03  0.13842006565E+03  0.24047073167E+03  0.12500000000E+03 0.  0.
         25    1    1    2    0    0  0.96854584976E+02 -0.11687706185E+03  0.65226956395E+01  0.19674502224E+03  0.12500000000E+03 0.  0.
</event>
<event>
 4    0  0.2202290E-002  0.2405745E+03  0.7546771E-02  0.1119411E+00
         21   -1    0    0  502  501  0.00000000000E+00  0.00000000000E+00  0.92449685631E+02  0.92449685631E+02  0.00000000000E+00 0. -1.
         21   -1    0    0  501  502 -0.00000000000E+00 -0.00000000000E+00 -0.62602786919E+03  0.62602786919E+03  0.00000000000E+00 0. -1.
         25    1    1    2    0    0  0.60904383865E+02  0.31301148776E+02 -0.55619531084E+03  0.57416663931E+03  0.12500000000E+03 0.  0.
         25    1    1    2    0    0 -0.60904383865E+02 -0.31301148776E+02  0.22617127287E+02  0.14431091551E+03  0.12500000000E+03 0.  0.
</event>
<event>
 4    0  0.2202290E-002  0.1873781E+03  0.7546771E-02  0.1160848E+00
         21   -1    0    0  502  501  0.00000000000E+00  0.00000000000E+00  0.14486037932E+03  0.14486037932E+03  0.00000000000E+00 0. -1.
         21   -1    0    0  501  502 -0.00000000000E+00 -0.00000000000E+00 -0.24237505229E+03  0.24237505229E+03  0.00000000000E+00 0. -1.
         25    1    1    2    0    0 -0.44247556669E+02 -0.11603885966E+03 -0.11461898073E+03  0.21020317307E+03  0.12500000000E+03 0.  0.
         25    1    1    2    0    0  0.44247556669E+02  0.11603885966E+03  0.17104307757E+02  0.17703225855E+03  0.12500000000E+03 0.  0.
</event>
<event>
 4    0  0.2202290E-002  0.1936795E+03  0.7546771E-02  0.1155184E+00
         21   -1    0    0  502  501  0.00000000000E+00  0.00000000000E+00  0.14129798801E+03  0.14129798801E+03  0.00000000000E+00 0.  1.
         21   -1    0    0  501  502 -0.00000000000E+00 -0.00000000000E+00 -0.26547982566E+03  0.26547982566E+03  0.00000000000E+00 0.  1.
         25    1    1    2    0    0  0.52388589218E+02 -0.24288744142E+02 -0.20512577946E+03  0.24705483758E+03  0.12500000000E+03 0.  0.
         25    1    1    2    0    0 -0.52388589218E+02  0.24288744142E+02  0.80943941820E+02  0.15972297609E+03  0.12500000000E+03 0.  0.
</event>
<event>
 4    0  0.2202290E-002  0.2629514E+03  0.7546771E-02  0.1105383E+00
         21   -1    0    0  502  501  0.00000000000E+00  0.00000000000E+00  0.20478945169E+03  0.20478945169E+03  0.00000000000E+00 0. -1.
         21   -1    0    0  501  502 -0.00000000000E+00 -0.00000000000E+00 -0.33763171272E+03  0.33763171272E+03  0.00000000000E+00 0. -1.
         25    1    1    2    0    0  0.54995230833E+02 -0.19656061111E+03  0.45893014974E+02  0.24370416098E+03  0.12500000000E+03 0.  0.
         25    1    1    2    0    0 -0.54995230833E+02  0.19656061111E+03 -0.17873527600E+03  0.29871700344E+03  0.12500000000E+03 0.  0.
</event>
<event>
 4    0  0.2202290E-002  0.2973806E+03  0.7546771E-02  0.1086557E+00
         21   -1    0    0  502  501  0.00000000000E+00  0.00000000000E+00  0.68018491990E+02  0.68018491990E+02  0.00000000000E+00 0. -1.
         21   -1    0    0  501  502 -0.00000000000E+00 -0.00000000000E+00 -0.13001647418E+04  0.13001647418E+04  0.00000000000E+00 0. -1.
         25    1    1    2    0    0  0.18327906760E+03  0.18549064667E+03 -0.45649417704E+03  0.54037943178E+03  0.12500000000E+03 0.  0.
         25    1    1    2    0    0 -0.18327906760E+03 -0.18549064667E+03 -0.77565207281E+03  0.82780380204E+03  0.12500000000E+03 0.  0.
</event>
<event>
 4    0  0.2202290E-002  0.1980051E+03  0.7546771E-02  0.1151433E+00
         21   -1    0    0  502  501  0.00000000000E+00  0.00000000000E+00  0.18724179447E+03  0.18724179447E+03  0.00000000000E+00 0. -1.
         21   -1    0    0  501  502 -0.00000000000E+00 -0.00000000000E+00 -0.20938719574E+03  0.20938719574E+03  0.00000000000E+00 0. -1.
         25    1    1    2    0    0 -0.19702360382E+02  0.15219588992E+03 -0.56547797341E+01  0.19801199066E+03  0.12500000000E+03 0.  0.
         25    1    1    2    0    0  0.19702360382E+02 -0.15219588992E+03 -0.16490621540E+02  0.19861699955E+03  0.12500000000E+03 0.  0.
</event>
<event>
 4    0  0.2202290E-002  0.1933580E+03  0.7546771E-02  0.1155467E+00
         21   -1    0    0  502  501  0.00000000000E+00  0.00000000000E+00  0.27998414119E+03  0.27998414119E+03  0.00000000000E+00 0. -1.
         21   -1    0    0  501  502 -0.00000000000E+00 -0.00000000000E+00 -0.13353370214E+03  0.13353370214E+03  0.00000000000E+00 0. -1.
         25    1    1    2    0    0 -0.62025656845E+02  0.69751114194E+02  0.19537874429E+03  0.25002050667E+03  0.12500000000E+03 0.  0.
         25    1    1    2    0    0  0.62025656845E+02 -0.69751114194E+02 -0.48928305236E+02  0.16349733665E+03  0.12500000000E+03 0.  0.
</event>
<event>
 4    0  0.2202290E-002  0.2499324E+03  0.7546771E-02  0.1113348E+00
         21   -1    0    0  502  501  0.00000000000E+00  0.00000000000E+00  0.63408111956E+03  0.63408111956E+03  0.00000000000E+00 0. -1.
         21   -1    0    0  501  502 -0.00000000000E+00 -0.00000000000E+00 -0.98514515520E+02  0.98514515520E+02  0.00000000000E+00 0. -1.
         25    1    1    2    0    0 -0.20374444876E+03  0.45163518778E+02  0.35184277929E+03  0.42774979271E+03  0.12500000000E+03 0.  0.
         25    1    1    2    0    0  0.20374444876E+03 -0.45163518778E+02  0.18372382475E+03  0.30484584237E+03  0.12500000000E+03 0.  0.
</event>
<event>
 4    0  0.2202290E-002  0.3092630E+03  0.7546771E-02  0.1080700E+00
         21   -1    0    0  502  501  0.00000000000E+00  0.00000000000E+00  0.16274257590E+04  0.16274257590E+04  0.00000000000E+00 0. -1.
         21   -1    0    0  501  502 -0.00000000000E+00 -0.00000000000E+00 -0.58769867254E+02  0.58769867254E+02  0.00000000000E+00 0. -1.
         25    1    1    2    0    0  0.86393135764E+02 -0.20988482732E+03  0.32407488891E+03  0.41492764221E+03  0.12500000000E+03 0.  0.
         25    1    1    2    0    0 -0.86393135764E+02  0.20988482732E+03  0.12445810029E+04  0.12712679841E+04  0.12500000000E+03 0.  0.
</event>
<event>
 4    0  0.2202290E-002  0.1802035E+03  0.7546771E-02  0.1167606E+00
         21   -1    0    0  502  501  0.00000000000E+00  0.00000000000E+00  0.14955822071E+03  0.14955822071E+03  0.00000000000E+00 0.  1.
         21   -1    0    0  501  502 -0.00000000000E+00 -0.00000000000E+00 -0.21712817010E+03  0.21712817010E+03  0.00000000000E+00 0.  1.
         25    1    1    2    0    0  0.14274472082E+01 -0.73398675380E+02  0.75126345630E+02  0.16327391390E+03  0.12500000000E+03 0.  0.
         25    1    1    2    0    0 -0.14274472082E+01  0.73398675380E+02 -0.14269629502E+03  0.20341247691E+03  0.12500000000E+03 0.  0.
</event>
<event>
 4    0  0.2202290E-002  0.2605725E+03  0.7546771E-02  0.1106800E+00
         21   -1    0    0  502  501  0.00000000000E+00  0.00000000000E+00  0.12513783138E+03  0.12513783138E+03  0.00000000000E+00 0. -1.
         21   -1    0    0  501  502 -0.00000000000E+00 -0.00000000000E+00 -0.54258602408E+03  0.54258602408E+03  0.00000000000E+00 0. -1.
         25    1    1    2    0    0  0.71147231649E+02 -0.56336920567E+02  0.60149671712E+02  0.16576718673E+03  0.12500000000E+03 0.  0.
         25    1    1    2    0    0 -0.71147231649E+02  0.56336920567E+02 -0.47759786441E+03  0.50195666873E+03  0.12500000000E+03 0.  0.
</event>
<event>
 4    0  0.2202290E-002  0.1950836E+03  0.7546771E-02  0.1153955E+00
         21   -1    0    0  502  501  0.00000000000E+00  0.00000000000E+00  0.12892875371E+03  0.12892875371E+03  0.00000000000E+00 0.  1.
         21   -1    0    0  501  502 -0.00000000000E+00 -0.00000000000E+00 -0.29518336390E+03  0.29518336390E+03  0.00000000000E+00 0.  1.
         25    1    1    2    0    0 -0.92514228010E+02 -0.55077519136E+02  0.30047213700E+02  0.16769093759E+03  0.12500000000E+03 0.  0.
         25    1    1    2    0    0  0.92514228010E+02  0.55077519136E+02 -0.19630182389E+03  0.25642118001E+03  0.12500000000E+03 0.  0.
</event>
<event>
 4    0  0.2202290E-002  0.2086133E+03  0.7546771E-02  0.1142669E+00
         21   -1    0    0  502  501  0.00000000000E+00  0.00000000000E+00  0.15657440124E+03  0.15657440124E+03  0.00000000000E+00 0. -1.
         21   -1    0    0  501  502 -0.00000000000E+00 -0.00000000000E+00 -0.27794769918E+03  0.27794769918E+03  0.00000000000E+00 0. -1.
         25    1    1    2    0    0  0.52081550700E+02  0.58786715343E+02  0.92821391340E+02  0.17438227122E+03  0.12500000000E+03 0.  0.
         25    1    1    2    0    0 -0.52081550700E+02 -0.58786715343E+02 -0.21419468928E+03  0.26013982920E+03  0.12500000000E+03 0.  0.
</event>
<event>
 4    0  0.2202290E-002  0.2134250E+03  0.7546771E-02  0.1138882E+00
         21   -1    0    0  502  501  0.00000000000E+00  0.00000000000E+00  0.20249194624E+02  0.20249194624E+02  0.00000000000E+00 0.  1.
         21   -1    0    0  501  502 -0.00000000000E+00 -0.00000000000E+00 -0.22494834871E+04  0.22494834871E+04  0.00000000000E+00 0.  1.
         25    1    1    2    0    0 -0.89068281561E+02  0.94691043665E+02 -0.17214926053E+04  0.17309134417E+04  0.12500000000E+03 0.  0.
         25    1    1    2    0    0  0.89068281561E+02 -0.94691043665E+02 -0.50774168718E+03  0.53881924003E+03  0.12500000000E+03 0.  0.
</event>
<event>
 4    0  0.2202290E-002  0.2644591E+03  0.7546771E-02  0.1104493E+00
         21   -1    0    0  502  501  0.00000000000E+00  0.00000000000E+00  0.11561808506E+03  0.11561808506E+03  0.00000000000E+00 0.  1.
         21   -1    0    0  501  502 -0.00000000000E+00 -0.00000000000E+00 -0.60491050400E+03  0.60491050400E+03  0.00000000000E+00 0.  1.
         25    1    1    2    0    0  0.17972969306E+03  0.12254575959E+03 -0.35856778288E+03  0.43762550278E+03  0.12500000000E+03 0.  0.
         25    1    1    2    0    0 -0.17972969306E+03 -0.12254575959E+03 -0.13072463606E+03  0.28290308629E+03  0.12500000000E+03 0.  0.
</event>
<event>
 4    0  0.2202290E-002  0.1865341E+03  0.7546771E-02  0.1161625E+00
         21   -1    0    0  502  501  0.00000000000E+00  0.00000000000E+00  0.87207440239E+03  0.87207440239E+03  0.00000000000E+00 0.  1.
         21   -1    0    0  501  502 -0.00000000000E+00 -0.00000000000E+00 -0.39899075216E+02  0.39899075216E+02  0.00000000000E+00 0.  1.
         25    1    1    2    0    0 -0.95749836586E+02 -0.77642695812E+02  0.57018068592E+03  0.59659654208E+03  0.12500000000E+03 0.  0.
         25    1    1    2    0    0  0.95749836586E+02  0.77642695812E+02  0.26199464125E+03  0.31537693553E+03  0.12500000000E+03 0.  0.
</event>
<event>
 4    0  0.2202290E-002  0.4494088E+03  0.7546771E-02  0.1027898E+00
         21   -1    0    0  502  501  0.00000000000E+00  0.00000000000E+00  0.58060548264E+03  0.58060548264E+03  0.00000000000E+00 0.  1.
         21   -1    0    0  501  502 -0.00000000000E+00 -0.00000000000E+00 -0.34785806388E+03  0.34785806388E+03  0.00000000000E+00 0. -1.
         25    1    1    2    0    0 -0.40434223216E+03 -0.47972897312E+02 -0.31704565257E+02  0.42711148315E+03  0.12500000000E+03 0.  0.
         25    1    1    2    0    0  0.40434223216E+03  0.47972897312E+02  0.26445198402E+03  0.50135206336E+03  0.12500000000E+03 0.  0.
</event>
<event>
 4    0  0.2202290E-002  0.1815801E+03  0.7546771E-02  0.1166283E+00
         21   -1    0    0  502  501  0.00000000000E+00  0.00000000000E+00  0.35563196714E+03  0.35563196714E+03  0.00000000000E+00 0.  1.
         21   -1    0    0  501  502 -0.00000000000E+00 -0.00000000000E+00 -0.92711959197E+02  0.92711959197E+02  0.00000000000E+00 0.  1.
         25    1    1    2    0    0 -0.12405877249E+02 -0.40566063155E+02  0.28539376373E+03  0.31444254109E+03  0.12500000000E+03 0.  0.
         25    1    1    2    0    0  0.12405877249E+02  0.40566063155E+02 -0.22473755794E+02  0.13390138524E+03  0.12500000000E+03 0.  0.
</event>
<event>
 4    0  0.2202290E-002  0.2046474E+03  0.7546771E-02  0.1145876E+00
         21   -1    0    0  502  501  0.00000000000E+00  0.00000000000E+00  0.61847491632E+03  0.61847491632E+03  0.00000000000E+00 0. -1.
         21   -1    0    0  501  502 -0.00000000000E+00 -0.00000000000E+00 -0.67715874008E+02  0.67715874008E+02  0.00000000000E+00 0. -1.
         25    1    1    2    0    0 -0.15705011190E+03 -0.35769867384E+02  0.24579722007E+03  0.31935167834E+03  0.12500000000E+03 0.  0.
         25    1    1    2    0    0  0.15705011190E+03  0.35769867384E+02  0.30496182224E+03  0.36683911199E+03  0.12500000000E+03 0.  0.
</event>
<event>
 4    0  0.2202290E-002  0.1677483E+03  0.7546771E-02  0.1180217E+00
         21   -1    0    0  502  501  0.00000000000E+00  0.00000000000E+00  0.30015285342E+02  0.30015285342E+02  0.00000000000E+00 0.  1.
         21   -1    0    0  501  502 -0.00000000000E+00 -0.00000000000E+00 -0.93750493171E+03  0.93750493171E+03  0.00000000000E+00 0.  1.
         25    1    1    2    0    0 -0.99884881054E+02 -0.48883654176E+02 -0.41867591525E+03  0.45086707921E+03  0.12500000000E+03 0.  0.
         25    1    1    2    0    0  0.99884881054E+02  0.48883654176E+02 -0.48881373112E+03  0.51665313784E+03  0.12500000000E+03 0.  0.
</event>
<event>
 4    0  0.2202290E-002  0.3099892E+03  0.7546771E-02  0.1080351E+00
         21   -1    0    0  502  501  0.00000000000E+00  0.00000000000E+00  0.20753780162E+03  0.20753780162E+03  0.00000000000E+00 0. -1.
         21   -1    0    0  501  502 -0.00000000000E+00 -0.00000000000E+00 -0.46301576902E+03  0.46301576902E+03  0.00000000000E+00 0. -1.
         25    1    1    2    0    0 -0.77775286907E+02  0.25441510835E+03 -0.23421919196E+03  0.37584527733E+03  0.12500000000E+03 0.  0.
         25    1    1    2    0    0  0.77775286907E+02 -0.25441510835E+03 -0.21258775437E+02  0.29470829330E+03  0.12500000000E+03 0.  0.
</event>
<event>
 4    0  0.2202290E-002  0.2052871E+03  0.7546771E-02  0.1145353E+00
         21   -1    0    0  502  501  0.00000000000E+00  0.00000000000E+00  0.15467242306E+03  0.15467242306E+03  0.00000000000E+00 0. -1.
         21   -1    0    0  501  502 -0.00000000000E+00 -0.00000000000E+00 -0.27246474440E+03  0.27246474440E+03  0.00000000000E+00 0. -1.
         25    1    1    2    0    0 -0.24829590119E+02  0.83696875744E+02  0.84112365733E+02  0.17413088647E+03  0.12500000000E+03 0.  0.
         25    1    1    2    0    0  0.24829590119E+02 -0.83696875744E+02 -0.20190468707E+03  0.25300628098E+03  0.12500000000E+03 0.  0.
</event>
<event>
 4    0  0.2202290E-002  0.2341569E+03  0.7546771E-02  0.1123748E+00
         21   -1    0    0  502  501  0.00000000000E+00  0.00000000000E+00  0.33002319251E+02  0.33002319251E+02  0.00000000000E+00 0.  1.
         21   -1    0    0  501  502 -0.00000000000E+00 -0.00000000000E+00 -0.16613812962E+04  0.16613812962E+04  0.00000000000E+00 0.  1.
         25    1    1    2    0    0  0.19606380147E+03 -0.13442279333E+02 -0.72685066060E+03  0.76325526001E+03  0.12500000000E+03 0.  0.
         25    1    1    2    0    0 -0.19606380147E+03  0.13442279333E+02 -0.90152831633E+03  0.93112835542E+03  0.12500000000E+03 0.  0.
</event>
<event>
 4    0  0.2202290E-002  0.1904544E+03  0.7546771E-02  0.1158052E+00
         21   -1    0    0  502  501  0.00000000000E+00  0.00000000000E+00  0.26106685336E+02  0.26106685336E+02  0.00000000000E+00 0. -1.
         21   -1    0    0  501  502 -0.00000000000E+00 -0.00000000000E+00 -0.13894090593E+04  0.13894090593E+04  0.00000000000E+00 0. -1.
         25    1    1    2    0    0  0.79632390725E+02 -0.10842621084E+03 -0.49398338095E+03  0.52701246807E+03  0.12500000000E+03 0.  0.
         25    1    1    2    0    0 -0.79632390725E+02  0.10842621084E+03 -0.86931899302E+03  0.88850327656E+03  0.12500000000E+03 0.  0.
</event>
<event>
 4    0  0.2202290E-002  0.2147245E+03  0.7546771E-02  0.1137878E+00
         21   -1    0    0  502  501  0.00000000000E+00  0.00000000000E+00  0.43515911642E+02  0.43515911642E+02  0.00000000000E+00 0.  1.
         21   -1    0    0  501  502 -0.00000000000E+00 -0.00000000000E+00 -0.10595344892E+04  0.10595344892E+04  0.00000000000E+00 0.  1.
         25    1    1    2    0    0  0.12116943092E+03 -0.11758877773E+03 -0.62208353405E+03  0.65659886916E+03  0.12500000000E+03 0.  0.
         25    1    1    2    0    0 -0.12116943092E+03  0.11758877773E+03 -0.39393504346E+03  0.44645153164E+03  0.12500000000E+03 0.  0.
</event>
<event>
 4    0  0.2202290E-002  0.1697757E+03  0.7546771E-02  0.1178082E+00
         21   -1    0    0  502  501  0.00000000000E+00  0.00000000000E+00  0.75491723691E+03  0.75491723691E+03  0.00000000000E+00 0. -1.
         21   -1    0    0  501  502 -0.00000000000E+00 -0.00000000000E+00 -0.38181409526E+02  0.38181409526E+02  0.00000000000E+00 0. -1.
         25    1    1    2    0    0 -0.85686569315E+02  0.22289418116E+02  0.18736804805E+03  0.24201403213E+03  0.12500000000E+03 0.  0.
         25    1    1    2    0    0  0.85686569315E+02 -0.22289418116E+02  0.52936777933E+03  0.55108461430E+03  0.12500000000E+03 0.  0.
</event>
<event>
 4    0  0.2202290E-002  0.1878662E+03  0.7546771E-02  0.1160400E+00
         21   -1    0    0  502  501  0.00000000000E+00  0.00000000000E+00  0.67243120711E+02  0.67243120711E+02  0.00000000000E+00 0. -1.
         21   -1    0    0  501  502 -0.00000000000E+00 -0.00000000000E+00 -0.52486697717E+03  0.52486697717E+03  0.00000000000E+00 0. -1.
         25    1    1    2    0    0 -0.84951109566E+02  0.99374606714E+01 -0.53660162000E+02  0.16068558469E+03  0.12500000000E+03 0.  0.
         25    1    1    2    0    0  0.84951109566E+02 -0.99374606714E+01 -0.40396369446E+03  0.43142451319E+03  0.12500000000E+03 0.  0.
</event>
<event>
 4    0  0.2202290E-002  0.2370577E+03  0.7546771E-02  0.1121769E+00
         21   -1    0    0  502  501  0.00000000000E+00  0.00000000000E+00  0.92067640551E+02  0.92067640551E+02  0.00000000000E+00 0.  1.
         21   -1    0    0  501  502 -0.00000000000E+00 -0.00000000000E+00 -0.61038121478E+03  0.61038121478E+03  0.00000000000E+00 0.  1.
         25    1    1    2    0    0  0.16254026307E+03  0.23264805562E+02 -0.43200781817E+03  0.47876543658E+03  0.12500000000E+03 0.  0.
         25    1    1    2    0    0 -0.16254026307E+03 -0.23264805562E+02 -0.86305756056E+02  0.22368341876E+03  0.12500000000E+03 0.  0.
</event>
<event>
 4    0  0.2202290E-002  0.2562838E+03  0.7546771E-02  0.1109397E+00
         21   -1    0    0  502  501  0.00000000000E+00  0.00000000000E+00  0.12222459287E+04  0.12222459287E+04  0.00000000000E+00 0.  1.
         21   -1    0    0  501  502 -0.00000000000E+00 -0.00000000000E+00 -0.53738277992E+02  0.53738277992E+02  0.00000000000E+00 0.  1.
         25    1    1    2    0    0 -0.19054403636E+03  0.95915852584E+02  0.41634385427E+03  0.48422524259E+03  0.12500000000E+03 0.  0.
         25    1    1    2    0    0  0.19054403636E+03 -0.95915852584E+02  0.75216379648E+03  0.79175896414E+03  0.12500000000E+03 0.  0.
</event>
<event>
 4    0  0.2202290E-002  0.2124601E+03  0.7546771E-02  0.1139633E+00
         21   -1    0    0  502  501  0.00000000000E+00  0.00000000000E+00  0.55600978186E+03  0.55600978186E+03  0.00000000000E+00 0. -1.
         21   -1    0    0  501  502 -0.00000000000E+00 -0.00000000000E+00 -0.81184382201E+02  0.81184382201E+02  0.00000000000E+00 0. -1.
         25    1    1    2    0    0  0.29345758433E+02 -0.16082511800E+03  0.31659777112E+03  0.37760434425E+03  0.12500000000E+03 0.  0.
         25    1    1    2    0    0 -0.29345758433E+02  0.16082511800E+03  0.15822762854E+03  0.25958981981E+03  0.12500000000E+03 0.  0.
</event>
<event>
 4    0  0.2202290E-002  0.1631119E+03  0.7546771E-02  0.1185228E+00
         21   -1    0    0  502  501  0.00000000000E+00  0.00000000000E+00  0.59899180648E+02  0.59899180648E+02  0.00000000000E+00 0. -1.
         21   -1    0    0  501  502 -0.00000000000E+00 -0.00000000000E+00 -0.44417098576E+03  0.44417098576E+03  0.00000000000E+00 0. -1.
         25    1    1    2    0    0 -0.23398428138E+00  0.29703930843E+02 -0.34740867061E+03  0.37040540314E+03  0.12500000000E+03 0.  0.
         25    1    1    2    0    0  0.23398428138E+00 -0.29703930843E+02 -0.36863134506E+02  0.13366476328E+03  0.12500000000E+03 0.  0.
</event>
<event>
 4    0  0.2202290E-002  0.1484847E+03  0.7546771E-02  0.1202347E+00
         21   -1    0    0  502  501  0.00000000000E+00  0.00000000000E+00  0.44858995652E+03  0.44858995652E+03  0.00000000000E+00 0. -1.
         21   -1    0    0  501  502 -0.00000000000E+00 -0.00000000000E+00 -0.49148925402E+02  0.49148925402E+02  0.00000000000E+00 0. -1.
         25    1    1    2    0    0  0.43746112313E+02 -0.58734344713E+02  0.25427027745E+03  0.29264623625E+03  0.12500000000E+03 0.  0.
         25    1    1    2    0    0 -0.43746112313E+02  0.58734344713E+02  0.14517075366E+03  0.20509264567E+03  0.12500000000E+03 0.  0.
</event>
<event>
 4    0  0.2202290E-002  0.2476466E+03  0.7546771E-02  0.1114801E+00
         21   -1    0    0  502  501  0.00000000000E+00  0.00000000000E+00  0.11653161447E+04  0.11653161447E+04  0.00000000000E+00 0.  1.
         21   -1    0    0  501  502 -0.00000000000E+00 -0.00000000000E+00 -0.52628514929E+02  0.52628514929E+02  0.00000000000E+00 0.  1.
         25    1    1    2    0    0 -0.21213372993E+03 -0.11674339459E+02  0.61489000474E+03  0.66245884967E+03  0.12500000000E+03 0.  0.
         25    1    1    2    0    0  0.21213372993E+03  0.11674339459E+02  0.49779762501E+03  0.55548580994E+03  0.12500000000E+03 0.  0.
</event>
<event>
 4    0  0.2202290E-002  0.2931999E+03  0.7546771E-02  0.1088690E+00
         21   -1    0    0  502  501  0.00000000000E+00  0.00000000000E+00  0.49655153110E+03  0.49655153110E+03  0.00000000000E+00 0. -1.
         21   -1    0    0  501  502 -0.00000000000E+00 -0.00000000000E+00 -0.17312642240E+03  0.17312642240E+03  0.00000000000E+00 0. -1.
         25    1    1    2    0    0  0.24128095886E+03 -0.47898896502E+02  0.27494148961E+03  0.38952359120E+03  0.12500000000E+03 0.  0.
         25    1    1    2    0    0 -0.24128095886E+03  0.47898896502E+02  0.48483619084E+02  0.28015436230E+03  0.12500000000E+03 0.  0.
</event>
<event>
 4    0  0.2202290E-002  0.3727335E+03  0.7546771E-02  0.1053653E+00
         21   -1    0    0  502  501  0.00000000000E+00  0.00000000000E+00  0.35972964299E+03  0.35972964299E+03  0.00000000000E+00 0. -1.
         21   -1    0    0  501  502 -0.00000000000E+00 -0.00000000000E+00 -0.38620750774E+03  0.38620750774E+03  0.00000000000E+00 0. -1.
         25    1    1    2    0    0 -0.13924189030E+03 -0.25163773314E+03  0.18837121080E+03  0.36581220020E+03  0.12500000000E+03 0.  0.
         25    1    1    2    0    0  0.13924189030E+03  0.25163773314E+03 -0.21484907555E+03  0.38012495053E+03  0.12500000000E+03 0.  0.
</event>
<event>
 4    0  0.2202290E-002  0.2353913E+03  0.7546771E-02  0.1122902E+00
         21   -1    0    0  502  501  0.00000000000E+00  0.00000000000E+00  0.29147863706E+02  0.29147863706E+02  0.00000000000E+00 0.  1.
         21   -1    0    0  501  502 -0.00000000000E+00 -0.00000000000E+00 -0.19009644406E+04  0.19009644406E+04  0.00000000000E+00 0.  1.
         25    1    1    2    0    0 -0.55749848061E+02  0.93131259786E+02 -0.24984969424E+03  0.29971877956E+03  0.12500000000E+03 0.  0.
         25    1    1    2    0    0  0.55749848061E+02 -0.93131259786E+02 -0.16219668826E+04  0.16303935247E+04  0.12500000000E+03 0.  0.
</event>
<event>
 4    0  0.2202290E-002  0.6999656E+03  0.7546771E-02  0.9717291E-01
         21   -1    0    0  502  501  0.00000000000E+00  0.00000000000E+00  0.38692519254E+03  0.38692519254E+03  0.00000000000E+00 0.  1.
         21   -1    0    0  501  502 -0.00000000000E+00 -0.00000000000E+00 -0.12662702163E+04  0.12662702163E+04  0.00000000000E+00 0. -1.
         25    1    1    2    0    0 -0.47660070709E+03 -0.41038835214E+03 -0.77108615794E+03  0.10028787048E+04  0.12500000000E+03 0.  0.
         25    1    1    2    0    0  0.47660070709E+03  0.41038835214E+03 -0.10825886585E+03  0.65031670408E+03  0.12500000000E+03 0.  0.
</event>
<event>
 4    0  0.2202290E-002  0.2021076E+03  0.7546771E-02  0.1147973E+00
         21   -1    0    0  502  501  0.00000000000E+00  0.00000000000E+00  0.28789412447E+03  0.28789412447E+03  0.00000000000E+00 0.  1.
         21   -1    0    0  501  502 -0.00000000000E+00 -0.00000000000E+00 -0.14188367244E+03  0.14188367244E+03  0.00000000000E+00 0.  1.
         25    1    1    2    0    0  0.23189957067E+02  0.13623594475E+03  0.15621332218E+03  0.24315758014E+03  0.12500000000E+03 0.  0.
         25    1    1    2    0    0 -0.23189957067E+02 -0.13623594475E+03 -0.10202870153E+02  0.18662021678E+03  0.12500000000E+03 0.  0.
</event>
<event>
 4    0  0.2202290E-002  0.1806865E+03  0.7546771E-02  0.1167140E+00
         21   -1    0    0  502  501  0.00000000000E+00  0.00000000000E+00  0.21945404289E+03  0.21945404289E+03  0.00000000000E+00 0.  1.
         21   -1    0    0  501  502 -0.00000000000E+00 -0.00000000000E+00 -0.14876739259E+03  0.14876739259E+03  0.00000000000E+00 0.  1.
         25    1    1    2    0    0  0.28625920358E+01  0.83634739876E+02 -0.66651819013E+02  0.16453093668E+03  0.12500000000E+03 0.  0.
         25    1    1    2    0    0 -0.28625920358E+01 -0.83634739876E+02  0.13733846932E+03  0.20369049880E+03  0.12500000000E+03 0.  0.
</event>
<event>
 4    0  0.2202290E-002  0.1674671E+03  0.7546771E-02  0.1180515E+00
         21   -1    0    0  502  501  0.00000000000E+00  0.00000000000E+00  0.26653684523E+03  0.26653684523E+03  0.00000000000E+00 0.  1.
         21   -1    0    0  501  502 -0.00000000000E+00 -0.00000000000E+00 -0.10522079761E+03  0.10522079761E+03  0.00000000000E+00 0.  1.
         25    1    1    2    0    0  0.37750871793E+02  0.50996520089E+02  0.18235230019E+03  0.23000681461E+03  0.12500000000E+03 0.  0.
         25    1    1    2    0    0 -0.37750871793E+02 -0.50996520089E+02 -0.21036252575E+02  0.14175082823E+03  0.12500000000E+03 0.  0.
</event>
<event>
 4    0  0.2202290E-002  0.1631161E+03  0.7546771E-02  0.1185223E+00
         21   -1    0    0  502  501  0.00000000000E+00  0.00000000000E+00  0.34614571636E+03  0.34614571636E+03  0.00000000000E+00 0.  1.
         21   -1    0    0  501  502 -0.00000000000E+00 -0.00000000000E+00 -0.76866069808E+02  0.76866069808E+02  0.00000000000E+00 0.  1.
         25    1    1    2    0    0  0.10924267567E+02  0.94760142061E+02  0.78372657442E+02  0.17568749978E+03  0.12500000000E+03 0.  0.
         25    1    1    2    0    0 -0.10924267567E+02 -0.94760142061E+02  0.19090698911E+03  0.24732428639E+03  0.12500000000E+03 0.  0.
</event>
<event>
 4    0  0.2202290E-002  0.2098073E+03  0.7546771E-02  0.1141719E+00
         21   -1    0    0  502  501  0.00000000000E+00  0.00000000000E+00  0.48952201276E+03  0.48952201276E+03  0.00000000000E+00 0.  1.
         21   -1    0    0  501  502 -0.00000000000E+00 -0.00000000000E+00 -0.89922616074E+02  0.89922616074E+02  0.00000000000E+00 0.  1.
         25    1    1    2    0    0  0.72180825700E+02  0.77456152231E+02  0.38082143944E+03  0.41455939967E+03  0.12500000000E+03 0.  0.
         25    1    1    2    0    0 -0.72180825700E+02 -0.77456152231E+02  0.18777957241E+02  0.16488522916E+03  0.12500000000E+03 0.  0.
</event>
<event>
 4    0  0.2202290E-002  0.2823845E+03  0.7546771E-02  0.1094394E+00
         21   -1    0    0  502  501  0.00000000000E+00  0.00000000000E+00  0.51601878821E+02  0.51601878821E+02  0.00000000000E+00 0. -1.
         21   -1    0    0  501  502 -0.00000000000E+00 -0.00000000000E+00 -0.15453123934E+04  0.15453123934E+04  0.00000000000E+00 0. -1.
         25    1    1    2    0    0  0.23133692367E+03 -0.61437074168E+02 -0.98044493668E+03  0.10169506184E+04  0.12500000000E+03 0.  0.
         25    1    1    2    0    0 -0.23133692367E+03  0.61437074168E+02 -0.51326557791E+03  0.57996365386E+03  0.12500000000E+03 0.  0.
</event>
<event>
 4    0  0.2202290E-002  0.2179080E+03  0.7546771E-02  0.1135452E+00
         21   -1    0    0  502  501  0.00000000000E+00  0.00000000000E+00  0.46092044094E+02  0.46092044094E+02  0.00000000000E+00 0.  1.
         21   -1    0    0  501  502 -0.00000000000E+00 -0.00000000000E+00 -0.10301976912E+04  0.10301976912E+04  0.00000000000E+00 0.  1.
         25    1    1    2    0    0 -0.60878044669E+01  0.41662107786E+02 -0.63692676752E+02  0.14647371662E+03  0.12500000000E+03 0.  0.
         25    1    1    2    0    0  0.60878044669E+01 -0.41662107786E+02 -0.92041297034E+03  0.92981601866E+03  0.12500000000E+03 0.  0.
</event>
<event>
 4    0  0.2202290E-002  0.2786154E+03  0.7546771E-02  0.1096448E+00
         21   -1    0    0  502  501  0.00000000000E+00  0.00000000000E+00  0.12409912820E+03  0.12409912820E+03  0.00000000000E+00 0.  1.
         21   -1    0    0  501  502 -0.00000000000E+00 -0.00000000000E+00 -0.62552029652E+03  0.62552029652E+03  0.00000000000E+00 0.  1.
         25    1    1    2    0    0 -0.22233823590E+03 -0.54394711338E+02 -0.38257644775E+03  0.46301491783E+03  0.12500000000E+03 0.  0.
         25    1    1    2    0    0  0.22233823590E+03  0.54394711338E+02 -0.11884472057E+03  0.28660450689E+03  0.12500000000E+03 0.  0.
</event>
<event>
 4    0  0.2202290E-002  0.1855950E+03  0.7546771E-02  0.1162495E+00
         21   -1    0    0  502  501  0.00000000000E+00  0.00000000000E+00  0.20377039078E+03  0.20377039078E+03  0.00000000000E+00 0.  1.
         21   -1    0    0  501  502 -0.00000000000E+00 -0.00000000000E+00 -0.16904070264E+03  0.16904070264E+03  0.00000000000E+00 0.  1.
         25    1    1    2    0    0 -0.65152624247E+02  0.11938693725E+03 -0.66865190421E+00  0.18472561362E+03  0.12500000000E+03 0.  0.
         25    1    1    2    0    0  0.65152624247E+02 -0.11938693725E+03  0.35398340042E+02  0.18808547980E+03  0.12500000000E+03 0.  0.
</event>
<event>
 4    0  0.2202290E-002  0.1895581E+03  0.7546771E-02  0.1158860E+00
         21   -1    0    0  502  501  0.00000000000E+00  0.00000000000E+00  0.15162531049E+03  0.15162531049E+03  0.00000000000E+00 0. -1.
         21   -1    0    0  501  502 -0.00000000000E+00 -0.00000000000E+00 -0.23698073209E+03  0.23698073209E+03  0.00000000000E+00 0. -1.
         25    1    1    2    0    0 -0.11755712001E+03  0.72042394636E+02 -0.79600105581E+02  0.20241284519E+03  0.12500000000E+03 0.  0.
         25    1    1    2    0    0  0.11755712001E+03 -0.72042394636E+02 -0.57553160178E+01  0.18619319739E+03  0.12500000000E+03 0.  0.
</event>
<event>
 4    0  0.2202290E-002  0.2154228E+03  0.7546771E-02  0.1137342E+00
         21   -1    0    0  502  501  0.00000000000E+00  0.00000000000E+00  0.58612048825E+02  0.58612048825E+02  0.00000000000E+00 0. -1.
         21   -1    0    0  501  502 -0.00000000000E+00 -0.00000000000E+00 -0.79176550053E+03  0.79176550053E+03  0.00000000000E+00 0. -1.
         25    1    1    2    0    0 -0.17344852204E+03  0.20675292501E+02 -0.33413641344E+03  0.39722034226E+03  0.12500000000E+03 0.  0.
         25    1    1    2    0    0  0.17344852204E+03 -0.20675292501E+02 -0.39901703827E+03  0.45315720710E+03  0.12500000000E+03 0.  0.
</event>
<event>
 4    0  0.2202290E-002  0.1866575E+03  0.7546771E-02  0.1161511E+00
         21   -1    0    0  502  501  0.00000000000E+00  0.00000000000E+00  0.45684484772E+03  0.45684484772E+03  0.00000000000E+00 0. -1.
         21   -1    0    0  501  502 -0.00000000000E+00 -0.00000000000E+00 -0.76264443016E+02  0.76264443016E+02  0.00000000000E+00 0. -1.
         25    1    1    2    0    0 -0.13308962309E+03  0.19742859161E+01  0.24558459523E+03  0.30602865714E+03  0.12500000000E+03 0.  0.
         25    1    1    2    0    0  0.13308962309E+03 -0.19742859161E+01  0.13499580947E+03  0.22708063359E+03  0.12500000000E+03 0.  0.
</event>
<event>
 4    0  0.2202290E-002  0.2437314E+03  0.7546771E-02  0.1117332E+00
         21   -1    0    0  502  501  0.00000000000E+00  0.00000000000E+00  0.13868821817E+03  0.13868821817E+03  0.00000000000E+00 0.  1.
         21   -1    0    0  501  502 -0.00000000000E+00 -0.00000000000E+00 -0.42833480301E+03  0.42833480301E+03  0.00000000000E+00 0.  1.
         25    1    1    2    0    0  0.96587009517E+02  0.13306536756E+03 -0.29534389444E+03  0.36040041403E+03  0.12500000000E+03 0.  0.
         25    1    1    2    0    0 -0.96587009517E+02 -0.13306536756E+03  0.56973095957E+01  0.20662260716E+03  0.12500000000E+03 0.  0.
</event>
<event>
 4    0  0.2202290E-002  0.1813048E+03  0.7546771E-02  0.1166546E+00
         21   -1    0    0  502  501  0.00000000000E+00  0.00000000000E+00  0.36187553188E+02  0.36187553188E+02  0.00000000000E+00 0. -1.
         21   -1    0    0  501  502 -0.00000000000E+00 -0.00000000000E+00 -0.90836334842E+03  0.90836334842E+03  0.00000000000E+00 0. -1.
         25    1    1    2    0    0  0.97235966823E+02  0.88029040282E+02 -0.45306992989E+03  0.48795625475E+03  0.12500000000E+03 0.  0.
         25    1    1    2    0    0 -0.97235966823E+02 -0.88029040282E+02 -0.41910586534E+03  0.45659464686E+03  0.12500000000E+03 0.  0.
</event>
<event>
 4    0  0.2202290E-002  0.1909504E+03  0.7546771E-02  0.1157607E+00
         21   -1    0    0  502  501  0.00000000000E+00  0.00000000000E+00  0.27460968826E+04  0.27460968826E+04  0.00000000000E+00 0.  1.
         21   -1    0    0  501  502 -0.00000000000E+00 -0.00000000000E+00 -0.13277773537E+02  0.13277773537E+02  0.00000000000E+00 0.  1.
         25    1    1    2    0    0  0.10070602962E+03 -0.18682623359E+02  0.21013511273E+04  0.21075560028E+04  0.12500000000E+03 0.  0.
         25    1    1    2    0    0 -0.10070602962E+03  0.18682623359E+02  0.63146798171E+03  0.65181865326E+03  0.12500000000E+03 0.  0.
</event>
<event>
 4    0  0.2202290E-002  0.3081629E+03  0.7546771E-02  0.1081230E+00
         21   -1    0    0  502  501  0.00000000000E+00  0.00000000000E+00  0.54758314008E+02  0.54758314008E+02  0.00000000000E+00 0. -1.
         21   -1    0    0  501  502 -0.00000000000E+00 -0.00000000000E+00 -0.17342455751E+04  0.17342455751E+04  0.00000000000E+00 0. -1.
         25    1    1    2    0    0  0.81202639319E+02  0.15129794641E+02 -0.16214067614E+04  0.16283143631E+04  0.12500000000E+03 0.  0.
         25    1    1    2    0    0 -0.81202639319E+02 -0.15129794641E+02 -0.58080499738E+02  0.16068952601E+03  0.12500000000E+03 0.  0.
</event>
<event>
 4    0  0.2202290E-002  0.2000352E+03  0.7546771E-02  0.1149709E+00
         21   -1    0    0  502  501  0.00000000000E+00  0.00000000000E+00  0.34271230409E+03  0.34271230409E+03  0.00000000000E+00 0. -1.
         21   -1    0    0  501  502 -0.00000000000E+00 -0.00000000000E+00 -0.11675701892E+03  0.11675701892E+03  0.00000000000E+00 0. -1.
         25    1    1    2    0    0 -0.55678326580E+02 -0.89735354241E+02  0.24510954763E+03  0.29471375976E+03  0.12500000000E+03 0.  0.
         25    1    1    2    0    0  0.55678326580E+02  0.89735354241E+02 -0.19154262457E+02  0.16475556325E+03  0.12500000000E+03 0.  0.
</event>
<event>
 4    0  0.2202290E-002  0.2539407E+03  0.7546771E-02  0.1110839E+00
         21   -1    0    0  502  501  0.00000000000E+00  0.00000000000E+00  0.29869436979E+03  0.29869436979E+03  0.00000000000E+00 0. -1.
         21   -1    0    0  501  502 -0.00000000000E+00 -0.00000000000E+00 -0.21589245097E+03  0.21589245097E+03  0.00000000000E+00 0. -1.
         25    1    1    2    0    0  0.18601710434E+03  0.37816266946E+02  0.15615899642E+03  0.27575907114E+03  0.12500000000E+03 0.  0.
         25    1    1    2    0    0 -0.18601710434E+03 -0.37816266946E+02 -0.73357077607E+02  0.23882774962E+03  0.12500000000E+03 0.  0.
</event>
<event>
 4    0  0.2202290E-002  0.2339269E+03  0.7546771E-02  0.1123906E+00
         21   -1    0    0  502  501  0.00000000000E+00  0.00000000000E+00  0.70005752754E+02  0.70005752754E+02  0.00000000000E+00 0. -1.
         21   -1    0    0  501  502 -0.00000000000E+00 -0.00000000000E+00 -0.78167557500E+03  0.78167557500E+03  0.00000000000E+00 0. -1.
         25    1    1    2    0    0 -0.52443593073E+02 -0.21296377193E+02 -0.70071759962E+03  0.71402662454E+03  0.12500000000E+03 0.  0.
         25    1    1    2    0    0  0.52443593073E+02  0.21296377193E+02 -0.10952222626E+02  0.13765470321E+03  0.12500000000E+03 0.  0.
</event>
<event>
 4    0  0.2202290E-002  0.2375923E+03  0.7546771E-02  0.1121407E+00
         21   -1    0    0  502  501  0.00000000000E+00  0.00000000000E+00  0.12241723368E+04  0.12241723368E+04  0.00000000000E+00 0.  1.
         21   -1    0    0  501  502 -0.00000000000E+00 -0.00000000000E+00 -0.46112857358E+02  0.46112857358E+02  0.00000000000E+00 0.  1.
         25    1    1    2    0    0  0.12432680541E+03 -0.15000689373E+03  0.73213860961E+03  0.76786142395E+03  0.12500000000E+03 0.  0.
         25    1    1    2    0    0 -0.12432680541E+03  0.15000689373E+03  0.44592086979E+03  0.50242377016E+03  0.12500000000E+03 0.  0.
</event>
<event>
 4    0  0.2202290E-002  0.1506537E+03  0.7546771E-02  0.1199672E+00
         21   -1    0    0  502  501  0.00000000000E+00  0.00000000000E+00  0.31212245532E+03  0.31212245532E+03  0.00000000000E+00 0. -1.
         21   -1    0    0  501  502 -0.00000000000E+00 -0.00000000000E+00 -0.72716790257E+02  0.72716790257E+02  0.00000000000E+00 0. -1.
         25    1    1    2    0    0 -0.86122267740E+01 -0.69690612474E+02  0.60609787543E+02  0.15565827399E+03  0.12500000000E+03 0.  0.
         25    1    1    2    0    0  0.86122267740E+01  0.69690612474E+02  0.17879587752E+03  0.22918097158E+03  0.12500000000E+03 0.  0.
</event>
<event>
 4    0  0.2202290E-002  0.2264882E+03  0.7546771E-02  0.1129136E+00
         21   -1    0    0  502  501  0.00000000000E+00  0.00000000000E+00  0.23615969311E+02  0.23615969311E+02  0.00000000000E+00 0. -1.
         21   -1    0    0  501  502 -0.00000000000E+00 -0.00000000000E+00 -0.21721286609E+04  0.21721286609E+04  0.00000000000E+00 0. -1.
         25    1    1    2    0    0  0.11057977364E+03  0.14727783978E+03 -0.87128663234E+03  0.89926861622E+03  0.12500000000E+03 0.  0.
         25    1    1    2    0    0 -0.11057977364E+03 -0.14727783978E+03 -0.12772260593E+04  0.12964760140E+04  0.12500000000E+03 0.  0.
</event>
<event>
 4    0  0.2202290E-002  0.2343563E+03  0.7546771E-02  0.1123611E+00
         21   -1    0    0  502  501  0.00000000000E+00  0.00000000000E+00  0.18114957847E+03  0.18114957847E+03  0.00000000000E+00 0.  1.
         21   -1    0    0  501  502 -0.00000000000E+00 -0.00000000000E+00 -0.30319084434E+03  0.30319084434E+03  0.00000000000E+00 0.  1.
         25    1    1    2    0    0 -0.45280902897E+02 -0.34976665669E+02 -0.25714925874E+03  0.29158955499E+03  0.12500000000E+03 0.  0.
         25    1    1    2    0    0  0.45280902897E+02  0.34976665669E+02  0.13510799287E+03  0.19275086782E+03  0.12500000000E+03 0.  0.
</event>
<event>
 4    0  0.2202290E-002  0.2519540E+03  0.7546771E-02  0.1112076E+00
         21   -1    0    0  502  501  0.00000000000E+00  0.00000000000E+00  0.28510546277E+03  0.28510546277E+03  0.00000000000E+00 0. -1.
         21   -1    0    0  501  502 -0.00000000000E+00 -0.00000000000E+00 -0.22265733986E+03  0.22265733986E+03  0.00000000000E+00 0. -1.
         25    1    1    2    0    0  0.18773624880E+03  0.11222061509E+03  0.35434344244E+02  0.25439921053E+03  0.12500000000E+03 0.  0.
         25    1    1    2    0    0 -0.18773624880E+03 -0.11222061509E+03  0.27013778669E+02  0.25336359210E+03  0.12500000000E+03 0.  0.
</event>
<event>
 4    0  0.2202290E-002  0.1885126E+03  0.7546771E-02  0.1159810E+00
         21   -1    0    0  502  501  0.00000000000E+00  0.00000000000E+00  0.43022461037E+02  0.43022461037E+02  0.00000000000E+00 0. -1.
         21   -1    0    0  501  502 -0.00000000000E+00 -0.00000000000E+00 -0.82601067959E+03  0.82601067959E+03  0.00000000000E+00 0. -1.
         25    1    1    2    0    0  0.52730423818E+02 -0.12412296179E+03 -0.48722697750E+03  0.52077071235E+03  0.12500000000E+03 0.  0.
         25    1    1    2    0    0 -0.52730423818E+02  0.12412296179E+03 -0.29576124106E+03  0.34826242828E+03  0.12500000000E+03 0.  0.
</event>
<event>
 4    0  0.2202290E-002  0.3413805E+03  0.7546771E-02  0.1066209E+00
         21   -1    0    0  502  501  0.00000000000E+00  0.00000000000E+00  0.30417557737E+03  0.30417557737E+03  0.00000000000E+00 0. -1.
         21   -1    0    0  501  502 -0.00000000000E+00 -0.00000000000E+00 -0.38313616370E+03  0.38313616370E+03  0.00000000000E+00 0. -1.
         25    1    1    2    0    0  0.28757164087E+02  0.29786350196E+03 -0.14680242692E+03  0.35598538289E+03  0.12500000000E+03 0.  0.
         25    1    1    2    0    0 -0.28757164087E+02 -0.29786350196E+03  0.67841840588E+02  0.33132635817E+03  0.12500000000E+03 0.  0.
</event>
<event>
 4    0  0.2202290E-002  0.3156852E+03  0.7546771E-02  0.1077652E+00
         21   -1    0    0  502  501  0.00000000000E+00  0.00000000000E+00  0.87756016708E+02  0.87756016708E+02  0.00000000000E+00 0.  1.
         21   -1    0    0  501  502 -0.00000000000E+00 -0.00000000000E+00 -0.11356160108E+04  0.11356160108E+04  0.00000000000E+00 0.  1.
         25    1    1    2    0    0  0.76367643480E+02  0.21488289953E+03 -0.87068444051E+03  0.90869305732E+03  0.12500000000E+03 0.  0.
         25    1    1    2    0    0 -0.76367643480E+02 -0.21488289953E+03 -0.17717555356E+03  0.31467897016E+03  0.12500000000E+03 0.  0.
</event>
<event>
 4    0  0.2202290E-002  0.2130011E+03  0.7546771E-02  0.1139211E+00
         21   -1    0    0  502  501  0.00000000000E+00  0.00000000000E+00  0.61804065467E+03  0.61804065467E+03  0.00000000000E+00 0.  1.
         21   -1    0    0  501  502 -0.00000000000E+00 -0.00000000000E+00 -0.73408525101E+02  0.73408525101E+02  0.00000000000E+00 0.  1.
         25    1    1    2    0    0  0.14403105543E+03 -0.42811022718E+02  0.13490906777E+03  0.23749354762E+03  0.12500000000E+03 0.  0.
         25    1    1    2    0    0 -0.14403105543E+03  0.42811022718E+02  0.40972306180E+03  0.45395563215E+03  0.12500000000E+03 0.  0.
</event>
<event>
 4    0  0.2202290E-002  0.2831792E+03  0.7546771E-02  0.1093965E+00
         21   -1    0    0  502  501  0.00000000000E+00  0.00000000000E+00  0.48777411322E+03  0.48777411322E+03  0.00000000000E+00 0. -1.
         21   -1    0    0  501  502 -0.00000000000E+00 -0.00000000000E+00 -0.16440076281E+03  0.16440076281E+03  0.00000000000E+00 0. -1.
         25    1    1    2    0    0  0.18857209691E+03 -0.15273578517E+03  0.74918177242E+02  0.28306428437E+03  0.12500000000E+03 0.  0.
         25    1    1    2    0    0 -0.18857209691E+03  0.15273578517E+03  0.24845517317E+03  0.36911059166E+03  0.12500000000E+03 0.  0.
</event>
<event>
 4    0  0.2202290E-002  0.2645169E+03  0.7546771E-02  0.1104459E+00
         21   -1    0    0  502  501  0.00000000000E+00  0.00000000000E+00  0.10937056835E+04  0.10937056835E+04  0.00000000000E+00 0. -1.
         21   -1    0    0  501  502 -0.00000000000E+00 -0.00000000000E+00 -0.63974434810E+02  0.63974434810E+02  0.00000000000E+00 0. -1.
         25    1    1    2    0    0 -0.18848453120E+03 -0.85772534180E+02  0.74913399634E+03  0.78721667321E+03  0.12500000000E+03 0.  0.
         25    1    1    2    0    0  0.18848453120E+03  0.85772534180E+02  0.28059725233E+03  0.37046344507E+03  0.12500000000E+03 0.  0.
</event>
<event>
 4    0  0.2202290E-002  0.2008657E+03  0.7546771E-02  0.1149011E+00
         21   -1    0    0  502  501  0.00000000000E+00  0.00000000000E+00  0.72085712164E+02  0.72085712164E+02  0.00000000000E+00 0.  1.
         21   -1    0    0  501  502 -0.00000000000E+00 -0.00000000000E+00 -0.55970923127E+03  0.55970923127E+03  0.00000000000E+00 0.  1.
         25    1    1    2    0    0 -0.97944268832E+01  0.65758645004E+02 -0.19728842229E+02  0.14294879295E+03  0.12500000000E+03 0.  0.
         25    1    1    2    0    0  0.97944268832E+01 -0.65758645004E+02 -0.46789467688E+03  0.48884615048E+03  0.12500000000E+03 0.  0.
</event>
<event>
 4    0  0.2202290E-002  0.1682031E+03  0.7546771E-02  0.1179735E+00
         21   -1    0    0  502  501  0.00000000000E+00  0.00000000000E+00  0.13473320825E+03  0.13473320825E+03  0.00000000000E+00 0. -1.
         21   -1    0    0  501  502 -0.00000000000E+00 -0.00000000000E+00 -0.20998753512E+03  0.20998753512E+03  0.00000000000E+00 0. -1.
         25    1    1    2    0    0 -0.52837949553E+02  0.88541461307E+02 -0.83862791502E+02  0.18245384918E+03  0.12500000000E+03 0.  0.
         25    1    1    2    0    0  0.52837949553E+02 -0.88541461307E+02  0.86084646347E+01  0.16226689418E+03  0.12500000000E+03 0.  0.
</event>
<event>
 4    0  0.2202290E-002  0.3891582E+03  0.7546771E-02  0.1047600E+00
         21   -1    0    0  502  501  0.00000000000E+00  0.00000000000E+00  0.21528824487E+03  0.21528824487E+03  0.00000000000E+00 0. -1.
         21   -1    0    0  501  502 -0.00000000000E+00 -0.00000000000E+00 -0.70344799722E+03  0.70344799722E+03  0.00000000000E+00 0. -1.
         25    1    1    2    0    0  0.27473502303E+03 -0.18381786543E+03 -0.43642139649E+03  0.56156653733E+03  0.12500000000E+03 0.  0.
         25    1    1    2    0    0 -0.27473502303E+03  0.18381786543E+03 -0.51738355856E+02  0.35716970476E+03  0.12500000000E+03 0.  0.
</event>
<event>
 4    0  0.2202290E-002  0.1921344E+03  0.7546771E-02  0.1156550E+00
         21   -1    0    0  502  501  0.00000000000E+00  0.00000000000E+00  0.24572117800E+04  0.24572117800E+04  0.00000000000E+00 0.  1.
         21   -1    0    0  501  502 -0.00000000000E+00 -0.00000000000E+00 -0.15023373904E+02  0.15023373904E+02  0.00000000000E+00 0.  1.
         25    1    1    2    0    0  0.31423293086E+02 -0.10965474811E+02  0.21350959637E+04  0.21390108554E+04  0.12500000000E+03 0.  0.
         25    1    1    2    0    0 -0.31423293086E+02  0.10965474811E+02  0.30709244237E+03  0.33322429855E+03  0.12500000000E+03 0.  0.
</event>
<event>
 4    0  0.2202290E-002  0.2114122E+03  0.7546771E-02  0.1140453E+00
         21   -1    0    0  502  501  0.00000000000E+00  0.00000000000E+00  0.18200578070E+03  0.18200578070E+03  0.00000000000E+00 0. -1.
         21   -1    0    0  501  502 -0.00000000000E+00 -0.00000000000E+00 -0.24556984387E+03  0.24556984387E+03  0.00000000000E+00 0. -1.
         25    1    1    2    0    0  0.29905997243E+02 -0.17029887736E+02 -0.20064871122E+03  0.23889179781E+03  0.12500000000E+03 0.  0.
         25    1    1    2    0    0 -0.29905997243E+02  0.17029887736E+02  0.13708464805E+03  0.18868382675E+03  0.12500000000E+03 0.  0.
</event>
<event>
 4    0  0.2202290E-002  0.2099373E+03  0.7546771E-02  0.1141616E+00
         21   -1    0    0  502  501  0.00000000000E+00  0.00000000000E+00  0.17458678283E+03  0.17458678283E+03  0.00000000000E+00 0.  1.
         21   -1    0    0  501  502 -0.00000000000E+00 -0.00000000000E+00 -0.25244551914E+03  0.25244551914E+03  0.00000000000E+00 0.  1.
         25    1    1    2    0    0 -0.12436269118E+03 -0.69598885973E+02 -0.13068129488E+03  0.23024483646E+03  0.12500000000E+03 0.  0.
         25    1    1    2    0    0  0.12436269118E+03  0.69598885973E+02  0.52822558576E+02  0.19678746551E+03  0.12500000000E+03 0.  0.
</event>
<event>
 4    0  0.2202290E-002  0.2073031E+03  0.7546771E-02  0.1143720E+00
         21   -1    0    0  502  501  0.00000000000E+00  0.00000000000E+00  0.10397692970E+04  0.10397692970E+04  0.00000000000E+00 0.  1.
         21   -1    0    0  501  502 -0.00000000000E+00 -0.00000000000E+00 -0.41330882915E+02  0.41330882915E+02  0.00000000000E+00 0.  1.
         25    1    1    2    0    0 -0.42808582825E+02  0.35777708025E+02  0.90516609470E+03  0.91545796089E+03  0.12500000000E+03 0.  0.
         25    1    1    2    0    0  0.42808582825E+02 -0.35777708025E+02  0.93272319340E+02  0.16564221898E+03  0.12500000000E+03 0.  0.
</event>
<event>
 4    0  0.2202290E-002  0.1889595E+03  0.7546771E-02  0.1159403E+00
         21   -1    0    0  502  501  0.00000000000E+00  0.00000000000E+00  0.72090520511E+02  0.72090520511E+02  0.00000000000E+00 0.  1.
         21   -1    0    0  501  502 -0.00000000000E+00 -0.00000000000E+00 -0.49528960872E+03  0.49528960872E+03  0.00000000000E+00 0.  1.
         25    1    1    2    0    0 -0.58397995942E+02  0.70570827084E+02 -0.49274740067E+02  0.16261478277E+03  0.12500000000E+03 0.  0.
         25    1    1    2    0    0  0.58397995942E+02 -0.70570827084E+02 -0.37392434814E+03  0.40476534646E+03  0.12500000000E+03 0.  0.
</event>
<event>
 4    0  0.2202290E-002  0.2865991E+03  0.7546771E-02  0.1092138E+00
         21   -1    0    0  502  501  0.00000000000E+00  0.00000000000E+00  0.36485797286E+03  0.36485797286E+03  0.00000000000E+00 0.  1.
         21   -1    0    0  501  502 -0.00000000000E+00 -0.00000000000E+00 -0.22512600692E+03  0.22512600692E+03  0.00000000000E+00 0. -1.
         25    1    1    2    0    0 -0.11022036389E+03  0.23254332075E+03  0.87366662716E+02  0.29913685563E+03  0.12500000000E+03 0.  0.
         25    1    1    2    0    0  0.11022036389E+03 -0.23254332075E+03  0.52365303222E+02  0.29084712415E+03  0.12500000000E+03 0.  0.
</event>
<event>
 4    0  0.2202290E-002  0.2179290E+03  0.7546771E-02  0.1135437E+00
         21   -1    0    0  502  501  0.00000000000E+00  0.00000000000E+00  0.38905903327E+03  0.38905903327E+03  0.00000000000E+00 0. -1.
         21   -1    0    0  501  502 -0.00000000000E+00 -0.00000000000E+00 -0.12207160304E+03  0.12207160304E+03  0.00000000000E+00 0. -1.
         25    1    1    2    0    0 -0.16825394390E+03  0.25542715374E+02  0.19671343591E+03  0.28858793428E+03  0.12500000000E+03 0.  0.
         25    1    1    2    0    0  0.16825394390E+03 -0.25542715374E+02  0.70273994316E+02  0.22254270202E+03  0.12500000000E+03 0.  0.
</event>
<event>
 4    0  0.2202290E-002  0.2871387E+03  0.7546771E-02  0.1091853E+00
         21   -1    0    0  502  501  0.00000000000E+00  0.00000000000E+00  0.13738815790E+04  0.13738815790E+04  0.00000000000E+00 0. -1.
         21   -1    0    0  501  502 -0.00000000000E+00 -0.00000000000E+00 -0.60011474295E+02  0.60011474295E+02  0.00000000000E+00 0. -1.
         25    1    1    2    0    0 -0.80736879839E+02 -0.17419433743E+03  0.10891274184E+04  0.11129625530E+04  0.12500000000E+03 0.  0.
         25    1    1    2    0    0  0.80736879839E+02  0.17419433743E+03  0.22474268637E+03  0.32093050032E+03  0.12500000000E+03 0.  0.
</event>
<event>
 4    0  0.2202290E-002  0.1981880E+03  0.7546771E-02  0.1151277E+00
         21   -1    0    0  502  501  0.00000000000E+00  0.00000000000E+00  0.11820985061E+04  0.11820985061E+04  0.00000000000E+00 0.  1.
         21   -1    0    0  501  502 -0.00000000000E+00 -0.00000000000E+00 -0.33227746661E+02  0.33227746661E+02  0.00000000000E+00 0.  1.
         25    1    1    2    0    0 -0.14142946731E+03  0.96685855190E+00  0.75968031925E+03  0.78277865102E+03  0.12500000000E+03 0.  0.
         25    1    1    2    0    0  0.14142946731E+03 -0.96685855190E+00  0.38919044021E+03  0.43254760176E+03  0.12500000000E+03 0.  0.
</event>
<event>
 4    0  0.2202290E-002  0.2542185E+03  0.7546771E-02  0.1110668E+00
         21   -1    0    0  502  501  0.00000000000E+00  0.00000000000E+00  0.16798179012E+03  0.16798179012E+03  0.00000000000E+00 0. -1.
         21   -1    0    0  501  502 -0.00000000000E+00 -0.00000000000E+00 -0.38472637161E+03  0.38472637161E+03  0.00000000000E+00 0. -1.
         25    1    1    2    0    0  0.20847105704E+02 -0.94088861620E+02 -0.32501021866E+03  0.36130867404E+03  0.12500000000E+03 0.  0.
         25    1    1    2    0    0 -0.20847105704E+02  0.94088861620E+02  0.10826563718E+03  0.19139948770E+03  0.12500000000E+03 0.  0.
</event>
<event>
 4    0  0.2202290E-002  0.1917787E+03  0.7546771E-02  0.1156867E+00
         21   -1    0    0  502  501  0.00000000000E+00  0.00000000000E+00  0.43756146253E+03  0.43756146253E+03  0.00000000000E+00 0. -1.
         21   -1    0    0  501  502 -0.00000000000E+00 -0.00000000000E+00 -0.84054612133E+02  0.84054612133E+02  0.00000000000E+00 0.  1.
         25    1    1    2    0    0  0.12852620748E+03  0.66281899646E+02  0.15560717554E+03  0.24647691435E+03  0.12500000000E+03 0.  0.
         25    1    1    2    0    0 -0.12852620748E+03 -0.66281899646E+02  0.19789967486E+03  0.27513916031E+03  0.12500000000E+03 0.  0.
</event>
<event>
 4    0  0.2202290E-002  0.1799349E+03  0.7546771E-02  0.1167866E+00
         21   -1    0    0  502  501  0.00000000000E+00  0.00000000000E+00  0.56315400357E+02  0.56315400357E+02  0.00000000000E+00 0.  1.
         21   -1    0    0  501  502 -0.00000000000E+00 -0.00000000000E+00 -0.57491511464E+03  0.57491511464E+03  0.00000000000E+00 0.  1.
         25    1    1    2    0    0  0.43207753197E+01  0.12440146185E+03 -0.19710684048E+03  0.26451937429E+03  0.12500000000E+03 0.  0.
         25    1    1    2    0    0 -0.43207753197E+01 -0.12440146185E+03 -0.32149287380E+03  0.36671114070E+03  0.12500000000E+03 0.  0.
</event>
<event>
 4    0  0.2202290E-002  0.2033816E+03  0.7546771E-02  0.1146917E+00
         21   -1    0    0  502  501  0.00000000000E+00  0.00000000000E+00  0.26715495833E+03  0.26715495833E+03  0.00000000000E+00 0. -1.
         21   -1    0    0  501  502 -0.00000000000E+00 -0.00000000000E+00 -0.15483178995E+03  0.15483178995E+03  0.00000000000E+00 0. -1.
         25    1    1    2    0    0  0.68042565990E+01  0.14061018481E+03  0.13599324040E+03  0.23224272522E+03  0.12500000000E+03 0.  0.
         25    1    1    2    0    0 -0.68042565990E+01 -0.14061018481E+03 -0.23670072023E+02  0.18974402307E+03  0.12500000000E+03 0.  0.
</event>
<event>
 4    0  0.2202290E-002  0.1744225E+03  0.7546771E-02  0.1173313E+00
         21   -1    0    0  502  501  0.00000000000E+00  0.00000000000E+00  0.46057909454E+03  0.46057909454E+03  0.00000000000E+00 0. -1.
         21   -1    0    0  501  502 -0.00000000000E+00 -0.00000000000E+00 -0.66054227331E+02  0.66054227331E+02  0.00000000000E+00 0. -1.
         25    1    1    2    0    0 -0.79193354663E+02  0.67721111812E+02  0.29202773998E+03  0.33430964289E+03  0.12500000000E+03 0.  0.
         25    1    1    2    0    0  0.79193354663E+02 -0.67721111812E+02  0.10249712722E+03  0.19232367898E+03  0.12500000000E+03 0.  0.
</event>
<event>
 4    0  0.2202290E-002  0.1887341E+03  0.7546771E-02  0.1159608E+00
         21   -1    0    0  502  501  0.00000000000E+00  0.00000000000E+00  0.12519675123E+03  0.12519675123E+03  0.00000000000E+00 0. -1.
         21   -1    0    0  501  502 -0.00000000000E+00 -0.00000000000E+00 -0.28451663283E+03  0.28451663283E+03  0.00000000000E+00 0. -1.
         25    1    1    2    0    0  0.71970025797E+02  0.11568850515E+03 -0.12073496853E+03  0.22082900050E+03  0.12500000000E+03 0.  0.
         25    1    1    2    0    0 -0.71970025797E+02 -0.11568850515E+03 -0.38584913069E+02  0.18888438356E+03  0.12500000000E+03 0.  0.
</event>
<event>
 4    0  0.2202290E-002  0.2100302E+03  0.7546771E-02  0.1141542E+00
         21   -1    0    0  502  501  0.00000000000E+00  0.00000000000E+00  0.24876035080E+02  0.24876035080E+02  0.00000000000E+00 0. -1.
         21   -1    0    0  501  502 -0.00000000000E+00 -0.00000000000E+00 -0.17733002867E+04  0.17733002867E+04  0.00000000000E+00 0. -1.
         25    1    1    2    0    0 -0.54887826774E+01 -0.10667984740E+03 -0.31480772012E+03  0.35516139602E+03  0.12500000000E+03 0.  0.
         25    1    1    2    0    0  0.54887826774E+01  0.10667984740E+03 -0.14336165315E+04  0.14430149258E+04  0.12500000000E+03 0.  0.
</event>
<event>
 4    0  0.2202290E-002  0.3010194E+03  0.7546771E-02  0.1084732E+00
         21   -1    0    0  502  501  0.00000000000E+00  0.00000000000E+00  0.58885579540E+02  0.58885579540E+02  0.00000000000E+00 0. -1.
         21   -1    0    0  501  502 -0.00000000000E+00 -0.00000000000E+00 -0.15387924734E+04  0.15387924734E+04  0.00000000000E+00 0.  1.
         25    1    1    2    0    0 -0.18640964387E+03  0.89134203862E+02 -0.12168533161E+04  0.12405847229E+04  0.12500000000E+03 0.  0.
         25    1    1    2    0    0  0.18640964387E+03 -0.89134203862E+02 -0.26305357771E+03  0.35709333005E+03  0.12500000000E+03 0.  0.
</event>
<event>
 4    0  0.2202290E-002  0.4076837E+03  0.7546771E-02  0.1041151E+00
         21   -1    0    0  502  501  0.00000000000E+00  0.00000000000E+00  0.15508495147E+03  0.15508495147E+03  0.00000000000E+00 0.  1.
         21   -1    0    0  501  502 -0.00000000000E+00 -0.00000000000E+00 -0.10717094780E+04  0.10717094780E+04  0.00000000000E+00 0.  1.
         25    1    1    2    0    0 -0.19011727709E+03  0.20660226229E+03 -0.55284231007E+02  0.31226658488E+03  0.12500000000E+03 0.  0.
         25    1    1    2    0    0  0.19011727709E+03 -0.20660226229E+03 -0.86134029554E+03  0.91452784461E+03  0.12500000000E+03 0.  0.
</event>
<event>
 4    0  0.2202290E-002  0.3303766E+03  0.7546771E-02  0.1070970E+00
         21   -1    0    0  502  501  0.00000000000E+00  0.00000000000E+00  0.93175583594E+03  0.93175583594E+03  0.00000000000E+00 0. -1.
         21   -1    0    0  501  502 -0.00000000000E+00 -0.00000000000E+00 -0.11714300703E+03  0.11714300703E+03  0.00000000000E+00 0. -1.
         25    1    1    2    0    0  0.22026594554E+03  0.20552464129E+03  0.32381585499E+03  0.45960762927E+03  0.12500000000E+03 0.  0.
         25    1    1    2    0    0 -0.22026594554E+03 -0.20552464129E+03  0.49079697392E+03  0.58929121371E+03  0.12500000000E+03 0.  0.
</event>
<event>
 4    0  0.2202290E-002  0.5519717E+03  0.7546771E-02  0.1001039E+00
         21   -1    0    0  502  501  0.00000000000E+00  0.00000000000E+00  0.53874680076E+03  0.53874680076E+03  0.00000000000E+00 0.  1.
         21   -1    0    0  501  502 -0.00000000000E+00 -0.00000000000E+00 -0.56552119882E+03  0.56552119882E+03  0.00000000000E+00 0.  1.
         25    1    1    2    0    0 -0.21371436514E+03  0.39826123425E+03  0.27783737993E+03  0.54507288528E+03  0.12500000000E+03 0.  0.
         25    1    1    2    0    0  0.21371436514E+03 -0.39826123425E+03 -0.30461177800E+03  0.55919511431E+03  0.12500000000E+03 0.  0.
</event>
<event>
 4    0  0.2202290E-002  0.1775876E+03  0.7546771E-02  0.1170158E+00
         21   -1    0    0  502  501  0.00000000000E+00  0.00000000000E+00  0.31424189996E+03  0.31424189996E+03  0.00000000000E+00 0.  1.
         21   -1    0    0  501  502 -0.00000000000E+00 -0.00000000000E+00 -0.10036007429E+03  0.10036007429E+03  0.00000000000E+00 0.  1.
         25    1    1    2    0    0 -0.62294335136E+02 -0.34139033040E+02 -0.14741926812E+02  0.14452813627E+03  0.12500000000E+03 0.  0.
         25    1    1    2    0    0  0.62294335136E+02  0.34139033040E+02  0.22862375248E+03  0.27007383799E+03  0.12500000000E+03 0.  0.
</event>
<event>
 4    0  0.2202290E-002  0.2055567E+03  0.7546771E-02  0.1145134E+00
         21   -1    0    0  502  501  0.00000000000E+00  0.00000000000E+00  0.45941703042E+02  0.45941703042E+02  0.00000000000E+00 0.  1.
         21   -1    0    0  501  502 -0.00000000000E+00 -0.00000000000E+00 -0.91972159322E+03  0.91972159322E+03  0.00000000000E+00 0.  1.
         25    1    1    2    0    0  0.77463152342E+02  0.85097551238E+02 -0.16512302606E+03  0.23692350439E+03  0.12500000000E+03 0.  0.
         25    1    1    2    0    0 -0.77463152342E+02 -0.85097551238E+02 -0.70865686411E+03  0.72873979187E+03  0.12500000000E+03 0.  0.
</event>
<event>
 4    0  0.2202290E-002  0.2051967E+03  0.7546771E-02  0.1145427E+00
         21   -1    0    0  502  501  0.00000000000E+00  0.00000000000E+00  0.21093344475E+03  0.21093344475E+03  0.00000000000E+00 0. -1.
         21   -1    0    0  501  502 -0.00000000000E+00 -0.00000000000E+00 -0.19961592726E+03  0.19961592726E+03  0.00000000000E+00 0. -1.
         25    1    1    2    0    0  0.16227159859E+03 -0.14853838556E+00 -0.65352720718E+01  0.20493853604E+03  0.12500000000E+03 0.  0.
         25    1    1    2    0    0 -0.16227159859E+03  0.14853838556E+00  0.17852789556E+02  0.20561083597E+03  0.12500000000E+03 0.  0.
</event>
<event>
 4    0  0.2202290E-002  0.2528124E+03  0.7546771E-02  0.1111540E+00
         21   -1    0    0  502  501  0.00000000000E+00  0.00000000000E+00  0.62212922682E+03  0.62212922682E+03  0.00000000000E+00 0. -1.
         21   -1    0    0  501  502 -0.00000000000E+00 -0.00000000000E+00 -0.10273443790E+03  0.10273443790E+03  0.00000000000E+00 0. -1.
         25    1    1    2    0    0  0.60296900262E+02  0.20898607414E+03  0.30453496483E+03  0.39455980557E+03  0.12500000000E+03 0.  0.
         25    1    1    2    0    0 -0.60296900262E+02 -0.20898607414E+03  0.21485982408E+03  0.33030385915E+03  0.12500000000E+03 0.  0.
</event>
<event>
 4    0  0.2202290E-002  0.2807694E+03  0.7546771E-02  0.1095269E+00
         21   -1    0    0  502  501  0.00000000000E+00  0.00000000000E+00  0.49830158876E+03  0.49830158876E+03  0.00000000000E+00 0.  1.
         21   -1    0    0  501  502 -0.00000000000E+00 -0.00000000000E+00 -0.15820027944E+03  0.15820027944E+03  0.00000000000E+00 0.  1.
         25    1    1    2    0    0 -0.10784381327E+03  0.57401918480E+02 -0.86838139237E+02  0.19516949232E+03  0.12500000000E+03 0.  0.
         25    1    1    2    0    0  0.10784381327E+03 -0.57401918480E+02  0.42693944856E+03  0.46133237589E+03  0.12500000000E+03 0.  0.
</event>
<event>
 4    0  0.2202290E-002  0.3242895E+03  0.7546771E-02  0.1073692E+00
         21   -1    0    0  502  501  0.00000000000E+00  0.00000000000E+00  0.12637187997E+04  0.12637187997E+04  0.00000000000E+00 0.  1.
         21   -1    0    0  501  502 -0.00000000000E+00 -0.00000000000E+00 -0.83217625710E+02  0.83217625710E+02  0.00000000000E+00 0.  1.
         25    1    1    2    0    0 -0.28018215889E+03 -0.97286496579E+02  0.67258982233E+03  0.74563313612E+03  0.12500000000E+03 0.  0.
         25    1    1    2    0    0  0.28018215889E+03  0.97286496579E+02  0.50791135168E+03  0.60130328932E+03  0.12500000000E+03 0.  0.
</event>
<event>
 4    0  0.2202290E-002  0.1988203E+03  0.7546771E-02  0.1150738E+00
         21   -1    0    0  502  501  0.00000000000E+00  0.00000000000E+00  0.44624568289E+02  0.44624568289E+02  0.00000000000E+00 0. -1.
         21   -1    0    0  501  502 -0.00000000000E+00 -0.00000000000E+00 -0.88582420605E+03  0.88582420605E+03  0.00000000000E+00 0. -1.
         25    1    1    2    0    0  0.87096625567E+02  0.24512975549E+02 -0.12724193247E+03  0.20000554376E+03  0.12500000000E+03 0.  0.
         25    1    1    2    0    0 -0.87096625567E+02 -0.24512975549E+02 -0.71395770529E+03  0.73044323058E+03  0.12500000000E+03 0.  0.
</event>
<event>
 4    0  0.2202290E-002  0.3016336E+03  0.7546771E-02  0.1084427E+00
         21   -1    0    0  502  501  0.00000000000E+00  0.00000000000E+00  0.63536047491E+02  0.63536047491E+02  0.00000000000E+00 0.  1.
         21   -1    0    0  501  502 -0.00000000000E+00 -0.00000000000E+00 -0.14319879580E+04  0.14319879580E+04  0.00000000000E+00 0.  1.
         25    1    1    2    0    0 -0.95814276253E+02 -0.87751117535E+02 -0.84742813638E+02  0.19921590957E+03  0.12500000000E+03 0.  0.
         25    1    1    2    0    0  0.95814276253E+02  0.87751117535E+02 -0.12837090969E+04  0.12963080960E+04  0.12500000000E+03 0.  0.
</event>
<event>
 4    0  0.2202290E-002  0.3086702E+03  0.7546771E-02  0.1080985E+00
         21   -1    0    0  502  501  0.00000000000E+00  0.00000000000E+00  0.55719089726E+02  0.55719089726E+02  0.00000000000E+00 0. -1.
         21   -1    0    0  501  502 -0.00000000000E+00 -0.00000000000E+00 -0.17099573774E+04  0.17099573774E+04  0.00000000000E+00 0. -1.
         25    1    1    2    0    0 -0.22653771519E+02 -0.25209546300E+03 -0.47003785556E+03  0.54829362707E+03  0.12500000000E+03 0.  0.
         25    1    1    2    0    0  0.22653771519E+02  0.25209546300E+03 -0.11842004321E+04  0.12173828400E+04  0.12500000000E+03 0.  0.
</event>
<event>
 4    0  0.2202290E-002  0.2524040E+03  0.7546771E-02  0.1111795E+00
         21   -1    0    0  502  501  0.00000000000E+00  0.00000000000E+00  0.82861851876E+03  0.82861851876E+03  0.00000000000E+00 0. -1.
         21   -1    0    0  501  502 -0.00000000000E+00 -0.00000000000E+00 -0.76884307798E+02  0.76884307798E+02  0.00000000000E+00 0. -1.
         25    1    1    2    0    0  0.13907578628E+03  0.16937096922E+03  0.36266601571E+03  0.44179207609E+03  0.12500000000E+03 0.  0.
         25    1    1    2    0    0 -0.13907578628E+03 -0.16937096922E+03  0.38906819525E+03  0.46371075047E+03  0.12500000000E+03 0.  0.
</event>
<event>
 4    0  0.2202290E-002  0.1837067E+03  0.7546771E-02  0.1164263E+00
         21   -1    0    0  502  501  0.00000000000E+00  0.00000000000E+00  0.37608366727E+02  0.37608366727E+02  0.00000000000E+00 0.  1.
         21   -1    0    0  501  502 -0.00000000000E+00 -0.00000000000E+00 -0.89735784705E+03  0.89735784705E+03  0.00000000000E+00 0.  1.
         25    1    1    2    0    0  0.97036393374E+02 -0.56623449406E+02 -0.24113767900E+03  0.29392968019E+03  0.12500000000E+03 0.  0.
         25    1    1    2    0    0 -0.97036393374E+02  0.56623449406E+02 -0.61861180132E+03  0.64103653358E+03  0.12500000000E+03 0.  0.
</event>
<event>
 4    0  0.2202290E-002  0.1576710E+03  0.7546771E-02  0.1191352E+00
         21   -1    0    0  502  501  0.00000000000E+00  0.00000000000E+00  0.12214331408E+03  0.12214331408E+03  0.00000000000E+00 0.  1.
         21   -1    0    0  501  502 -0.00000000000E+00 -0.00000000000E+00 -0.20353258723E+03  0.20353258723E+03  0.00000000000E+00 0.  1.
         25    1    1    2    0    0  0.27811214258E+02  0.59316669010E+02 -0.11330665380E+03  0.18098433262E+03  0.12500000000E+03 0.  0.
         25    1    1    2    0    0 -0.27811214258E+02 -0.59316669010E+02  0.31917380641E+02  0.14469156868E+03  0.12500000000E+03 0.  0.
</event>
<event>
 4    0  0.2202290E-002  0.1882306E+03  0.7546771E-02  0.1160067E+00
         21   -1    0    0  502  501  0.00000000000E+00  0.00000000000E+00  0.23795852621E+03  0.23795852621E+03  0.00000000000E+00 0.  1.
         21   -1    0    0  501  502 -0.00000000000E+00 -0.00000000000E+00 -0.14889462491E+03  0.14889462491E+03  0.00000000000E+00 0.  1.
         25    1    1    2    0    0  0.58165674517E+02 -0.12067010924E+03  0.19912795790E+00  0.18321997873E+03  0.12500000000E+03 0.  0.
         25    1    1    2    0    0 -0.58165674517E+02  0.12067010924E+03  0.88864773336E+02  0.20363317238E+03  0.12500000000E+03 0.  0.
</event>
<event>
 4    0  0.2202290E-002  0.1998275E+03  0.7546771E-02  0.1149885E+00
         21   -1    0    0  502  501  0.00000000000E+00  0.00000000000E+00  0.97916353777E+03  0.97916353777E+03  0.00000000000E+00 0. -1.
         21   -1    0    0  501  502 -0.00000000000E+00 -0.00000000000E+00 -0.40780767295E+02  0.40780767295E+02  0.00000000000E+00 0. -1.
         25    1    1    2    0    0  0.96729948246E+02 -0.36749093594E+02  0.76679789458E+03  0.78378006475E+03  0.12500000000E+03 0.  0.
         25    1    1    2    0    0 -0.96729948246E+02  0.36749093594E+02  0.17158487589E+03  0.23616424031E+03  0.12500000000E+03 0.  0.
</event>
<event>
 4    0  0.2202290E-002  0.2556428E+03  0.7546771E-02  0.1109790E+00
         21   -1    0    0  502  501  0.00000000000E+00  0.00000000000E+00  0.12999716102E+03  0.12999716102E+03  0.00000000000E+00 0. -1.
         21   -1    0    0  501  502 -0.00000000000E+00 -0.00000000000E+00 -0.50272812352E+03  0.50272812352E+03  0.00000000000E+00 0. -1.
         25    1    1    2    0    0 -0.19050854078E+01 -0.14973878557E+03 -0.39084792352E+03  0.43682082433E+03  0.12500000000E+03 0.  0.
         25    1    1    2    0    0  0.19050854078E+01  0.14973878557E+03  0.18116961015E+02  0.19590446021E+03  0.12500000000E+03 0.  0.
</event>
<event>
 4    0  0.2202290E-002  0.1735802E+03  0.7546771E-02  0.1174165E+00
         21   -1    0    0  502  501  0.00000000000E+00  0.00000000000E+00  0.97040763322E+02  0.97040763322E+02  0.00000000000E+00 0. -1.
         21   -1    0    0  501  502 -0.00000000000E+00 -0.00000000000E+00 -0.31048879891E+03  0.31048879891E+03  0.00000000000E+00 0. -1.
         25    1    1    2    0    0  0.60477497477E+02  0.10090066264E+03 -0.13703229557E+03  0.21963907087E+03  0.12500000000E+03 0.  0.
         25    1    1    2    0    0 -0.60477497477E+02 -0.10090066264E+03 -0.76415740023E+02  0.18789049137E+03  0.12500000000E+03 0.  0.
</event>
<event>
 4    0  0.2202290E-002  0.2604243E+03  0.7546771E-02  0.1106889E+00
         21   -1    0    0  502  501  0.00000000000E+00  0.00000000000E+00  0.20678062325E+03  0.20678062325E+03  0.00000000000E+00 0. -1.
         21   -1    0    0  501  502 -0.00000000000E+00 -0.00000000000E+00 -0.32798427633E+03  0.32798427633E+03  0.00000000000E+00 0. -1.
         25    1    1    2    0    0 -0.14151089446E+03  0.17905855630E+03 -0.49907515570E+02  0.26495860043E+03  0.12500000000E+03 0.  0.
         25    1    1    2    0    0  0.14151089446E+03 -0.17905855630E+03 -0.71296137512E+02  0.26980629914E+03  0.12500000000E+03 0.  0.
</event>
<event>
 4    0  0.2202290E-002  0.1647000E+03  0.7546771E-02  0.1183490E+00
         21   -1    0    0  502  501  0.00000000000E+00  0.00000000000E+00  0.27117769447E+03  0.27117769447E+03  0.00000000000E+00 0.  1.
         21   -1    0    0  501  502 -0.00000000000E+00 -0.00000000000E+00 -0.10003063556E+03  0.10003063556E+03  0.00000000000E+00 0.  1.
         25    1    1    2    0    0 -0.30611780223E+02  0.90744427210E+02  0.31183355316E+02  0.16052736155E+03  0.12500000000E+03 0.  0.
         25    1    1    2    0    0  0.30611780223E+02 -0.90744427210E+02  0.13996370359E+03  0.21068096848E+03  0.12500000000E+03 0.  0.
</event>
<event>
 4    0  0.2202290E-002  0.1954796E+03  0.7546771E-02  0.1153610E+00
         21   -1    0    0  502  501  0.00000000000E+00  0.00000000000E+00  0.29846983928E+04  0.29846983928E+04  0.00000000000E+00 0.  1.
         21   -1    0    0  501  502 -0.00000000000E+00 -0.00000000000E+00 -0.12802730540E+02  0.12802730540E+02  0.00000000000E+00 0.  1.
         25    1    1    2    0    0  0.13904937167E+03  0.42503157425E+02  0.17775014601E+04  0.17878136611E+04  0.12500000000E+03 0.  0.
         25    1    1    2    0    0 -0.13904937167E+03 -0.42503157425E+02  0.11943942023E+04  0.12096874623E+04  0.12500000000E+03 0.  0.
</event>
<event>
 4    0  0.2202290E-002  0.1874775E+03  0.7546771E-02  0.1160756E+00
         21   -1    0    0  502  501  0.00000000000E+00  0.00000000000E+00  0.46279442628E+03  0.46279442628E+03  0.00000000000E+00 0.  1.
         21   -1    0    0  501  502 -0.00000000000E+00 -0.00000000000E+00 -0.75946936042E+02  0.75946936042E+02  0.00000000000E+00 0.  1.
         25    1    1    2    0    0 -0.90285967964E+02 -0.10414964010E+03  0.22631757881E+03  0.29299035824E+03  0.12500000000E+03 0.  0.
         25    1    1    2    0    0  0.90285967964E+02  0.10414964010E+03  0.16052991143E+03  0.24575100409E+03  0.12500000000E+03 0.  0.
</event>
<event>
 4    0  0.2202290E-002  0.1937151E+03  0.7546771E-02  0.1155153E+00
         21   -1    0    0  502  501  0.00000000000E+00  0.00000000000E+00  0.53784247083E+03  0.53784247083E+03  0.00000000000E+00 0. -1.
         21   -1    0    0  501  502 -0.00000000000E+00 -0.00000000000E+00 -0.69770470301E+02  0.69770470301E+02  0.00000000000E+00 0.  1.
         25    1    1    2    0    0 -0.38634649539E+02  0.14141110791E+03  0.20224964747E+03  0.27931999120E+03  0.12500000000E+03 0.  0.
         25    1    1    2    0    0  0.38634649539E+02 -0.14141110791E+03  0.26582235306E+03  0.32829294993E+03  0.12500000000E+03 0.  0.
</event>
<event>
 4    0  0.2202290E-002  0.2017431E+03  0.7546771E-02  0.1148277E+00
         21   -1    0    0  502  501  0.00000000000E+00  0.00000000000E+00  0.13564688190E+03  0.13564688190E+03  0.00000000000E+00 0. -1.
         21   -1    0    0  501  502 -0.00000000000E+00 -0.00000000000E+00 -0.30004588451E+03  0.30004588451E+03  0.00000000000E+00 0. -1.
         25    1    1    2    0    0  0.70719675747E+02 -0.25498180244E+01 -0.23516673137E+03  0.27556517496E+03  0.12500000000E+03 0.  0.
         25    1    1    2    0    0 -0.70719675747E+02  0.25498180244E+01  0.70767728754E+02  0.16012759145E+03  0.12500000000E+03 0.  0.
</event>
<event>
 4    0  0.2202290E-002  0.1682593E+03  0.7546771E-02  0.1179675E+00
         21   -1    0    0  502  501  0.00000000000E+00  0.00000000000E+00  0.10836171498E+04  0.10836171498E+04  0.00000000000E+00 0.  1.
         21   -1    0    0  501  502 -0.00000000000E+00 -0.00000000000E+00 -0.26126574994E+02  0.26126574994E+02  0.00000000000E+00 0.  1.
         25    1    1    2    0    0 -0.16693991104E+02  0.67560427072E+02  0.23669508179E+03  0.27657306881E+03  0.12500000000E+03 0.  0.
         25    1    1    2    0    0  0.16693991104E+02 -0.67560427072E+02  0.82079549303E+03  0.83317065600E+03  0.12500000000E+03 0.  0.
</event>
<event>
 4    0  0.2202290E-002  0.1647222E+03  0.7546771E-02  0.1183466E+00
         21   -1    0    0  502  501  0.00000000000E+00  0.00000000000E+00  0.27497061976E+03  0.27497061976E+03  0.00000000000E+00 0. -1.
         21   -1    0    0  501  502 -0.00000000000E+00 -0.00000000000E+00 -0.98677460187E+02  0.98677460187E+02  0.00000000000E+00 0. -1.
         25    1    1    2    0    0  0.61970492381E+02 -0.41405218810E+02  0.63350371915E+00  0.14553396647E+03  0.12500000000E+03 0.  0.
         25    1    1    2    0    0 -0.61970492381E+02  0.41405218810E+02  0.17565965585E+03  0.22811411347E+03  0.12500000000E+03 0.  0.
</event>
<event>
 4    0  0.2202290E-002  0.2575360E+03  0.7546771E-02  0.1108633E+00
         21   -1    0    0  502  501  0.00000000000E+00  0.00000000000E+00  0.22987768501E+03  0.22987768501E+03  0.00000000000E+00 0. -1.
         21   -1    0    0  501  502 -0.00000000000E+00 -0.00000000000E+00 -0.28852218772E+03  0.28852218772E+03  0.00000000000E+00 0. -1.
         25    1    1    2    0    0  0.85006901619E+02  0.80037470187E+02 -0.22309574011E+03  0.28112075557E+03  0.12500000000E+03 0.  0.
         25    1    1    2    0    0 -0.85006901619E+02 -0.80037470187E+02  0.16445123740E+03  0.23727911716E+03  0.12500000000E+03 0.  0.
</event>
<event>
 4    0  0.2202290E-002  0.2546807E+03  0.7546771E-02  0.1110382E+00
         21   -1    0    0  502  501  0.00000000000E+00  0.00000000000E+00  0.17204946504E+03  0.17204946504E+03  0.00000000000E+00 0. -1.
         21   -1    0    0  501  502 -0.00000000000E+00 -0.00000000000E+00 -0.37699764371E+03  0.37699764371E+03  0.00000000000E+00 0. -1.
         25    1    1    2    0    0  0.10350918867E+02  0.10030101801E+03  0.11058706028E+03  0.19499213737E+03  0.12500000000E+03 0.  0.
         25    1    1    2    0    0 -0.10350918867E+02 -0.10030101801E+03 -0.31553523895E+03  0.35405497138E+03  0.12500000000E+03 0.  0.
</event>
<event>
 4    0  0.2202290E-002  0.1814420E+03  0.7546771E-02  0.1166415E+00
         21   -1    0    0  502  501  0.00000000000E+00  0.00000000000E+00  0.75199993221E+03  0.75199993221E+03  0.00000000000E+00 0. -1.
         21   -1    0    0  501  502 -0.00000000000E+00 -0.00000000000E+00 -0.43778203877E+02  0.43778203877E+02  0.00000000000E+00 0. -1.
         25    1    1    2    0    0 -0.10839376017E+02 -0.53917359453E+02  0.61608653767E+03  0.63104056574E+03  0.12500000000E+03 0.  0.
         25    1    1    2    0    0  0.10839376017E+02  0.53917359453E+02  0.92135190668E+02  0.16473757034E+03  0.12500000000E+03 0.  0.
</event>
<event>
 4    0  0.2202290E-002  0.2738805E+03  0.7546771E-02  0.1099079E+00
         21   -1    0    0  502  501  0.00000000000E+00  0.00000000000E+00  0.18622179351E+03  0.18622179351E+03  0.00000000000E+00 0. -1.
         21   -1    0    0  501  502 -0.00000000000E+00 -0.00000000000E+00 -0.40280222527E+03  0.40280222527E+03  0.00000000000E+00 0. -1.
         25    1    1    2    0    0 -0.93160866994E+02 -0.22370423552E+03 -0.13597909448E+03  0.30469303613E+03  0.12500000000E+03 0.  0.
         25    1    1    2    0    0  0.93160866994E+02  0.22370423552E+03 -0.80601337278E+02  0.28433098266E+03  0.12500000000E+03 0.  0.
</event>
<event>
 4    0  0.2202290E-002  0.2075134E+03  0.7546771E-02  0.1143550E+00
         21   -1    0    0  502  501  0.00000000000E+00  0.00000000000E+00  0.31582763266E+02  0.31582763266E+02  0.00000000000E+00 0.  1.
         21   -1    0    0  501  502 -0.00000000000E+00 -0.00000000000E+00 -0.13634594446E+04  0.13634594446E+04  0.00000000000E+00 0.  1.
         25    1    1    2    0    0 -0.12821734272E+03 -0.93985115638E+02 -0.50957585243E+03  0.54823848672E+03  0.12500000000E+03 0.  0.
         25    1    1    2    0    0  0.12821734272E+03  0.93985115638E+02 -0.82230082886E+03  0.84680372111E+03  0.12500000000E+03 0.  0.
</event>
<event>
 4    0  0.2202290E-002  0.2308484E+03  0.7546771E-02  0.1126044E+00
         21   -1    0    0  502  501  0.00000000000E+00  0.00000000000E+00  0.53474324597E+03  0.53474324597E+03  0.00000000000E+00 0.  1.
         21   -1    0    0  501  502 -0.00000000000E+00 -0.00000000000E+00 -0.99657149669E+02  0.99657149669E+02  0.00000000000E+00 0.  1.
         25    1    1    2    0    0 -0.17139229358E+03 -0.33548416023E+02  0.10123228358E+03  0.23743165281E+03  0.12500000000E+03 0.  0.
         25    1    1    2    0    0  0.17139229358E+03  0.33548416023E+02  0.33385381272E+03  0.39696874283E+03  0.12500000000E+03 0.  0.
</event>
<event>
 4    0  0.2202290E-002  0.1641419E+03  0.7546771E-02  0.1184098E+00
         21   -1    0    0  502  501  0.00000000000E+00  0.00000000000E+00  0.39864458176E+02  0.39864458176E+02  0.00000000000E+00 0. -1.
         21   -1    0    0  501  502 -0.00000000000E+00 -0.00000000000E+00 -0.67585408534E+03  0.67585408534E+03  0.00000000000E+00 0. -1.
         25    1    1    2    0    0 -0.96872333631E+02 -0.15566473745E+02 -0.22834203641E+03  0.27819354723E+03  0.12500000000E+03 0.  0.
         25    1    1    2    0    0  0.96872333631E+02  0.15566473745E+02 -0.40764759075E+03  0.43752499628E+03  0.12500000000E+03 0.  0.
</event>
<event>
 4    0  0.2202290E-002  0.2641792E+03  0.7546771E-02  0.1104658E+00
         21   -1    0    0  502  501  0.00000000000E+00  0.00000000000E+00  0.76968957754E+03  0.76968957754E+03  0.00000000000E+00 0.  1.
         21   -1    0    0  501  502 -0.00000000000E+00 -0.00000000000E+00 -0.90673734382E+02  0.90673734382E+02  0.00000000000E+00 0.  1.
         25    1    1    2    0    0 -0.11724119813E+03  0.13011251422E+02  0.12814197642E+02  0.17234846928E+03  0.12500000000E+03 0.  0.
         25    1    1    2    0    0  0.11724119813E+03 -0.13011251422E+02  0.66620164552E+03  0.68801484264E+03  0.12500000000E+03 0.  0.
</event>
<event>
 4    0  0.2202290E-002  0.2134365E+03  0.7546771E-02  0.1138873E+00
         21   -1    0    0  502  501  0.00000000000E+00  0.00000000000E+00  0.25329045437E+02  0.25329045437E+02  0.00000000000E+00 0.  1.
         21   -1    0    0  501  502 -0.00000000000E+00 -0.00000000000E+00 -0.17985331911E+04  0.17985331911E+04  0.00000000000E+00 0.  1.
         25    1    1    2    0    0 -0.96907152050E+02  0.14232406145E+03 -0.81472634362E+03  0.84205174993E+03  0.12500000000E+03 0.  0.
         25    1    1    2    0    0  0.96907152050E+02 -0.14232406145E+03 -0.95847780206E+03  0.98181048662E+03  0.12500000000E+03 0.  0.
</event>
<event>
 4    0  0.2202290E-002  0.2318973E+03  0.7546771E-02  0.1125311E+00
         21   -1    0    0  502  501  0.00000000000E+00  0.00000000000E+00  0.48016828272E+02  0.48016828272E+02  0.00000000000E+00 0. -1.
         21   -1    0    0  501  502 -0.00000000000E+00 -0.00000000000E+00 -0.11199477116E+04  0.11199477116E+04  0.00000000000E+00 0. -1.
         25    1    1    2    0    0  0.10497924875E+03  0.16386176739E+03 -0.57810549299E+03  0.62265743592E+03  0.12500000000E+03 0.  0.
         25    1    1    2    0    0 -0.10497924875E+03 -0.16386176739E+03 -0.49382539035E+03  0.54530710397E+03  0.12500000000E+03 0.  0.
</event>
<event>
 4    0  0.2202290E-002  0.2397202E+03  0.7546771E-02  0.1119979E+00
         21   -1    0    0  502  501  0.00000000000E+00  0.00000000000E+00  0.31495464459E+03  0.31495464459E+03  0.00000000000E+00 0. -1.
         21   -1    0    0  501  502 -0.00000000000E+00 -0.00000000000E+00 -0.18245727142E+03  0.18245727142E+03  0.00000000000E+00 0. -1.
         25    1    1    2    0    0 -0.16496420450E+02  0.20288167644E+03  0.45301298953E+02  0.24312612819E+03  0.12500000000E+03 0.  0.
         25    1    1    2    0    0  0.16496420450E+02 -0.20288167644E+03  0.87196074217E+02  0.25428578781E+03  0.12500000000E+03 0.  0.
</event>
<event>
 4    0  0.2202290E-002  0.2043723E+03  0.7546771E-02  0.1146102E+00
         21   -1    0    0  502  501  0.00000000000E+00  0.00000000000E+00  0.27190711585E+03  0.27190711585E+03  0.00000000000E+00 0.  1.
         21   -1    0    0  501  502 -0.00000000000E+00 -0.00000000000E+00 -0.15361141788E+03  0.15361141788E+03  0.00000000000E+00 0.  1.
         25    1    1    2    0    0 -0.23854641125E+02  0.14342040551E+03 -0.14498345406E+02  0.19228535732E+03  0.12500000000E+03 0.  0.
         25    1    1    2    0    0  0.23854641125E+02 -0.14342040551E+03  0.13279404338E+03  0.23323317641E+03  0.12500000000E+03 0.  0.
</event>
<event>
 4    0  0.2202290E-002  0.2723228E+03  0.7546771E-02  0.1099958E+00
         21   -1    0    0  502  501  0.00000000000E+00  0.00000000000E+00  0.44442986714E+02  0.44442986714E+02  0.00000000000E+00 0. -1.
         21   -1    0    0  501  502 -0.00000000000E+00 -0.00000000000E+00 -0.16686481508E+04  0.16686481508E+04  0.00000000000E+00 0. -1.
         25    1    1    2    0    0  0.65475991505E+02  0.16332780133E+03 -0.13343757334E+04  0.13517198948E+04  0.12500000000E+03 0.  0.
         25    1    1    2    0    0 -0.65475991505E+02 -0.16332780133E+03 -0.28982943064E+03  0.36137124266E+03  0.12500000000E+03 0.  0.
</event>
<event>
 4    0  0.2202290E-002  0.1611717E+03  0.7546771E-02  0.1187380E+00
         21   -1    0    0  502  501  0.00000000000E+00  0.00000000000E+00  0.47042523858E+02  0.47042523858E+02  0.00000000000E+00 0.  1.
         21   -1    0    0  501  502 -0.00000000000E+00 -0.00000000000E+00 -0.55218816013E+03  0.55218816013E+03  0.00000000000E+00 0.  1.
         25    1    1    2    0    0  0.36922207557E+02  0.94777743765E+02 -0.24831150057E+03  0.29602309274E+03  0.12500000000E+03 0.  0.
         25    1    1    2    0    0 -0.36922207557E+02 -0.94777743765E+02 -0.25683413570E+03  0.30320759124E+03  0.12500000000E+03 0.  0.
</event>
<event>
 4    0  0.2202290E-002  0.2363068E+03  0.7546771E-02  0.1122278E+00
         21   -1    0    0  502  501  0.00000000000E+00  0.00000000000E+00  0.31720899375E+02  0.31720899375E+02  0.00000000000E+00 0. -1.
         21   -1    0    0  501  502 -0.00000000000E+00 -0.00000000000E+00 -0.17603822635E+04  0.17603822635E+04  0.00000000000E+00 0. -1.
         25    1    1    2    0    0 -0.13977952655E+03  0.10702624262E+03 -0.50017062253E+03  0.54478306168E+03  0.12500000000E+03 0.  0.
         25    1    1    2    0    0  0.13977952655E+03 -0.10702624262E+03 -0.12284907416E+04  0.12473201012E+04  0.12500000000E+03 0.  0.
</event>
<event>
 4    0  0.2202290E-002  0.1988960E+03  0.7546771E-02  0.1150674E+00
         21   -1    0    0  502  501  0.00000000000E+00  0.00000000000E+00  0.34866774517E+03  0.34866774517E+03  0.00000000000E+00 0. -1.
         21   -1    0    0  501  502 -0.00000000000E+00 -0.00000000000E+00 -0.11345940811E+03  0.11345940811E+03  0.00000000000E+00 0. -1.
         25    1    1    2    0    0  0.15103274161E+02 -0.14336607696E+03  0.52374325611E+02  0.19786361691E+03  0.12500000000E+03 0.  0.
         25    1    1    2    0    0 -0.15103274161E+02  0.14336607696E+03  0.18283401145E+03  0.26426353637E+03  0.12500000000E+03 0.  0.
</event>
<event>
 4    0  0.2202290E-002  0.2462466E+03  0.7546771E-02  0.1115700E+00
         21   -1    0    0  502  501  0.00000000000E+00  0.00000000000E+00  0.39959603506E+03  0.39959603506E+03  0.00000000000E+00 0.  1.
         21   -1    0    0  501  502 -0.00000000000E+00 -0.00000000000E+00 -0.15174674667E+03  0.15174674667E+03  0.00000000000E+00 0.  1.
         25    1    1    2    0    0  0.33183464801E+02 -0.20410865420E+03  0.17703763979E+03  0.29954767727E+03  0.12500000000E+03 0.  0.
         25    1    1    2    0    0 -0.33183464801E+02  0.20410865420E+03  0.70811648602E+02  0.25179510447E+03  0.12500000000E+03 0.  0.
</event>
<event>
 4    0  0.2202290E-002  0.2294192E+03  0.7546771E-02  0.1127049E+00
         21   -1    0    0  502  501  0.00000000000E+00  0.00000000000E+00  0.36412160523E+03  0.36412160523E+03  0.00000000000E+00 0.  1.
         21   -1    0    0  501  502 -0.00000000000E+00 -0.00000000000E+00 -0.14454830247E+03  0.14454830247E+03  0.00000000000E+00 0.  1.
         25    1    1    2    0    0  0.17436312717E+03 -0.71467679469E+02  0.66878809543E+02  0.23581328311E+03  0.12500000000E+03 0.  0.
         25    1    1    2    0    0 -0.17436312717E+03  0.71467679469E+02  0.15269449321E+03  0.27285662459E+03  0.12500000000E+03 0.  0.
</event>
<event>
 4    0  0.2202290E-002  0.1534991E+03  0.7546771E-02  0.1196238E+00
         21   -1    0    0  502  501  0.00000000000E+00  0.00000000000E+00  0.27084086802E+03  0.27084086802E+03  0.00000000000E+00 0. -1.
         21   -1    0    0  501  502 -0.00000000000E+00 -0.00000000000E+00 -0.86995665242E+02  0.86995665242E+02  0.00000000000E+00 0. -1.
         25    1    1    2    0    0 -0.72196008883E+01  0.84647660003E+02  0.12319089371E+03  0.19498293585E+03  0.12500000000E+03 0.  0.
         25    1    1    2    0    0  0.72196008883E+01 -0.84647660003E+02  0.60654309074E+02  0.16285359741E+03  0.12500000000E+03 0.  0.
</event>
<event>
 4    0  0.2202290E-002  0.2721473E+03  0.7546771E-02  0.1100057E+00
         21   -1    0    0  502  501  0.00000000000E+00  0.00000000000E+00  0.46948817897E+02  0.46948817897E+02  0.00000000000E+00 0.  1.
         21   -1    0    0  501  502 -0.00000000000E+00 -0.00000000000E+00 -0.15775511328E+04  0.15775511328E+04  0.00000000000E+00 0.  1.
         25    1    1    2    0    0 -0.61810045676E+02 -0.55317153224E+00 -0.67783777320E+02  0.15504976044E+03  0.12500000000E+03 0.  0.
         25    1    1    2    0    0  0.61810045676E+02  0.55317153224E+00 -0.14628185376E+04  0.14694501903E+04  0.12500000000E+03 0.  0.
</event>
<event>
 4    0  0.2202290E-002  0.1862393E+03  0.7546771E-02  0.1161898E+00
         21   -1    0    0  502  501  0.00000000000E+00  0.00000000000E+00  0.19405054091E+03  0.19405054091E+03  0.00000000000E+00 0.  1.
         21   -1    0    0  501  502 -0.00000000000E+00 -0.00000000000E+00 -0.17874253366E+03  0.17874253366E+03  0.00000000000E+00 0.  1.
         25    1    1    2    0    0 -0.12801249404E+03  0.66105668068E+01 -0.43664880448E+02  0.18428922922E+03  0.12500000000E+03 0.  0.
         25    1    1    2    0    0  0.12801249404E+03 -0.66105668068E+01  0.58972887698E+02  0.18850384534E+03  0.12500000000E+03 0.  0.
</event>
<event>
 4    0  0.2202290E-002  0.3260129E+03  0.7546771E-02  0.1072915E+00
         21   -1    0    0  502  501  0.00000000000E+00  0.00000000000E+00  0.56398095277E+03  0.56398095277E+03  0.00000000000E+00 0. -1.
         21   -1    0    0  501  502 -0.00000000000E+00 -0.00000000000E+00 -0.18845387708E+03  0.18845387708E+03  0.00000000000E+00 0. -1.
         25    1    1    2    0    0  0.29068684819E+03  0.16217942569E+02  0.99141999808E+02  0.33198795384E+03  0.12500000000E+03 0.  0.
         25    1    1    2    0    0 -0.29068684819E+03 -0.16217942569E+02  0.27638507588E+03  0.42044687601E+03  0.12500000000E+03 0.  0.
</event>
<event>
 4    0  0.2202290E-002  0.2953977E+03  0.7546771E-02  0.1087564E+00
         21   -1    0    0  502  501  0.00000000000E+00  0.00000000000E+00  0.51709957700E+03  0.51709957700E+03  0.00000000000E+00 0.  1.
         21   -1    0    0  501  502 -0.00000000000E+00 -0.00000000000E+00 -0.16874859606E+03  0.16874859606E+03  0.00000000000E+00 0.  1.
         25    1    1    2    0    0 -0.87367328812E+02  0.96459548363E+02 -0.97327045609E+02  0.20502450688E+03  0.12500000000E+03 0.  0.
         25    1    1    2    0    0  0.87367328812E+02 -0.96459548363E+02  0.44567802655E+03  0.48082366618E+03  0.12500000000E+03 0.  0.
</event>
<event>
 4    0  0.2202290E-002  0.2172521E+03  0.7546771E-02  0.1135948E+00
         21   -1    0    0  502  501  0.00000000000E+00  0.00000000000E+00  0.85294788139E+02  0.85294788139E+02  0.00000000000E+00 0.  1.
         21   -1    0    0  501  502 -0.00000000000E+00 -0.00000000000E+00 -0.55335684983E+03  0.55335684983E+03  0.00000000000E+00 0.  1.
         25    1    1    2    0    0 -0.29530320567E+02 -0.16223235635E+03 -0.13673162380E+03  0.24801595559E+03  0.12500000000E+03 0.  0.
         25    1    1    2    0    0  0.29530320567E+02  0.16223235635E+03 -0.33133043788E+03  0.39063568238E+03  0.12500000000E+03 0.  0.
</event>
<event>
 4    0  0.2202290E-002  0.3120577E+03  0.7546771E-02  0.1079364E+00
         21   -1    0    0  502  501  0.00000000000E+00  0.00000000000E+00  0.11931363214E+03  0.11931363214E+03  0.00000000000E+00 0. -1.
         21   -1    0    0  501  502 -0.00000000000E+00 -0.00000000000E+00 -0.81616830422E+03  0.81616830422E+03  0.00000000000E+00 0. -1.
         25    1    1    2    0    0  0.72441685675E+02  0.45282629958E+02 -0.75742646060E+03  0.77241061464E+03  0.12500000000E+03 0.  0.
         25    1    1    2    0    0 -0.72441685675E+02 -0.45282629958E+02  0.60571788518E+02  0.16307132171E+03  0.12500000000E+03 0.  0.
</event>
<event>
 4    0  0.2202290E-002  0.2021328E+03  0.7546771E-02  0.1147952E+00
         21   -1    0    0  502  501  0.00000000000E+00  0.00000000000E+00  0.79883879248E+02  0.79883879248E+02  0.00000000000E+00 0.  1.
         21   -1    0    0  501  502 -0.00000000000E+00 -0.00000000000E+00 -0.51146340993E+03  0.51146340993E+03  0.00000000000E+00 0.  1.
         25    1    1    2    0    0  0.10782097299E+03  0.10461047816E+03 -0.29128858646E+03  0.35077450728E+03  0.12500000000E+03 0.  0.
         25    1    1    2    0    0 -0.10782097299E+03 -0.10461047816E+03 -0.14029094422E+03  0.24057278189E+03  0.12500000000E+03 0.  0.
</event>
<event>
 4    0  0.2202290E-002  0.2794587E+03  0.7546771E-02  0.1095985E+00
         21   -1    0    0  502  501  0.00000000000E+00  0.00000000000E+00  0.17666855727E+03  0.17666855727E+03  0.00000000000E+00 0.  1.
         21   -1    0    0  501  502 -0.00000000000E+00 -0.00000000000E+00 -0.44205461078E+03  0.44205461078E+03  0.00000000000E+00 0.  1.
         25    1    1    2    0    0  0.13702709529E+03  0.27966699134E+01  0.98688879306E+02  0.21011601820E+03  0.12500000000E+03 0.  0.
         25    1    1    2    0    0 -0.13702709529E+03 -0.27966699134E+01 -0.36407493282E+03  0.40860714985E+03  0.12500000000E+03 0.  0.
</event>
<event>
 4    0  0.2202290E-002  0.1772955E+03  0.7546771E-02  0.1170446E+00
         21   -1    0    0  502  501  0.00000000000E+00  0.00000000000E+00  0.32852848831E+02  0.32852848831E+02  0.00000000000E+00 0. -1.
         21   -1    0    0  501  502 -0.00000000000E+00 -0.00000000000E+00 -0.95680319879E+03  0.95680319879E+03  0.00000000000E+00 0. -1.
         25    1    1    2    0    0 -0.35759874850E+02  0.80963531340E+02 -0.21273520572E+03  0.26213570877E+03  0.12500000000E+03 0.  0.
         25    1    1    2    0    0  0.35759874850E+02 -0.80963531340E+02 -0.71121514423E+03  0.72752033885E+03  0.12500000000E+03 0.  0.
</event>
<event>
 4    0  0.2202290E-002  0.1459910E+03  0.7546771E-02  0.1205488E+00
         21   -1    0    0  502  501  0.00000000000E+00  0.00000000000E+00  0.11836386350E+02  0.11836386350E+02  0.00000000000E+00 0. -1.
         21   -1    0    0  501  502 -0.00000000000E+00 -0.00000000000E+00 -0.18006663405E+04  0.18006663405E+04  0.00000000000E+00 0. -1.
         25    1    1    2    0    0 -0.67208838327E+01 -0.68207337337E+01 -0.13588105832E+04  0.13645815819E+04  0.12500000000E+03 0.  0.
         25    1    1    2    0    0  0.67208838327E+01  0.68207337337E+01 -0.43001937097E+03  0.44792114495E+03  0.12500000000E+03 0.  0.
</event>
<event>
 4    0  0.2202290E-002  0.1871032E+03  0.7546771E-02  0.1161100E+00
         21   -1    0    0  502  501  0.00000000000E+00  0.00000000000E+00  0.23720069706E+03  0.23720069706E+03  0.00000000000E+00 0.  1.
         21   -1    0    0  501  502 -0.00000000000E+00 -0.00000000000E+00 -0.14758639366E+03  0.14758639366E+03  0.00000000000E+00 0.  1.
         25    1    1    2    0    0  0.43229593721E+00 -0.12559226234E+03 -0.16966365504E+02  0.17800691222E+03  0.12500000000E+03 0.  0.
         25    1    1    2    0    0 -0.43229593721E+00  0.12559226234E+03  0.10658066890E+03  0.20678017850E+03  0.12500000000E+03 0.  0.
</event>
<event>
 4    0  0.2202290E-002  0.1954155E+03  0.7546771E-02  0.1153666E+00
         21   -1    0    0  502  501  0.00000000000E+00  0.00000000000E+00  0.13813875175E+03  0.13813875175E+03  0.00000000000E+00 0.  1.
         21   -1    0    0  501  502 -0.00000000000E+00 -0.00000000000E+00 -0.27644116249E+03  0.27644116249E+03  0.00000000000E+00 0.  1.
         25    1    1    2    0    0 -0.37896689038E+02 -0.95073493388E+02  0.47470761274E+02  0.16838527656E+03  0.12500000000E+03 0.  0.
         25    1    1    2    0    0  0.37896689038E+02  0.95073493388E+02 -0.18577317201E+03  0.24619463768E+03  0.12500000000E+03 0.  0.
</event>
<event>
 4    0  0.2202290E-002  0.2004111E+03  0.7546771E-02  0.1149393E+00
         21   -1    0    0  502  501  0.00000000000E+00  0.00000000000E+00  0.18073407811E+03  0.18073407811E+03  0.00000000000E+00 0.  1.
         21   -1    0    0  501  502 -0.00000000000E+00 -0.00000000000E+00 -0.22223043786E+03  0.22223043786E+03  0.00000000000E+00 0.  1.
         25    1    1    2    0    0 -0.16556396871E+01 -0.71892786636E+02 -0.16066204663E+03  0.21589026643E+03  0.12500000000E+03 0.  0.
         25    1    1    2    0    0  0.16556396871E+01  0.71892786636E+02  0.11916568687E+03  0.18707424954E+03  0.12500000000E+03 0.  0.
</event>
<event>
 4    0  0.2202290E-002  0.2470102E+03  0.7546771E-02  0.1115209E+00
         21   -1    0    0  502  501  0.00000000000E+00  0.00000000000E+00  0.17557599089E+03  0.17557599089E+03  0.00000000000E+00 0. -1.
         21   -1    0    0  501  502 -0.00000000000E+00 -0.00000000000E+00 -0.34750797267E+03  0.34750797267E+03  0.00000000000E+00 0. -1.
         25    1    1    2    0    0  0.18263691004E+03 -0.10969376362E+03 -0.86290549973E+02  0.26164866080E+03  0.12500000000E+03 0.  0.
         25    1    1    2    0    0 -0.18263691004E+03  0.10969376362E+03 -0.85641431816E+02  0.26143530276E+03  0.12500000000E+03 0.  0.
</event>
<event>
 4    0  0.2202290E-002  0.3028584E+03  0.7546771E-02  0.1083820E+00
         21   -1    0    0  502  501  0.00000000000E+00  0.00000000000E+00  0.64764216507E+02  0.64764216507E+02  0.00000000000E+00 0.  1.
         21   -1    0    0  501  502 -0.00000000000E+00 -0.00000000000E+00 -0.14162634281E+04  0.14162634281E+04  0.00000000000E+00 0.  1.
         25    1    1    2    0    0 -0.11209260031E+03  0.17171162804E+03 -0.11269224447E+04  0.11522277686E+04  0.12500000000E+03 0.  0.
         25    1    1    2    0    0  0.11209260031E+03 -0.17171162804E+03 -0.22457676681E+03  0.32879987597E+03  0.12500000000E+03 0.  0.
</event>
<event>
 4    0  0.2202290E-002  0.3059200E+03  0.7546771E-02  0.1082318E+00
         21   -1    0    0  502  501  0.00000000000E+00  0.00000000000E+00  0.17590312564E+03  0.17590312564E+03  0.00000000000E+00 0.  1.
         21   -1    0    0  501  502 -0.00000000000E+00 -0.00000000000E+00 -0.53203733916E+03  0.53203733916E+03  0.00000000000E+00 0.  1.
         25    1    1    2    0    0  0.23876711324E+03  0.47126006446E+02 -0.33642672404E+03  0.43363410324E+03  0.12500000000E+03 0.  0.
         25    1    1    2    0    0 -0.23876711324E+03 -0.47126006446E+02 -0.19707489485E+02  0.27430636156E+03  0.12500000000E+03 0.  0.
</event>
<event>
 4    0  0.2202290E-002  0.1556841E+03  0.7546771E-02  0.1193657E+00
         21   -1    0    0  502  501  0.00000000000E+00  0.00000000000E+00  0.65847529404E+03  0.65847529404E+03  0.00000000000E+00 0. -1.
         21   -1    0    0  501  502 -0.00000000000E+00 -0.00000000000E+00 -0.36808592264E+02  0.36808592264E+02  0.00000000000E+00 0. -1.
         25    1    1    2    0    0 -0.56282820355E+02 -0.61518446311E+02  0.21984670794E+03  0.26628903487E+03  0.12500000000E+03 0.  0.
         25    1    1    2    0    0  0.56282820355E+02  0.61518446311E+02  0.40181999384E+03  0.42899485143E+03  0.12500000000E+03 0.  0.
</event>
<event>
 4    0  0.2202290E-002  0.2261375E+03  0.7546771E-02  0.1129388E+00
         21   -1    0    0  502  501  0.00000000000E+00  0.00000000000E+00  0.77495512092E+03  0.77495512092E+03  0.00000000000E+00 0.  1.
         21   -1    0    0  501  502 -0.00000000000E+00 -0.00000000000E+00 -0.65988543374E+02  0.65988543374E+02  0.00000000000E+00 0.  1.
         25    1    1    2    0    0  0.61598658817E+02  0.67030935569E+02  0.66128179276E+03  0.67912160216E+03  0.12500000000E+03 0.  0.
         25    1    1    2    0    0 -0.61598658817E+02 -0.67030935569E+02  0.47684784786E+02  0.16182206213E+03  0.12500000000E+03 0.  0.
</event>
<event>
 4    0  0.2202290E-002  0.1774409E+03  0.7546771E-02  0.1170303E+00
         21   -1    0    0  502  501  0.00000000000E+00  0.00000000000E+00  0.26703198065E+03  0.26703198065E+03  0.00000000000E+00 0.  1.
         21   -1    0    0  501  502 -0.00000000000E+00 -0.00000000000E+00 -0.11790820120E+03  0.11790820120E+03  0.00000000000E+00 0.  1.
         25    1    1    2    0    0  0.89402320131E+02  0.52057557724E+02 -0.33366058359E+01  0.16229262799E+03  0.12500000000E+03 0.  0.
         25    1    1    2    0    0 -0.89402320131E+02 -0.52057557724E+02  0.15246038528E+03  0.22264755386E+03  0.12500000000E+03 0.  0.
</event>
<event>
 4    0  0.2202290E-002  0.1873728E+03  0.7546771E-02  0.1160852E+00
         21   -1    0    0  502  501  0.00000000000E+00  0.00000000000E+00  0.85037118529E+02  0.85037118529E+02  0.00000000000E+00 0. -1.
         21   -1    0    0  501  502 -0.00000000000E+00 -0.00000000000E+00 -0.41286181298E+03  0.41286181298E+03  0.00000000000E+00 0. -1.
         25    1    1    2    0    0 -0.89464877362E+02  0.21349856351E+02 -0.24413633904E+02  0.15710126087E+03  0.12500000000E+03 0.  0.
         25    1    1    2    0    0  0.89464877362E+02 -0.21349856351E+02 -0.30341106054E+03  0.34079767063E+03  0.12500000000E+03 0.  0.
</event>
<event>
 4    0  0.2202290E-002  0.1976338E+03  0.7546771E-02  0.1151751E+00
         21   -1    0    0  502  501  0.00000000000E+00  0.00000000000E+00  0.16419140105E+03  0.16419140105E+03  0.00000000000E+00 0. -1.
         21   -1    0    0  501  502 -0.00000000000E+00 -0.00000000000E+00 -0.23788782250E+03  0.23788782250E+03  0.00000000000E+00 0. -1.
         25    1    1    2    0    0 -0.43547767875E+02 -0.12417706449E+03  0.42715929970E+02  0.18645643487E+03  0.12500000000E+03 0.  0.
         25    1    1    2    0    0  0.43547767875E+02  0.12417706449E+03 -0.11641235143E+03  0.21562278868E+03  0.12500000000E+03 0.  0.
</event>
<event>
 4    0  0.2202290E-002  0.3073523E+03  0.7546771E-02  0.1081622E+00
         21   -1    0    0  502  501  0.00000000000E+00  0.00000000000E+00  0.62164882704E+02  0.62164882704E+02  0.00000000000E+00 0. -1.
         21   -1    0    0  501  502 -0.00000000000E+00 -0.00000000000E+00 -0.15195944474E+04  0.15195944474E+04  0.00000000000E+00 0. -1.
         25    1    1    2    0    0  0.16983145056E+03 -0.21383259650E+03 -0.89692647579E+03  0.94586954909E+03  0.12500000000E+03 0.  0.
         25    1    1    2    0    0 -0.16983145056E+03  0.21383259650E+03 -0.56050308891E+03  0.63588978102E+03  0.12500000000E+03 0.  0.
</event>
<event>
 4    0  0.2202290E-002  0.1770059E+03  0.7546771E-02  0.1170733E+00
         21   -1    0    0  502  501  0.00000000000E+00  0.00000000000E+00  0.36120587521E+02  0.36120587521E+02  0.00000000000E+00 0.  1.
         21   -1    0    0  501  502 -0.00000000000E+00 -0.00000000000E+00 -0.86740258684E+03  0.86740258684E+03  0.00000000000E+00 0.  1.
         25    1    1    2    0    0 -0.28500946744E+02 -0.10000807243E+03 -0.59415505819E+03  0.61600255819E+03  0.12500000000E+03 0.  0.
         25    1    1    2    0    0  0.28500946744E+02  0.10000807243E+03 -0.23712694112E+03  0.28752061617E+03  0.12500000000E+03 0.  0.
</event>
<event>
 4    0  0.2202290E-002  0.1878720E+03  0.7546771E-02  0.1160395E+00
         21   -1    0    0  502  501  0.00000000000E+00  0.00000000000E+00  0.38081124265E+03  0.38081124265E+03  0.00000000000E+00 0. -1.
         21   -1    0    0  501  502 -0.00000000000E+00 -0.00000000000E+00 -0.92686047334E+02  0.92686047334E+02  0.00000000000E+00 0. -1.
         25    1    1    2    0    0  0.58901506096E+02  0.72356538408E+02  0.27602499919E+03  0.31704835002E+03  0.12500000000E+03 0.  0.
         25    1    1    2    0    0 -0.58901506096E+02 -0.72356538408E+02  0.12100196126E+02  0.15644893997E+03  0.12500000000E+03 0.  0.
</event>
<event>
 4    0  0.2202290E-002  0.2456554E+03  0.7546771E-02  0.1116082E+00
         21   -1    0    0  502  501  0.00000000000E+00  0.00000000000E+00  0.11653855450E+03  0.11653855450E+03  0.00000000000E+00 0.  1.
         21   -1    0    0  501  502 -0.00000000000E+00 -0.00000000000E+00 -0.51782494432E+03  0.51782494432E+03  0.00000000000E+00 0.  1.
         25    1    1    2    0    0  0.16327806891E+03  0.27234835124E+02 -0.37056815308E+03  0.42467307438E+03  0.12500000000E+03 0.  0.
         25    1    1    2    0    0 -0.16327806891E+03 -0.27234835124E+02 -0.30718236749E+02  0.20969042444E+03  0.12500000000E+03 0.  0.
</event>
<event>
 4    0  0.2202290E-002  0.2279813E+03  0.7546771E-02  0.1128069E+00
         21   -1    0    0  502  501  0.00000000000E+00  0.00000000000E+00  0.65337830740E+03  0.65337830740E+03  0.00000000000E+00 0. -1.
         21   -1    0    0  501  502 -0.00000000000E+00 -0.00000000000E+00 -0.79548850143E+02  0.79548850143E+02  0.00000000000E+00 0. -1.
         25    1    1    2    0    0 -0.15080511270E+02  0.12194839563E+03  0.52584703266E+02  0.18299995638E+03  0.12500000000E+03 0.  0.
         25    1    1    2    0    0  0.15080511270E+02 -0.12194839563E+03  0.52124475399E+03  0.54992720117E+03  0.12500000000E+03 0.  0.
</event>
<event>
 4    0  0.2202290E-002  0.2604295E+03  0.7546771E-02  0.1106885E+00
         21   -1    0    0  502  501  0.00000000000E+00  0.00000000000E+00  0.18108842015E+04  0.18108842015E+04  0.00000000000E+00 0. -1.
         21   -1    0    0  501  502 -0.00000000000E+00 -0.00000000000E+00 -0.37453254489E+02  0.37453254489E+02  0.00000000000E+00 0. -1.
         25    1    1    2    0    0  0.77316151164E+02  0.18745507893E+03  0.12602723704E+04  0.12825866993E+04  0.12500000000E+03 0.  0.
         25    1    1    2    0    0 -0.77316151164E+02 -0.18745507893E+03  0.51315857663E+03  0.56575075662E+03  0.12500000000E+03 0.  0.
</event>
<event>
 4    0  0.2202290E-002  0.2356968E+03  0.7546771E-02  0.1122693E+00
         21   -1    0    0  502  501  0.00000000000E+00  0.00000000000E+00  0.13336920732E+03  0.13336920732E+03  0.00000000000E+00 0. -1.
         21   -1    0    0  501  502 -0.00000000000E+00 -0.00000000000E+00 -0.41653543807E+03  0.41653543807E+03  0.00000000000E+00 0. -1.
         25    1    1    2    0    0  0.23988175887E+01  0.11475218577E+03  0.49226156452E+02  0.17669757481E+03  0.12500000000E+03 0.  0.
         25    1    1    2    0    0 -0.23988175887E+01 -0.11475218577E+03 -0.33239238719E+03  0.37320707058E+03  0.12500000000E+03 0.  0.
</event>
<event>
 4    0  0.2202290E-002  0.2599839E+03  0.7546771E-02  0.1107153E+00
         21   -1    0    0  502  501  0.00000000000E+00  0.00000000000E+00  0.16989528878E+03  0.16989528878E+03  0.00000000000E+00 0.  1.
         21   -1    0    0  501  502 -0.00000000000E+00 -0.00000000000E+00 -0.39784276749E+03  0.39784276749E+03  0.00000000000E+00 0.  1.
         25    1    1    2    0    0 -0.18827091776E+03  0.75911077342E+02 -0.72299961546E+00  0.23839872665E+03  0.12500000000E+03 0.  0.
         25    1    1    2    0    0  0.18827091776E+03 -0.75911077342E+02 -0.22722447909E+03  0.32933932962E+03  0.12500000000E+03 0.  0.
</event>
<event>
 4    0  0.2202290E-002  0.3482704E+03  0.7546771E-02  0.1063327E+00
         21   -1    0    0  502  501  0.00000000000E+00  0.00000000000E+00  0.15767441659E+03  0.15767441659E+03  0.00000000000E+00 0. -1.
         21   -1    0    0  501  502 -0.00000000000E+00 -0.00000000000E+00 -0.76925777537E+03  0.76925777537E+03  0.00000000000E+00 0. -1.
         25    1    1    2    0    0  0.58403405721E+02  0.30779032840E+03 -0.42120382763E+03  0.53961422190E+03  0.12500000000E+03 0.  0.
         25    1    1    2    0    0 -0.58403405721E+02 -0.30779032840E+03 -0.19037953114E+03  0.38731797006E+03  0.12500000000E+03 0.  0.
</event>
<event>
 4    0  0.2202290E-002  0.1879477E+03  0.7546771E-02  0.1160325E+00
         21   -1    0    0  502  501  0.00000000000E+00  0.00000000000E+00  0.52848628655E+02  0.52848628655E+02  0.00000000000E+00 0.  1.
         21   -1    0    0  501  502 -0.00000000000E+00 -0.00000000000E+00 -0.66840615762E+03  0.66840615762E+03  0.00000000000E+00 0.  1.
         25    1    1    2    0    0 -0.34306583938E+01 -0.90051814462E+02 -0.51424217335E+03  0.53683434275E+03  0.12500000000E+03 0.  0.
         25    1    1    2    0    0  0.34306583938E+01  0.90051814462E+02 -0.10131535561E+03  0.18442044352E+03  0.12500000000E+03 0.  0.
</event>
<event>
 4    0  0.2202290E-002  0.2116071E+03  0.7546771E-02  0.1140300E+00
         21   -1    0    0  502  501  0.00000000000E+00  0.00000000000E+00  0.58354061815E+02  0.58354061815E+02  0.00000000000E+00 0. -1.
         21   -1    0    0  501  502 -0.00000000000E+00 -0.00000000000E+00 -0.76734293697E+03  0.76734293697E+03  0.00000000000E+00 0. -1.
         25    1    1    2    0    0 -0.24310523825E+02 -0.94925352166E+02 -0.62729305234E+03  0.64708840012E+03  0.12500000000E+03 0.  0.
         25    1    1    2    0    0  0.24310523825E+02  0.94925352166E+02 -0.81695822815E+02  0.17860859867E+03  0.12500000000E+03 0.  0.
</event>
<event>
 4    0  0.2202290E-002  0.2950099E+03  0.7546771E-02  0.1087762E+00
         21   -1    0    0  502  501  0.00000000000E+00  0.00000000000E+00  0.14863995233E+03  0.14863995233E+03  0.00000000000E+00 0. -1.
         21   -1    0    0  501  502 -0.00000000000E+00 -0.00000000000E+00 -0.58551434635E+03  0.58551434635E+03  0.00000000000E+00 0. -1.
         25    1    1    2    0    0 -0.17641892433E+03 -0.11185328465E+03 -0.11081105518E+02  0.24368542231E+03  0.12500000000E+03 0.  0.
         25    1    1    2    0    0  0.17641892433E+03  0.11185328465E+03 -0.42579328850E+03  0.49046887636E+03  0.12500000000E+03 0.  0.
</event>
<event>
 4    0  0.2202290E-002  0.4233930E+03  0.7546771E-02  0.1035968E+00
         21   -1    0    0  502  501  0.00000000000E+00  0.00000000000E+00  0.53344067472E+03  0.53344067472E+03  0.00000000000E+00 0.  1.
         21   -1    0    0  501  502 -0.00000000000E+00 -0.00000000000E+00 -0.33604791588E+03  0.33604791588E+03  0.00000000000E+00 0.  1.
         25    1    1    2    0    0  0.71843826317E+02 -0.15799630717E+03  0.47388598357E+03  0.51992046881E+03  0.12500000000E+03 0.  0.
         25    1    1    2    0    0 -0.71843826317E+02  0.15799630717E+03 -0.27649322473E+03  0.34956812180E+03  0.12500000000E+03 0.  0.
</event>
<event>
 4    0  0.2202290E-002  0.2805382E+03  0.7546771E-02  0.1095395E+00
         21   -1    0    0  502  501  0.00000000000E+00  0.00000000000E+00  0.12688767591E+03  0.12688767591E+03  0.00000000000E+00 0. -1.
         21   -1    0    0  501  502 -0.00000000000E+00 -0.00000000000E+00 -0.62024667276E+03  0.62024667276E+03  0.00000000000E+00 0. -1.
         25    1    1    2    0    0 -0.18689426646E+03 -0.16753944162E+03 -0.23493960858E+03  0.36581491360E+03  0.12500000000E+03 0.  0.
         25    1    1    2    0    0  0.18689426646E+03  0.16753944162E+03 -0.25841938827E+03  0.38131943507E+03  0.12500000000E+03 0.  0.
</event>
<event>
 4    0  0.2202290E-002  0.3181467E+03  0.7546771E-02  0.1076505E+00
         21   -1    0    0  502  501  0.00000000000E+00  0.00000000000E+00  0.45546381998E+03  0.45546381998E+03  0.00000000000E+00 0.  1.
         21   -1    0    0  501  502 -0.00000000000E+00 -0.00000000000E+00 -0.22222913822E+03  0.22222913822E+03  0.00000000000E+00 0. -1.
         25    1    1    2    0    0 -0.27017319899E+03  0.10599047745E+03  0.15596410281E+03  0.35238805333E+03  0.12500000000E+03 0.  0.
         25    1    1    2    0    0  0.27017319899E+03 -0.10599047745E+03  0.77270578941E+02  0.32530490487E+03  0.12500000000E+03 0.  0.
</event>
<event>
 4    0  0.2202290E-002  0.2225252E+03  0.7546771E-02  0.1132014E+00
         21   -1    0    0  502  501  0.00000000000E+00  0.00000000000E+00  0.45251528711E+03  0.45251528711E+03  0.00000000000E+00 0.  1.
         21   -1    0    0  501  502 -0.00000000000E+00 -0.00000000000E+00 -0.10942712432E+03  0.10942712432E+03  0.00000000000E+00 0.  1.
         25    1    1    2    0    0  0.15630089020E+03 -0.21147197353E+02  0.29143110216E+03  0.35416699386E+03  0.12500000000E+03 0.  0.
         25    1    1    2    0    0 -0.15630089020E+03  0.21147197353E+02  0.51657060628E+02  0.20777541757E+03  0.12500000000E+03 0.  0.
</event>
<event>
 4    0  0.2202290E-002  0.2358661E+03  0.7546771E-02  0.1122578E+00
         21   -1    0    0  502  501  0.00000000000E+00  0.00000000000E+00  0.13199125902E+03  0.13199125902E+03  0.00000000000E+00 0.  1.
         21   -1    0    0  501  502 -0.00000000000E+00 -0.00000000000E+00 -0.42148866222E+03  0.42148866222E+03  0.00000000000E+00 0.  1.
         25    1    1    2    0    0 -0.12519499040E+03 -0.10132421954E+03 -0.28390850811E+03  0.34952742963E+03  0.12500000000E+03 0.  0.
         25    1    1    2    0    0  0.12519499040E+03  0.10132421954E+03 -0.55888950947E+01  0.20395249161E+03  0.12500000000E+03 0.  0.
</event>
<event>
 4    0  0.2202290E-002  0.2229188E+03  0.7546771E-02  0.1131725E+00
         21   -1    0    0  502  501  0.00000000000E+00  0.00000000000E+00  0.10189008450E+03  0.10189008450E+03  0.00000000000E+00 0. -1.
         21   -1    0    0  501  502 -0.00000000000E+00 -0.00000000000E+00 -0.48770984305E+03  0.48770984305E+03  0.00000000000E+00 0. -1.
         25    1    1    2    0    0 -0.28589823461E+02 -0.17411377266E+03 -0.26455241394E+03  0.34168108457E+03  0.12500000000E+03 0.  0.
         25    1    1    2    0    0  0.28589823461E+02  0.17411377266E+03 -0.12126734462E+03  0.24791884298E+03  0.12500000000E+03 0.  0.
</event>
<event>
 4    0  0.2202290E-002  0.2086913E+03  0.7546771E-02  0.1142607E+00
         21   -1    0    0  502  501  0.00000000000E+00  0.00000000000E+00  0.14067931976E+03  0.14067931976E+03  0.00000000000E+00 0. -1.
         21   -1    0    0  501  502 -0.00000000000E+00 -0.00000000000E+00 -0.30958406157E+03  0.30958406157E+03  0.00000000000E+00 0. -1.
         25    1    1    2    0    0 -0.16996067184E+01  0.11854454299E+03 -0.21150744304E+03  0.27279313737E+03  0.12500000000E+03 0.  0.
         25    1    1    2    0    0  0.16996067184E+01 -0.11854454299E+03  0.42602701229E+02  0.17747024395E+03  0.12500000000E+03 0.  0.
</event>
<event>
 4    0  0.2202290E-002  0.3323868E+03  0.7546771E-02  0.1070086E+00
         21   -1    0    0  502  501  0.00000000000E+00  0.00000000000E+00  0.32749959186E+04  0.32749959186E+04  0.00000000000E+00 0.  1.
         21   -1    0    0  501  502 -0.00000000000E+00 -0.00000000000E+00 -0.33734695286E+02  0.33734695286E+02  0.00000000000E+00 0.  1.
         25    1    1    2    0    0  0.87106911544E+02 -0.76493763709E+02  0.30408171655E+04  0.30455923798E+04  0.12500000000E+03 0.  0.
         25    1    1    2    0    0 -0.87106911544E+02  0.76493763709E+02  0.20044405783E+03  0.26313823410E+03  0.12500000000E+03 0.  0.
</event>
<event>
 4    0  0.2202290E-002  0.3372165E+03  0.7546771E-02  0.1067988E+00
         21   -1    0    0  502  501  0.00000000000E+00  0.00000000000E+00  0.61492038647E+03  0.61492038647E+03  0.00000000000E+00 0.  1.
         21   -1    0    0  501  502 -0.00000000000E+00 -0.00000000000E+00 -0.18492628039E+03  0.18492628039E+03  0.00000000000E+00 0.  1.
         25    1    1    2    0    0  0.22145445828E+02 -0.21862348208E+03 -0.49668247865E+02  0.25764041323E+03  0.12500000000E+03 0.  0.
         25    1    1    2    0    0 -0.22145445828E+02  0.21862348208E+03  0.47966235394E+03  0.54220625362E+03  0.12500000000E+03 0.  0.
</event>
<event>
 4    0  0.2202290E-002  0.2143944E+03  0.7546771E-02  0.1138133E+00
         21   -1    0    0  502  501  0.00000000000E+00  0.00000000000E+00  0.63953365328E+03  0.63953365328E+03  0.00000000000E+00 0.  1.
         21   -1    0    0  501  502 -0.00000000000E+00 -0.00000000000E+00 -0.71872644919E+02  0.71872644919E+02  0.00000000000E+00 0.  1.
         25    1    1    2    0    0  0.11903940572E+03 -0.31818785573E+02  0.79570605619E+02  0.19271558450E+03  0.12500000000E+03 0.  0.
         25    1    1    2    0    0 -0.11903940572E+03  0.31818785573E+02  0.48809040274E+03  0.51869071370E+03  0.12500000000E+03 0.  0.
</event>
<event>
 4    0  0.2202290E-002  0.1880368E+03  0.7546771E-02  0.1160244E+00
         21   -1    0    0  502  501  0.00000000000E+00  0.00000000000E+00  0.11736593806E+03  0.11736593806E+03  0.00000000000E+00 0. -1.
         21   -1    0    0  501  502 -0.00000000000E+00 -0.00000000000E+00 -0.30126149607E+03  0.30126149607E+03  0.00000000000E+00 0. -1.
         25    1    1    2    0    0  0.81719046270E+01  0.60908231809E+02 -0.23255906871E+03  0.27108174628E+03  0.12500000000E+03 0.  0.
         25    1    1    2    0    0 -0.81719046270E+01 -0.60908231809E+02  0.48663510698E+02  0.14754568784E+03  0.12500000000E+03 0.  0.
</event>
<event>
 4    0  0.2202290E-002  0.1664108E+03  0.7546771E-02  0.1181643E+00
         21   -1    0    0  502  501  0.00000000000E+00  0.00000000000E+00  0.17672503752E+03  0.17672503752E+03  0.00000000000E+00 0. -1.
         21   -1    0    0  501  502 -0.00000000000E+00 -0.00000000000E+00 -0.15669853131E+03  0.15669853131E+03  0.00000000000E+00 0. -1.
         25    1    1    2    0    0  0.96909946222E+02 -0.51573729034E+02  0.14041299266E+02  0.16695372200E+03  0.12500000000E+03 0.  0.
         25    1    1    2    0    0 -0.96909946222E+02  0.51573729034E+02  0.59852069369E+01  0.16646984684E+03  0.12500000000E+03 0.  0.
</event>
<event>
 4    0  0.2202290E-002  0.3686113E+03  0.7546771E-02  0.1055225E+00
         21   -1    0    0  502  501  0.00000000000E+00  0.00000000000E+00  0.29801022560E+03  0.29801022560E+03  0.00000000000E+00 0. -1.
         21   -1    0    0  501  502 -0.00000000000E+00 -0.00000000000E+00 -0.45593837587E+03  0.45593837587E+03  0.00000000000E+00 0. -1.
         25    1    1    2    0    0 -0.26632149639E+03 -0.46283805804E+02 -0.30110158995E+03  0.42350501483E+03  0.12500000000E+03 0.  0.
         25    1    1    2    0    0  0.26632149639E+03  0.46283805804E+02  0.14317343968E+03  0.33044358663E+03  0.12500000000E+03 0.  0.
</event>
<event>
 4    0  0.2202290E-002  0.1561775E+03  0.7546771E-02  0.1193081E+00
         21   -1    0    0  502  501  0.00000000000E+00  0.00000000000E+00  0.46822763080E+02  0.46822763080E+02  0.00000000000E+00 0. -1.
         21   -1    0    0  501  502 -0.00000000000E+00 -0.00000000000E+00 -0.52093043163E+03  0.52093043163E+03  0.00000000000E+00 0. -1.
         25    1    1    2    0    0  0.29307260831E+02 -0.87070331512E+02 -0.26988471124E+03  0.31129233131E+03  0.12500000000E+03 0.  0.
         25    1    1    2    0    0 -0.29307260831E+02  0.87070331512E+02 -0.20422295731E+03  0.25646086341E+03  0.12500000000E+03 0.  0.
</event>
<event>
 4    0  0.2202290E-002  0.1867734E+03  0.7546771E-02  0.1161404E+00
         21   -1    0    0  502  501  0.00000000000E+00  0.00000000000E+00  0.17702117024E+03  0.17702117024E+03  0.00000000000E+00 0. -1.
         21   -1    0    0  501  502 -0.00000000000E+00 -0.00000000000E+00 -0.19706299254E+03  0.19706299254E+03  0.00000000000E+00 0. -1.
         25    1    1    2    0    0 -0.37530192539E+01  0.13871132376E+03 -0.12122752620E+02  0.18715468903E+03  0.12500000000E+03 0.  0.
         25    1    1    2    0    0  0.37530192539E+01 -0.13871132376E+03 -0.79190696769E+01  0.18692947375E+03  0.12500000000E+03 0.  0.
</event>
<event>
 4    0  0.2202290E-002  0.1842671E+03  0.7546771E-02  0.1163736E+00
         21   -1    0    0  502  501  0.00000000000E+00  0.00000000000E+00  0.32133932049E+03  0.32133932049E+03  0.00000000000E+00 0. -1.
         21   -1    0    0  501  502 -0.00000000000E+00 -0.00000000000E+00 -0.10566513613E+03  0.10566513613E+03  0.00000000000E+00 0. -1.
         25    1    1    2    0    0  0.25178061114E+00  0.26159544676E+02  0.26174650355E+03  0.29123979345E+03  0.12500000000E+03 0.  0.
         25    1    1    2    0    0 -0.25178061114E+00 -0.26159544676E+02 -0.46072319185E+02  0.13576466317E+03  0.12500000000E+03 0.  0.
</event>
<event>
 4    0  0.2202290E-002  0.2413115E+03  0.7546771E-02  0.1118922E+00
         21   -1    0    0  502  501  0.00000000000E+00  0.00000000000E+00  0.37791379273E+03  0.37791379273E+03  0.00000000000E+00 0. -1.
         21   -1    0    0  501  502 -0.00000000000E+00 -0.00000000000E+00 -0.15408605415E+03  0.15408605415E+03  0.00000000000E+00 0. -1.
         25    1    1    2    0    0 -0.10645115103E+03  0.68455205063E+02 -0.67827735712E+02  0.19037742615E+03  0.12500000000E+03 0.  0.
         25    1    1    2    0    0  0.10645115103E+03 -0.68455205063E+02  0.29165547430E+03  0.34162242073E+03  0.12500000000E+03 0.  0.
</event>
<event>
 4    0  0.2202290E-002  0.1941643E+03  0.7546771E-02  0.1154758E+00
         21   -1    0    0  502  501  0.00000000000E+00  0.00000000000E+00  0.13993459016E+03  0.13993459016E+03  0.00000000000E+00 0. -1.
         21   -1    0    0  501  502 -0.00000000000E+00 -0.00000000000E+00 -0.26940991581E+03  0.26940991581E+03  0.00000000000E+00 0. -1.
         25    1    1    2    0    0 -0.11350520475E+03  0.43368378742E+02 -0.15486649182E+03  0.23317992639E+03  0.12500000000E+03 0.  0.
         25    1    1    2    0    0  0.11350520475E+03 -0.43368378742E+02  0.25391166166E+02  0.17616457958E+03  0.12500000000E+03 0.  0.
</event>
<event>
 4    0  0.2202290E-002  0.2294636E+03  0.7546771E-02  0.1127018E+00
         21   -1    0    0  502  501  0.00000000000E+00  0.00000000000E+00  0.16368774029E+03  0.16368774029E+03  0.00000000000E+00 0.  1.
         21   -1    0    0  501  502 -0.00000000000E+00 -0.00000000000E+00 -0.32167070010E+03  0.32167070010E+03  0.00000000000E+00 0.  1.
         25    1    1    2    0    0  0.12845176290E+03 -0.78010876891E+02  0.48109071054E+02  0.20130830838E+03  0.12500000000E+03 0.  0.
         25    1    1    2    0    0 -0.12845176290E+03  0.78010876891E+02 -0.20609203087E+03  0.28405013201E+03  0.12500000000E+03 0.  0.
</event>
<event>
 4    0  0.2202290E-002  0.2506546E+03  0.7546771E-02  0.1112892E+00
         21   -1    0    0  502  501  0.00000000000E+00  0.00000000000E+00  0.27466301774E+03  0.27466301774E+03  0.00000000000E+00 0. -1.
         21   -1    0    0  501  502 -0.00000000000E+00 -0.00000000000E+00 -0.22874482057E+03  0.22874482057E+03  0.00000000000E+00 0. -1.
         25    1    1    2    0    0 -0.36721768837E+02 -0.28683507570E+02  0.23605372993E+03  0.27114128296E+03  0.12500000000E+03 0.  0.
         25    1    1    2    0    0  0.36721768837E+02  0.28683507570E+02 -0.19013553276E+03  0.23226655534E+03  0.12500000000E+03 0.  0.
</event>
<event>
 4    0  0.2202290E-002  0.2075758E+03  0.7546771E-02  0.1143500E+00
         21   -1    0    0  502  501  0.00000000000E+00  0.00000000000E+00  0.42352313302E+03  0.42352313302E+03  0.00000000000E+00 0. -1.
         21   -1    0    0  501  502 -0.00000000000E+00 -0.00000000000E+00 -0.10173636315E+03  0.10173636315E+03  0.00000000000E+00 0. -1.
         25    1    1    2    0    0  0.15707593875E+03  0.11477868274E+02  0.95662416984E+02  0.22266766720E+03  0.12500000000E+03 0.  0.
         25    1    1    2    0    0 -0.15707593875E+03 -0.11477868274E+02  0.22612435288E+03  0.30259182897E+03  0.12500000000E+03 0.  0.
</event>
<event>
 4    0  0.2202290E-002  0.1825352E+03  0.7546771E-02  0.1165372E+00
         21   -1    0    0  502  501  0.00000000000E+00  0.00000000000E+00  0.24707955491E+03  0.24707955491E+03  0.00000000000E+00 0. -1.
         21   -1    0    0  501  502 -0.00000000000E+00 -0.00000000000E+00 -0.13485176960E+03  0.13485176960E+03  0.00000000000E+00 0. -1.
         25    1    1    2    0    0 -0.72013301486E+02  0.11083579197E+03  0.71758710670E+02  0.19556278002E+03  0.12500000000E+03 0.  0.
         25    1    1    2    0    0  0.72013301486E+02 -0.11083579197E+03  0.40469074635E+02  0.18636854449E+03  0.12500000000E+03 0.  0.
</event>
<event>
 4    0  0.2202290E-002  0.2595006E+03  0.7546771E-02  0.1107444E+00
         21   -1    0    0  502  501  0.00000000000E+00  0.00000000000E+00  0.52512235472E+02  0.52512235472E+02  0.00000000000E+00 0. -1.
         21   -1    0    0  501  502 -0.00000000000E+00 -0.00000000000E+00 -0.12823780936E+04  0.12823780936E+04  0.00000000000E+00 0. -1.
         25    1    1    2    0    0 -0.68787520644E+02  0.19901127503E+03 -0.39400209861E+03  0.46389639392E+03  0.12500000000E+03 0.  0.
         25    1    1    2    0    0  0.68787520644E+02 -0.19901127503E+03 -0.83586375950E+03  0.87099393513E+03  0.12500000000E+03 0.  0.
</event>
<event>
 4    0  0.2202290E-002  0.2380432E+03  0.7546771E-02  0.1121103E+00
         21   -1    0    0  502  501  0.00000000000E+00  0.00000000000E+00  0.14978107259E+03  0.14978107259E+03  0.00000000000E+00 0.  1.
         21   -1    0    0  501  502 -0.00000000000E+00 -0.00000000000E+00 -0.37831603149E+03  0.37831603149E+03  0.00000000000E+00 0.  1.
         25    1    1    2    0    0 -0.15274317443E+03 -0.11225477757E+03 -0.19354536472E+03  0.29835619757E+03  0.12500000000E+03 0.  0.
         25    1    1    2    0    0  0.15274317443E+03  0.11225477757E+03 -0.34989594175E+02  0.22974090651E+03  0.12500000000E+03 0.  0.
</event>
<event>
 4    0  0.2202290E-002  0.2093244E+03  0.7546771E-02  0.1142102E+00
         21   -1    0    0  502  501  0.00000000000E+00  0.00000000000E+00  0.89628189935E+02  0.89628189935E+02  0.00000000000E+00 0.  1.
         21   -1    0    0  501  502 -0.00000000000E+00 -0.00000000000E+00 -0.48887182410E+03  0.48887182410E+03  0.00000000000E+00 0.  1.
         25    1    1    2    0    0  0.30464731902E+02 -0.23307272047E+02 -0.42550025623E+03  0.44513682938E+03  0.12500000000E+03 0.  0.
         25    1    1    2    0    0 -0.30464731902E+02  0.23307272047E+02  0.26256622060E+02  0.13336318466E+03  0.12500000000E+03 0.  0.
</event>
<event>
 4    0  0.2202290E-002  0.3522012E+03  0.7546771E-02  0.1061715E+00
         21   -1    0    0  502  501  0.00000000000E+00  0.00000000000E+00  0.15527597764E+03  0.15527597764E+03  0.00000000000E+00 0.  1.
         21   -1    0    0  501  502 -0.00000000000E+00 -0.00000000000E+00 -0.79887212883E+03  0.79887212883E+03  0.00000000000E+00 0.  1.
         25    1    1    2    0    0 -0.30163911654E+03 -0.90249997291E+02 -0.45235190355E+03  0.56513579190E+03  0.12500000000E+03 0.  0.
         25    1    1    2    0    0  0.30163911654E+03  0.90249997291E+02 -0.19124424765E+03  0.38901231458E+03  0.12500000000E+03 0.  0.
</event>
<event>
 4    0  0.2202290E-002  0.1806700E+03  0.7546771E-02  0.1167156E+00
         21   -1    0    0  502  501  0.00000000000E+00  0.00000000000E+00  0.24631184486E+03  0.24631184486E+03  0.00000000000E+00 0.  1.
         21   -1    0    0  501  502 -0.00000000000E+00 -0.00000000000E+00 -0.13252167302E+03  0.13252167302E+03  0.00000000000E+00 0.  1.
         25    1    1    2    0    0  0.67306753865E+02  0.33957168453E+02  0.16850732460E+03  0.22294171177E+03  0.12500000000E+03 0.  0.
         25    1    1    2    0    0 -0.67306753865E+02 -0.33957168453E+02 -0.54717152758E+02  0.15589180611E+03  0.12500000000E+03 0.  0.
</event>
<event>
 4    0  0.2202290E-002  0.2241555E+03  0.7546771E-02  0.1130822E+00
         21   -1    0    0  502  501  0.00000000000E+00  0.00000000000E+00  0.17932940712E+02  0.17932940712E+02  0.00000000000E+00 0.  1.
         21   -1    0    0  501  502 -0.00000000000E+00 -0.00000000000E+00 -0.28018653497E+04  0.28018653497E+04  0.00000000000E+00 0.  1.
         25    1    1    2    0    0 -0.18250156427E+03  0.15389457074E+02 -0.11855459407E+04  0.12061044042E+04  0.12500000000E+03 0.  0.
         25    1    1    2    0    0  0.18250156427E+03 -0.15389457074E+02 -0.15983864683E+04  0.16136938862E+04  0.12500000000E+03 0.  0.
</event>
<event>
 4    0  0.2202290E-002  0.2060705E+03  0.7546771E-02  0.1144716E+00
         21   -1    0    0  502  501  0.00000000000E+00  0.00000000000E+00  0.83238127551E+02  0.83238127551E+02  0.00000000000E+00 0.  1.
         21   -1    0    0  501  502 -0.00000000000E+00 -0.00000000000E+00 -0.51016324300E+03  0.51016324300E+03  0.00000000000E+00 0.  1.
         25    1    1    2    0    0 -0.89331293660E+02  0.23345514683E+00 -0.15732591460E+02  0.15444302821E+03  0.12500000000E+03 0.  0.
         25    1    1    2    0    0  0.89331293660E+02 -0.23345514683E+00 -0.41119252399E+03  0.43895834235E+03  0.12500000000E+03 0.  0.
</event>
<event>
 4    0  0.2202290E-002  0.2414926E+03  0.7546771E-02  0.1118802E+00
         21   -1    0    0  502  501  0.00000000000E+00  0.00000000000E+00  0.35984761633E+03  0.35984761633E+03  0.00000000000E+00 0.  1.
         21   -1    0    0  501  502 -0.00000000000E+00 -0.00000000000E+00 -0.16206491828E+03  0.16206491828E+03  0.00000000000E+00 0.  1.
         25    1    1    2    0    0  0.17103552164E+03 -0.10480552420E+03  0.45335489046E+02  0.24066086955E+03  0.12500000000E+03 0.  0.
         25    1    1    2    0    0 -0.17103552164E+03  0.10480552420E+03  0.15244720900E+03  0.28125166506E+03  0.12500000000E+03 0.  0.
</event>
<event>
 4    0  0.2202290E-002  0.1965284E+03  0.7546771E-02  0.1152701E+00
         21   -1    0    0  502  501  0.00000000000E+00  0.00000000000E+00  0.14276109177E+03  0.14276109177E+03  0.00000000000E+00 0.  1.
         21   -1    0    0  501  502 -0.00000000000E+00 -0.00000000000E+00 -0.27054588221E+03  0.27054588221E+03  0.00000000000E+00 0.  1.
         25    1    1    2    0    0  0.13449938690E+03 -0.66845408175E+02 -0.41834737258E+02  0.19983377821E+03  0.12500000000E+03 0.  0.
         25    1    1    2    0    0 -0.13449938690E+03  0.66845408175E+02 -0.85950053184E+02  0.21347319577E+03  0.12500000000E+03 0.  0.
</event>
<event>
 4    0  0.2202290E-002  0.1682516E+03  0.7546771E-02  0.1179683E+00
         21   -1    0    0  502  501  0.00000000000E+00  0.00000000000E+00  0.52954694691E+02  0.52954694691E+02  0.00000000000E+00 0. -1.
         21   -1    0    0  501  502 -0.00000000000E+00 -0.00000000000E+00 -0.53458162713E+03  0.53458162713E+03  0.00000000000E+00 0. -1.
         25    1    1    2    0    0  0.53873054144E+02 -0.98803874202E+02 -0.24844319468E+03  0.30002255332E+03  0.12500000000E+03 0.  0.
         25    1    1    2    0    0 -0.53873054144E+02  0.98803874202E+02 -0.23318373776E+03  0.28751376850E+03  0.12500000000E+03 0.  0.
</event>
<event>
 4    0  0.2202290E-002  0.2650251E+03  0.7546771E-02  0.1104161E+00
         21   -1    0    0  502  501  0.00000000000E+00  0.00000000000E+00  0.82699518572E+02  0.82699518572E+02  0.00000000000E+00 0. -1.
         21   -1    0    0  501  502 -0.00000000000E+00 -0.00000000000E+00 -0.84931928913E+03  0.84931928913E+03  0.00000000000E+00 0. -1.
         25    1    1    2    0    0  0.21352369287E+03  0.44996335389E+02 -0.53038548448E+03  0.58698449704E+03  0.12500000000E+03 0.  0.
         25    1    1    2    0    0 -0.21352369287E+03 -0.44996335389E+02 -0.23623428607E+03  0.34503431066E+03  0.12500000000E+03 0.  0.
</event>
<event>
 4    0  0.2202290E-002  0.2233411E+03  0.7546771E-02  0.1131416E+00
         21   -1    0    0  502  501  0.00000000000E+00  0.00000000000E+00  0.94373558961E+02  0.94373558961E+02  0.00000000000E+00 0.  1.
         21   -1    0    0  501  502 -0.00000000000E+00 -0.00000000000E+00 -0.52855115411E+03  0.52855115411E+03  0.00000000000E+00 0.  1.
         25    1    1    2    0    0 -0.15491219439E+02  0.18384061490E+03 -0.23772185922E+03  0.32584356971E+03  0.12500000000E+03 0.  0.
         25    1    1    2    0    0  0.15491219439E+02 -0.18384061490E+03 -0.19645573593E+03  0.29708114337E+03  0.12500000000E+03 0.  0.
</event>
<event>
 4    0  0.2202290E-002  0.2484342E+03  0.7546771E-02  0.1114298E+00
         21   -1    0    0  502  501  0.00000000000E+00  0.00000000000E+00  0.35304615252E+02  0.35304615252E+02  0.00000000000E+00 0.  1.
         21   -1    0    0  501  502 -0.00000000000E+00 -0.00000000000E+00 -0.17482004939E+04  0.17482004939E+04  0.00000000000E+00 0.  1.
         25    1    1    2    0    0  0.13604248107E+03 -0.10186978298E+02 -0.14515161718E+04  0.14632619479E+04  0.12500000000E+03 0.  0.
         25    1    1    2    0    0 -0.13604248107E+03  0.10186978298E+02 -0.26137970691E+03  0.32024316132E+03  0.12500000000E+03 0.  0.
</event>
<event>
 4    0  0.2202290E-002  0.2941987E+03  0.7546771E-02  0.1088177E+00
         21   -1    0    0  502  501  0.00000000000E+00  0.00000000000E+00  0.41489085291E+03  0.41489085291E+03  0.00000000000E+00 0. -1.
         21   -1    0    0  501  502 -0.00000000000E+00 -0.00000000000E+00 -0.20861602132E+03  0.20861602132E+03  0.00000000000E+00 0. -1.
         25    1    1    2    0    0  0.19623852912E+03 -0.14438401621E+03  0.21712740702E+03  0.34946475549E+03  0.12500000000E+03 0.  0.
         25    1    1    2    0    0 -0.19623852912E+03  0.14438401621E+03 -0.10852575427E+02  0.27404211874E+03  0.12500000000E+03 0.  0.
</event>
<event>
 4    0  0.2202290E-002  0.1566854E+03  0.7546771E-02  0.1192491E+00
         21   -1    0    0  502  501  0.00000000000E+00  0.00000000000E+00  0.13123610415E+03  0.13123610415E+03  0.00000000000E+00 0.  1.
         21   -1    0    0  501  502 -0.00000000000E+00 -0.00000000000E+00 -0.18706982803E+03  0.18706982803E+03  0.00000000000E+00 0.  1.
         25    1    1    2    0    0  0.24998936047E+02 -0.61750923929E+02  0.40124582743E+02  0.14721788461E+03  0.12500000000E+03 0.  0.
         25    1    1    2    0    0 -0.24998936047E+02  0.61750923929E+02 -0.95958306620E+02  0.17108804756E+03  0.12500000000E+03 0.  0.
</event>
<event>
 4    0  0.2202290E-002  0.1955384E+03  0.7546771E-02  0.1153559E+00
         21   -1    0    0  502  501  0.00000000000E+00  0.00000000000E+00  0.38180763425E+03  0.38180763425E+03  0.00000000000E+00 0.  1.
         21   -1    0    0  501  502 -0.00000000000E+00 -0.00000000000E+00 -0.10014277482E+03  0.10014277482E+03  0.00000000000E+00 0.  1.
         25    1    1    2    0    0 -0.11251606675E+03 -0.95847765978E+02  0.10677766583E+03  0.22107267909E+03  0.12500000000E+03 0.  0.
         25    1    1    2    0    0  0.11251606675E+03  0.95847765978E+02  0.17488719360E+03  0.26087772999E+03  0.12500000000E+03 0.  0.
</event>
<event>
 4    0  0.2202290E-002  0.2276086E+03  0.7546771E-02  0.1128334E+00
         21   -1    0    0  502  501  0.00000000000E+00  0.00000000000E+00  0.63568469890E+03  0.63568469890E+03  0.00000000000E+00 0. -1.
         21   -1    0    0  501  502 -0.00000000000E+00 -0.00000000000E+00 -0.81495893662E+02  0.81495893662E+02  0.00000000000E+00 0. -1.
         25    1    1    2    0    0  0.10161923752E+03  0.71025418797E+01  0.53017067651E+03  0.55415057679E+03  0.12500000000E+03 0.  0.
         25    1    1    2    0    0 -0.10161923752E+03 -0.71025418797E+01  0.24018128736E+02  0.16303001577E+03  0.12500000000E+03 0.  0.
</event>
<event>
 4    0  0.2202290E-002  0.2015307E+03  0.7546771E-02  0.1148454E+00
         21   -1    0    0  502  501  0.00000000000E+00  0.00000000000E+00  0.17836973920E+03  0.17836973920E+03  0.00000000000E+00 0.  1.
         21   -1    0    0  501  502 -0.00000000000E+00 -0.00000000000E+00 -0.22769912548E+03  0.22769912548E+03  0.00000000000E+00 0.  1.
         25    1    1    2    0    0  0.15471766480E+03 -0.23336061044E+02 -0.19687073995E+01  0.20027731613E+03  0.12500000000E+03 0.  0.
         25    1    1    2    0    0 -0.15471766480E+03  0.23336061044E+02 -0.47360678881E+02  0.20579154854E+03  0.12500000000E+03 0.  0.
</event>
<event>
 4    0  0.2202290E-002  0.2903444E+03  0.7546771E-02  0.1090169E+00
         21   -1    0    0  502  501  0.00000000000E+00  0.00000000000E+00  0.14601336486E+03  0.14601336486E+03  0.00000000000E+00 0. -1.
         21   -1    0    0  501  502 -0.00000000000E+00 -0.00000000000E+00 -0.57734362245E+03  0.57734362245E+03  0.00000000000E+00 0. -1.
         25    1    1    2    0    0  0.59605154608E+02 -0.36836013184E+02  0.98893150787E+02  0.17411065905E+03  0.12500000000E+03 0.  0.
         25    1    1    2    0    0 -0.59605154608E+02  0.36836013184E+02 -0.53022340838E+03  0.54924632827E+03  0.12500000000E+03 0.  0.
</event>
<event>
 4    0  0.2202290E-002  0.2412048E+03  0.7546771E-02  0.1118993E+00
         21   -1    0    0  502  501  0.00000000000E+00  0.00000000000E+00  0.67566184807E+03  0.67566184807E+03  0.00000000000E+00 0. -1.
         21   -1    0    0  501  502 -0.00000000000E+00 -0.00000000000E+00 -0.86107778039E+02  0.86107778039E+02  0.00000000000E+00 0. -1.
         25    1    1    2    0    0 -0.14948410863E+03 -0.19767002711E+02  0.51707896716E+03  0.55293027717E+03  0.12500000000E+03 0.  0.
         25    1    1    2    0    0  0.14948410863E+03  0.19767002711E+02  0.72475102871E+02  0.20883934894E+03  0.12500000000E+03 0.  0.
</event>
<event>
 4    0  0.2202290E-002  0.1938207E+03  0.7546771E-02  0.1155060E+00
         21   -1    0    0  502  501  0.00000000000E+00  0.00000000000E+00  0.15288027351E+03  0.15288027351E+03  0.00000000000E+00 0. -1.
         21   -1    0    0  501  502 -0.00000000000E+00 -0.00000000000E+00 -0.24572475068E+03  0.24572475068E+03  0.00000000000E+00 0. -1.
         25    1    1    2    0    0  0.59827651931E+02  0.13151653503E+03 -0.79987762719E+02  0.20712071144E+03  0.12500000000E+03 0.  0.
         25    1    1    2    0    0 -0.59827651931E+02 -0.13151653503E+03 -0.12856714444E+02  0.19148431275E+03  0.12500000000E+03 0.  0.
</event>
<event>
 4    0  0.2202290E-002  0.6247885E+03  0.7546771E-02  0.9855272E-01
         21   -1    0    0  502  501  0.00000000000E+00  0.00000000000E+00  0.25170426338E+03  0.25170426338E+03  0.00000000000E+00 0.  1.
         21   -1    0    0  501  502 -0.00000000000E+00 -0.00000000000E+00 -0.15508705012E+04  0.15508705012E+04  0.00000000000E+00 0.  1.
         25    1    1    2    0    0 -0.35995746088E+02  0.33764156066E+03 -0.13843459836E+04  0.14308516064E+04  0.12500000000E+03 0.  0.
         25    1    1    2    0    0  0.35995746088E+02 -0.33764156066E+03  0.85179745804E+02  0.37172315817E+03  0.12500000000E+03 0.  0.
</event>
<event>
 4    0  0.2202290E-002  0.2003052E+03  0.7546771E-02  0.1149482E+00
         21   -1    0    0  502  501  0.00000000000E+00  0.00000000000E+00  0.19521591166E+03  0.19521591166E+03  0.00000000000E+00 0. -1.
         21   -1    0    0  501  502 -0.00000000000E+00 -0.00000000000E+00 -0.20552715611E+03  0.20552715611E+03  0.00000000000E+00 0. -1.
         25    1    1    2    0    0  0.46581431263E+02 -0.14270264208E+03  0.39168163892E+02  0.19923106900E+03  0.12500000000E+03 0.  0.
         25    1    1    2    0    0 -0.46581431263E+02  0.14270264208E+03 -0.49479408343E+02  0.20151199876E+03  0.12500000000E+03 0.  0.
</event>
<event>
 4    0  0.2202290E-002  0.3238474E+03  0.7546771E-02  0.1073892E+00
         21   -1    0    0  502  501  0.00000000000E+00  0.00000000000E+00  0.83576662188E+02  0.83576662188E+02  0.00000000000E+00 0.  1.
         21   -1    0    0  501  502 -0.00000000000E+00 -0.00000000000E+00 -0.12548613110E+04  0.12548613110E+04  0.00000000000E+00 0.  1.
         25    1    1    2    0    0  0.19198349300E+03 -0.10598976900E+03 -0.16639638057E+03  0.30233135494E+03  0.12500000000E+03 0.  0.
         25    1    1    2    0    0 -0.19198349300E+03  0.10598976900E+03 -0.10048882683E+04  0.10361066183E+04  0.12500000000E+03 0.  0.
</event>
<event>
 4    0  0.2202290E-002  0.1985974E+03  0.7546771E-02  0.1150928E+00
         21   -1    0    0  502  501  0.00000000000E+00  0.00000000000E+00  0.19832166027E+03  0.19832166027E+03  0.00000000000E+00 0.  1.
         21   -1    0    0  501  502 -0.00000000000E+00 -0.00000000000E+00 -0.19887346154E+03  0.19887346154E+03  0.00000000000E+00 0.  1.
         25    1    1    2    0    0 -0.34424726936E+02  0.13296359889E+03  0.70091308912E+02  0.19849980362E+03  0.12500000000E+03 0.  0.
         25    1    1    2    0    0  0.34424726936E+02 -0.13296359889E+03 -0.70643110177E+02  0.19869531819E+03  0.12500000000E+03 0.  0.
</event>
<event>
 4    0  0.2202290E-002  0.2634861E+03  0.7546771E-02  0.1105067E+00
         21   -1    0    0  502  501  0.00000000000E+00  0.00000000000E+00  0.19462304761E+03  0.19462304761E+03  0.00000000000E+00 0. -1.
         21   -1    0    0  501  502 -0.00000000000E+00 -0.00000000000E+00 -0.35671490002E+03  0.35671490002E+03  0.00000000000E+00 0. -1.
         25    1    1    2    0    0  0.22768300148E+03 -0.15280596897E+02 -0.12452328132E+03  0.28845119760E+03  0.12500000000E+03 0.  0.
         25    1    1    2    0    0 -0.22768300148E+03  0.15280596897E+02 -0.37568571095E+02  0.26288675003E+03  0.12500000000E+03 0.  0.
</event>
<event>
 4    0  0.2202290E-002  0.1868100E+03  0.7546771E-02  0.1161370E+00
         21   -1    0    0  502  501  0.00000000000E+00  0.00000000000E+00  0.31558122837E+02  0.31558122837E+02  0.00000000000E+00 0. -1.
         21   -1    0    0  501  502 -0.00000000000E+00 -0.00000000000E+00 -0.11058318790E+04  0.11058318790E+04  0.00000000000E+00 0. -1.
         25    1    1    2    0    0  0.11990720170E+03 -0.25988513273E+02 -0.73489174847E+03  0.75547602332E+03  0.12500000000E+03 0.  0.
         25    1    1    2    0    0 -0.11990720170E+03  0.25988513273E+02 -0.33938200771E+03  0.38191397854E+03  0.12500000000E+03 0.  0.
</event>
<event>
 4    0  0.2202290E-002  0.1984240E+03  0.7546771E-02  0.1151076E+00
         21   -1    0    0  502  501  0.00000000000E+00  0.00000000000E+00  0.22844035782E+03  0.22844035782E+03  0.00000000000E+00 0.  1.
         21   -1    0    0  501  502 -0.00000000000E+00 -0.00000000000E+00 -0.17235165125E+03  0.17235165125E+03  0.00000000000E+00 0.  1.
         25    1    1    2    0    0 -0.16789970403E+02 -0.29333916587E+02 -0.12379844779E+03  0.17914641343E+03  0.12500000000E+03 0.  0.
         25    1    1    2    0    0  0.16789970403E+02  0.29333916587E+02  0.17988715436E+03  0.22164559565E+03  0.12500000000E+03 0.  0.
</event>
<event>
 4    0  0.2202290E-002  0.2357657E+03  0.7546771E-02  0.1122646E+00
         21   -1    0    0  502  501  0.00000000000E+00  0.00000000000E+00  0.32008245153E+03  0.32008245153E+03  0.00000000000E+00 0. -1.
         21   -1    0    0  501  502 -0.00000000000E+00 -0.00000000000E+00 -0.17365987444E+03  0.17365987444E+03  0.00000000000E+00 0. -1.
         25    1    1    2    0    0  0.12168252859E+03  0.21018694368E+02  0.23781670460E+03  0.29568599605E+03  0.12500000000E+03 0.  0.
         25    1    1    2    0    0 -0.12168252859E+03 -0.21018694368E+02 -0.91394127513E+02  0.19805632992E+03  0.12500000000E+03 0.  0.
</event>
<event>
 4    0  0.2202290E-002  0.2593670E+03  0.7546771E-02  0.1107524E+00
         21   -1    0    0  502  501  0.00000000000E+00  0.00000000000E+00  0.20171105443E+03  0.20171105443E+03  0.00000000000E+00 0.  1.
         21   -1    0    0  501  502 -0.00000000000E+00 -0.00000000000E+00 -0.33350311128E+03  0.33350311128E+03  0.00000000000E+00 0.  1.
         25    1    1    2    0    0  0.15012428006E+03  0.27846958185E+02 -0.23956931046E+03  0.31037269058E+03  0.12500000000E+03 0.  0.
         25    1    1    2    0    0 -0.15012428006E+03 -0.27846958185E+02  0.10777725361E+03  0.22484147513E+03  0.12500000000E+03 0.  0.
</event>
<event>
 4    0  0.2202290E-002  0.2522191E+03  0.7546771E-02  0.1111910E+00
         21   -1    0    0  502  501  0.00000000000E+00  0.00000000000E+00  0.65523391826E+03  0.65523391826E+03  0.00000000000E+00 0. -1.
         21   -1    0    0  501  502 -0.00000000000E+00 -0.00000000000E+00 -0.97086651788E+02  0.97086651788E+02  0.00000000000E+00 0. -1.
         25    1    1    2    0    0 -0.15089344257E+03  0.12952724548E+03  0.14203221393E+03  0.27448914027E+03  0.12500000000E+03 0.  0.
         25    1    1    2    0    0  0.15089344257E+03 -0.12952724548E+03  0.41611505254E+03  0.47783142978E+03  0.12500000000E+03 0.  0.
</event>
<event>
 4    0  0.2202290E-002  0.1984339E+03  0.7546771E-02  0.1151067E+00
         21   -1    0    0  502  501  0.00000000000E+00  0.00000000000E+00  0.11480431208E+04  0.11480431208E+04  0.00000000000E+00 0.  1.
         21   -1    0    0  501  502 -0.00000000000E+00 -0.00000000000E+00 -0.34298361324E+02  0.34298361324E+02  0.00000000000E+00 0.  1.
         25    1    1    2    0    0  0.46973643203E+02  0.44562555895E+02  0.14022695339E+03  0.19869812027E+03  0.12500000000E+03 0.  0.
         25    1    1    2    0    0 -0.46973643203E+02 -0.44562555895E+02  0.97351780605E+03  0.98364336182E+03  0.12500000000E+03 0.  0.
</event>
<event>
 4    0  0.2202290E-002  0.2191909E+03  0.7546771E-02  0.1134488E+00
         21   -1    0    0  502  501  0.00000000000E+00  0.00000000000E+00  0.18692703004E+03  0.18692703004E+03  0.00000000000E+00 0.  1.
         21   -1    0    0  501  502 -0.00000000000E+00 -0.00000000000E+00 -0.25702350924E+03  0.25702350924E+03  0.00000000000E+00 0.  1.
         25    1    1    2    0    0  0.11245174903E+03 -0.82292808445E+02 -0.15052365095E+03  0.24020797589E+03  0.12500000000E+03 0.  0.
         25    1    1    2    0    0 -0.11245174903E+03  0.82292808445E+02  0.80427171752E+02  0.20374256339E+03  0.12500000000E+03 0.  0.
</event>
<event>
 4    0  0.2202290E-002  0.1820794E+03  0.7546771E-02  0.1165806E+00
         21   -1    0    0  502  501  0.00000000000E+00  0.00000000000E+00  0.11793121473E+04  0.11793121473E+04  0.00000000000E+00 0. -1.
         21   -1    0    0  501  502 -0.00000000000E+00 -0.00000000000E+00 -0.28112064513E+02  0.28112064513E+02  0.00000000000E+00 0. -1.
         25    1    1    2    0    0 -0.68423505867E+02  0.11236952104E+03  0.52650891188E+03  0.55690692194E+03  0.12500000000E+03 0.  0.
         25    1    1    2    0    0  0.68423505867E+02 -0.11236952104E+03  0.62469117086E+03  0.65051728983E+03  0.12500000000E+03 0.  0.
</event>
<event>
 4    0  0.2202290E-002  0.1808990E+03  0.7546771E-02  0.1166936E+00
         21   -1    0    0  502  501  0.00000000000E+00  0.00000000000E+00  0.21714344546E+03  0.21714344546E+03  0.00000000000E+00 0. -1.
         21   -1    0    0  501  502 -0.00000000000E+00 -0.00000000000E+00 -0.15070423593E+03  0.15070423593E+03  0.00000000000E+00 0. -1.
         25    1    1    2    0    0  0.56757858731E+02  0.28355101861E+02 -0.83033802115E+02  0.16292660502E+03  0.12500000000E+03 0.  0.
         25    1    1    2    0    0 -0.56757858731E+02 -0.28355101861E+02  0.14947301165E+03  0.20492107637E+03  0.12500000000E+03 0.  0.
</event>
<event>
 4    0  0.2202290E-002  0.2229724E+03  0.7546771E-02  0.1131686E+00
         21   -1    0    0  502  501  0.00000000000E+00  0.00000000000E+00  0.43337086112E+02  0.43337086112E+02  0.00000000000E+00 0. -1.
         21   -1    0    0  501  502 -0.00000000000E+00 -0.00000000000E+00 -0.11472085535E+04  0.11472085535E+04  0.00000000000E+00 0. -1.
         25    1    1    2    0    0 -0.28209164046E+02  0.11155831195E+03 -0.93743622438E+03  0.95270808157E+03  0.12500000000E+03 0.  0.
         25    1    1    2    0    0  0.28209164046E+02 -0.11155831195E+03 -0.16643524301E+03  0.23783755805E+03  0.12500000000E+03 0.  0.
</event>
<event>
 4    0  0.2202290E-002  0.1756071E+03  0.7546771E-02  0.1172123E+00
         21   -1    0    0  502  501  0.00000000000E+00  0.00000000000E+00  0.73366715574E+02  0.73366715574E+02  0.00000000000E+00 0.  1.
         21   -1    0    0  501  502 -0.00000000000E+00 -0.00000000000E+00 -0.42032504295E+03  0.42032504295E+03  0.00000000000E+00 0.  1.
         25    1    1    2    0    0 -0.48637769954E+02 -0.31532527744E+02 -0.32651623981E+03  0.35439778193E+03  0.12500000000E+03 0.  0.
         25    1    1    2    0    0  0.48637769954E+02  0.31532527744E+02 -0.20442087559E+02  0.13929397660E+03  0.12500000000E+03 0.  0.
</event>
<event>
 4    0  0.2202290E-002  0.1993657E+03  0.7546771E-02  0.1150275E+00
         21   -1    0    0  502  501  0.00000000000E+00  0.00000000000E+00  0.35154674620E+03  0.35154674620E+03  0.00000000000E+00 0.  1.
         21   -1    0    0  501  502 -0.00000000000E+00 -0.00000000000E+00 -0.11306231989E+03  0.11306231989E+03  0.00000000000E+00 0.  1.
         25    1    1    2    0    0  0.10221933001E+03 -0.11167124161E+03  0.15964744917E+03  0.25304459224E+03  0.12500000000E+03 0.  0.
         25    1    1    2    0    0 -0.10221933001E+03  0.11167124161E+03  0.78836977142E+02  0.21156447385E+03  0.12500000000E+03 0.  0.
</event>
<event>
 4    0  0.2202290E-002  0.1914298E+03  0.7546771E-02  0.1157178E+00
         21   -1    0    0  502  501  0.00000000000E+00  0.00000000000E+00  0.19202255764E+03  0.19202255764E+03  0.00000000000E+00 0.  1.
         21   -1    0    0  501  502 -0.00000000000E+00 -0.00000000000E+00 -0.19083895757E+03  0.19083895757E+03  0.00000000000E+00 0.  1.
         25    1    1    2    0    0 -0.11568163621E+03 -0.46103129547E+02 -0.73655744741E+02  0.19120122448E+03  0.12500000000E+03 0.  0.
         25    1    1    2    0    0  0.11568163621E+03  0.46103129547E+02  0.74839344813E+02  0.19166029073E+03  0.12500000000E+03 0.  0.
</event>
<event>
 4    0  0.2202290E-002  0.2995316E+03  0.7546771E-02  0.1085475E+00
         21   -1    0    0  502  501  0.00000000000E+00  0.00000000000E+00  0.40294180140E+03  0.40294180140E+03  0.00000000000E+00 0. -1.
         21   -1    0    0  501  502 -0.00000000000E+00 -0.00000000000E+00 -0.22266043921E+03  0.22266043921E+03  0.00000000000E+00 0. -1.
         25    1    1    2    0    0 -0.24899922148E+03 -0.84096380418E+02  0.16414164334E+03  0.33412616266E+03  0.12500000000E+03 0.  0.
         25    1    1    2    0    0  0.24899922148E+03  0.84096380418E+02  0.16139718859E+02  0.29147607796E+03  0.12500000000E+03 0.  0.
</event>
<event>
 4    0  0.2202290E-002  0.1973214E+03  0.7546771E-02  0.1152019E+00
         21   -1    0    0  502  501  0.00000000000E+00  0.00000000000E+00  0.21648503017E+03  0.21648503017E+03  0.00000000000E+00 0.  1.
         21   -1    0    0  501  502 -0.00000000000E+00 -0.00000000000E+00 -0.17985423916E+03  0.17985423916E+03  0.00000000000E+00 0.  1.
         25    1    1    2    0    0  0.88667479645E+02  0.88686775669E+02  0.10577292984E+03  0.20625270619E+03  0.12500000000E+03 0.  0.
         25    1    1    2    0    0 -0.88667479645E+02 -0.88686775669E+02 -0.69142138818E+02  0.19008656314E+03  0.12500000000E+03 0.  0.
</event>
<event>
 4    0  0.2202290E-002  0.3002978E+03  0.7546771E-02  0.1085092E+00
         21   -1    0    0  502  501  0.00000000000E+00  0.00000000000E+00  0.14267071315E+04  0.14267071315E+04  0.00000000000E+00 0. -1.
         21   -1    0    0  501  502 -0.00000000000E+00 -0.00000000000E+00 -0.63207605496E+02  0.63207605496E+02  0.00000000000E+00 0. -1.
         25    1    1    2    0    0 -0.40972165784E+02  0.20124654582E+03  0.11281076612E+04  0.11534430137E+04  0.12500000000E+03 0.  0.
         25    1    1    2    0    0  0.40972165784E+02 -0.20124654582E+03  0.23539186482E+03  0.33647172332E+03  0.12500000000E+03 0.  0.
</event>
<event>
 4    0  0.2202290E-002  0.2377454E+03  0.7546771E-02  0.1121304E+00
         21   -1    0    0  502  501  0.00000000000E+00  0.00000000000E+00  0.49079554577E+03  0.49079554577E+03  0.00000000000E+00 0.  1.
         21   -1    0    0  501  502 -0.00000000000E+00 -0.00000000000E+00 -0.11516586687E+03  0.11516586687E+03  0.00000000000E+00 0.  1.
         25    1    1    2    0    0  0.87868016571E+02 -0.12541407177E+03  0.19477371759E+02  0.19862992158E+03  0.12500000000E+03 0.  0.
         25    1    1    2    0    0 -0.87868016571E+02  0.12541407177E+03  0.35615230714E+03  0.40733149106E+03  0.12500000000E+03 0.  0.
</event>
<event>
 4    0  0.2202290E-002  0.3039513E+03  0.7546771E-02  0.1083282E+00
         21   -1    0    0  502  501  0.00000000000E+00  0.00000000000E+00  0.14363872793E+03  0.14363872793E+03  0.00000000000E+00 0.  1.
         21   -1    0    0  501  502 -0.00000000000E+00 -0.00000000000E+00 -0.64318567259E+03  0.64318567259E+03  0.00000000000E+00 0.  1.
         25    1    1    2    0    0  0.11988706410E+03  0.23205548879E+03 -0.36937592807E+03  0.46934660354E+03  0.12500000000E+03 0.  0.
         25    1    1    2    0    0 -0.11988706410E+03 -0.23205548879E+03 -0.13017101659E+03  0.31747779698E+03  0.12500000000E+03 0.  0.
</event>
<event>
 4    0  0.2202290E-002  0.1591051E+03  0.7546771E-02  0.1189711E+00
         21   -1    0    0  502  501  0.00000000000E+00  0.00000000000E+00  0.52308953667E+03  0.52308953667E+03  0.00000000000E+00 0. -1.
         21   -1    0    0  501  502 -0.00000000000E+00 -0.00000000000E+00 -0.48394096151E+02  0.48394096151E+02  0.00000000000E+00 0. -1.
         25    1    1    2    0    0 -0.48212311200E+02  0.25913977933E+02  0.90415949635E+02  0.16369485377E+03  0.12500000000E+03 0.  0.
         25    1    1    2    0    0  0.48212311200E+02 -0.25913977933E+02  0.38427949088E+03  0.40778877905E+03  0.12500000000E+03 0.  0.
</event>
<event>
 4    0  0.2202290E-002  0.2244067E+03  0.7546771E-02  0.1130640E+00
         21   -1    0    0  502  501  0.00000000000E+00  0.00000000000E+00  0.52661363945E+02  0.52661363945E+02  0.00000000000E+00 0. -1.
         21   -1    0    0  501  502 -0.00000000000E+00 -0.00000000000E+00 -0.95626816190E+03  0.95626816190E+03  0.00000000000E+00 0. -1.
         25    1    1    2    0    0 -0.50769924281E+02 -0.17879486660E+03 -0.42096439630E+03  0.47684506131E+03  0.12500000000E+03 0.  0.
         25    1    1    2    0    0  0.50769924281E+02  0.17879486660E+03 -0.48264240165E+03  0.53208446454E+03  0.12500000000E+03 0.  0.
</event>
<event>
 4    0  0.2202290E-002  0.2071010E+03  0.7546771E-02  0.1143882E+00
         21   -1    0    0  502  501  0.00000000000E+00  0.00000000000E+00  0.25963479799E+03  0.25963479799E+03  0.00000000000E+00 0. -1.
         21   -1    0    0  501  502 -0.00000000000E+00 -0.00000000000E+00 -0.16519670211E+03  0.16519670211E+03  0.00000000000E+00 0. -1.
         25    1    1    2    0    0 -0.75223116896E+02  0.14392233851E+03  0.77880283770E+02  0.21923160228E+03  0.12500000000E+03 0.  0.
         25    1    1    2    0    0  0.75223116896E+02 -0.14392233851E+03  0.16557812109E+02  0.20559989781E+03  0.12500000000E+03 0.  0.
</event>
<event>
 4    0  0.2202290E-002  0.1810003E+03  0.7546771E-02  0.1166838E+00
         21   -1    0    0  502  501  0.00000000000E+00  0.00000000000E+00  0.65917077635E+02  0.65917077635E+02  0.00000000000E+00 0.  1.
         21   -1    0    0  501  502 -0.00000000000E+00 -0.00000000000E+00 -0.49700459581E+03  0.49700459581E+03  0.00000000000E+00 0.  1.
         25    1    1    2    0    0  0.26315168213E+02  0.12533348364E+03 -0.17338206858E+03  0.24917325680E+03  0.12500000000E+03 0.  0.
         25    1    1    2    0    0 -0.26315168213E+02 -0.12533348364E+03 -0.25770544959E+03  0.31374841665E+03  0.12500000000E+03 0.  0.
</event>
<event>
 4    0  0.2202290E-002  0.1749724E+03  0.7546771E-02  0.1172759E+00
         21   -1    0    0  502  501  0.00000000000E+00  0.00000000000E+00  0.36908882165E+03  0.36908882165E+03  0.00000000000E+00 0.  1.
         21   -1    0    0  501  502 -0.00000000000E+00 -0.00000000000E+00 -0.82948427036E+02  0.82948427036E+02  0.00000000000E+00 0.  1.
         25    1    1    2    0    0 -0.43943897989E+02  0.10436565314E+03  0.82937273228E+02  0.18795437483E+03  0.12500000000E+03 0.  0.
         25    1    1    2    0    0  0.43943897989E+02 -0.10436565314E+03  0.20320312139E+03  0.26408287386E+03  0.12500000000E+03 0.  0.
</event>
<event>
 4    0  0.2202290E-002  0.2888996E+03  0.7546771E-02  0.1090925E+00
         21   -1    0    0  502  501  0.00000000000E+00  0.00000000000E+00  0.96675423209E+03  0.96675423209E+03  0.00000000000E+00 0.  1.
         21   -1    0    0  501  502 -0.00000000000E+00 -0.00000000000E+00 -0.86333163214E+02  0.86333163214E+02  0.00000000000E+00 0.  1.
         25    1    1    2    0    0 -0.22535555536E+03  0.68598248223E+02  0.23768950774E+03  0.35722842563E+03  0.12500000000E+03 0.  0.
         25    1    1    2    0    0  0.22535555536E+03 -0.68598248223E+02  0.64273156114E+03  0.69585896967E+03  0.12500000000E+03 0.  0.
</event>
<event>
 4    0  0.2202290E-002  0.2002536E+03  0.7546771E-02  0.1149525E+00
         21   -1    0    0  502  501  0.00000000000E+00  0.00000000000E+00  0.10212248707E+03  0.10212248707E+03  0.00000000000E+00 0. -1.
         21   -1    0    0  501  502 -0.00000000000E+00 -0.00000000000E+00 -0.39268037859E+03  0.39268037859E+03  0.00000000000E+00 0. -1.
         25    1    1    2    0    0 -0.15036169302E+03 -0.41949021294E+02 -0.13243168271E+03  0.23985726944E+03  0.12500000000E+03 0.  0.
         25    1    1    2    0    0  0.15036169302E+03  0.41949021294E+02 -0.15812620881E+03  0.25494559622E+03  0.12500000000E+03 0.  0.
</event>
<event>
 4    0  0.2202290E-002  0.1677562E+03  0.7546771E-02  0.1180208E+00
         21   -1    0    0  502  501  0.00000000000E+00  0.00000000000E+00  0.12032971541E+03  0.12032971541E+03  0.00000000000E+00 0. -1.
         21   -1    0    0  501  502 -0.00000000000E+00 -0.00000000000E+00 -0.23387520096E+03  0.23387520096E+03  0.00000000000E+00 0. -1.
         25    1    1    2    0    0 -0.84405030505E+02  0.53698516697E+02 -0.10965752277E+03  0.19405543581E+03  0.12500000000E+03 0.  0.
         25    1    1    2    0    0  0.84405030505E+02 -0.53698516697E+02 -0.38879627849E+01  0.16014948056E+03  0.12500000000E+03 0.  0.
</event>
<event>
 4    0  0.2202290E-002  0.2357446E+03  0.7546771E-02  0.1122661E+00
         21   -1    0    0  502  501  0.00000000000E+00  0.00000000000E+00  0.14020894398E+03  0.14020894398E+03  0.00000000000E+00 0. -1.
         21   -1    0    0  501  502 -0.00000000000E+00 -0.00000000000E+00 -0.39637625747E+03  0.39637625747E+03  0.00000000000E+00 0. -1.
         25    1    1    2    0    0  0.17306520661E+03 -0.80852505565E+02 -0.61123231974E+02  0.23632550197E+03  0.12500000000E+03 0.  0.
         25    1    1    2    0    0 -0.17306520661E+03  0.80852505565E+02 -0.19504408152E+03  0.30025969948E+03  0.12500000000E+03 0.  0.
</event>
<event>
 4    0  0.2202290E-002  0.2284602E+03  0.7546771E-02  0.1127728E+00
         21   -1    0    0  502  501  0.00000000000E+00  0.00000000000E+00  0.11585774617E+03  0.11585774617E+03  0.00000000000E+00 0.  1.
         21   -1    0    0  501  502 -0.00000000000E+00 -0.00000000000E+00 -0.45050136195E+03  0.45050136195E+03  0.00000000000E+00 0.  1.
         25    1    1    2    0    0 -0.10067596396E+03  0.15435955237E+03 -0.10403918938E+03  0.24578786393E+03  0.12500000000E+03 0.  0.
         25    1    1    2    0    0  0.10067596396E+03 -0.15435955237E+03 -0.23060442640E+03  0.32057124419E+03  0.12500000000E+03 0.  0.
</event>
<event>
 4    0  0.2202290E-002  0.2130598E+03  0.7546771E-02  0.1139166E+00
         21   -1    0    0  502  501  0.00000000000E+00  0.00000000000E+00  0.87796724581E+03  0.87796724581E+03  0.00000000000E+00 0.  1.
         21   -1    0    0  501  502 -0.00000000000E+00 -0.00000000000E+00 -0.51704053888E+02  0.51704053888E+02  0.00000000000E+00 0.  1.
         25    1    1    2    0    0 -0.17034178009E+03  0.26075682170E+02  0.39446517492E+03  0.44824551026E+03  0.12500000000E+03 0.  0.
         25    1    1    2    0    0  0.17034178009E+03 -0.26075682170E+02  0.43179801700E+03  0.48142578944E+03  0.12500000000E+03 0.  0.
</event>
<event>
 4    0  0.2202290E-002  0.1718041E+03  0.7546771E-02  0.1175979E+00
         21   -1    0    0  502  501  0.00000000000E+00  0.00000000000E+00  0.41047436081E+02  0.41047436081E+02  0.00000000000E+00 0.  1.
         21   -1    0    0  501  502 -0.00000000000E+00 -0.00000000000E+00 -0.71908664731E+03  0.71908664731E+03  0.00000000000E+00 0.  1.
         25    1    1    2    0    0 -0.10032438120E+03 -0.45193373231E+02 -0.24557519978E+03  0.29671467978E+03  0.12500000000E+03 0.  0.
         25    1    1    2    0    0  0.10032438120E+03  0.45193373231E+02 -0.43246401145E+03  0.46341940361E+03  0.12500000000E+03 0.  0.
</event>
<event>
 4    0  0.2202290E-002  0.1809999E+03  0.7546771E-02  0.1166839E+00
         21   -1    0    0  502  501  0.00000000000E+00  0.00000000000E+00  0.76404168109E+03  0.76404168109E+03  0.00000000000E+00 0. -1.
         21   -1    0    0  501  502 -0.00000000000E+00 -0.00000000000E+00 -0.42878498792E+02  0.42878498792E+02  0.00000000000E+00 0. -1.
         25    1    1    2    0    0 -0.74963971712E+02 -0.26841989025E+02  0.12897489581E+03  0.19646784261E+03  0.12500000000E+03 0.  0.
         25    1    1    2    0    0  0.74963971712E+02  0.26841989025E+02  0.59218828649E+03  0.61045233727E+03  0.12500000000E+03 0.  0.
</event>
<event>
 4    0  0.2202290E-002  0.2459171E+03  0.7546771E-02  0.1115913E+00
         21   -1    0    0  502  501  0.00000000000E+00  0.00000000000E+00  0.68405072880E+03  0.68405072880E+03  0.00000000000E+00 0.  1.
         21   -1    0    0  501  502 -0.00000000000E+00 -0.00000000000E+00 -0.88407503958E+02  0.88407503958E+02  0.00000000000E+00 0.  1.
         25    1    1    2    0    0 -0.82090244799E+02 -0.19510959190E+03  0.28744441414E+03  0.37822724963E+03  0.12500000000E+03 0.  0.
         25    1    1    2    0    0  0.82090244799E+02  0.19510959190E+03  0.30819881070E+03  0.39423098313E+03  0.12500000000E+03 0.  0.
</event>
<event>
 4    0  0.2202290E-002  0.2004889E+03  0.7546771E-02  0.1149327E+00
         21   -1    0    0  502  501  0.00000000000E+00  0.00000000000E+00  0.68253719799E+02  0.68253719799E+02  0.00000000000E+00 0. -1.
         21   -1    0    0  501  502 -0.00000000000E+00 -0.00000000000E+00 -0.58891737556E+03  0.58891737556E+03  0.00000000000E+00 0. -1.
         25    1    1    2    0    0 -0.12389232594E+02  0.42180160440E+02 -0.50692355702E+03  0.52395529550E+03  0.12500000000E+03 0.  0.
         25    1    1    2    0    0  0.12389232594E+02 -0.42180160440E+02 -0.13740098741E+02  0.13321579986E+03  0.12500000000E+03 0.  0.
</event>
<event>
 4    0  0.2202290E-002  0.2355099E+03  0.7546771E-02  0.1122821E+00
         21   -1    0    0  502  501  0.00000000000E+00  0.00000000000E+00  0.23497962887E+02  0.23497962887E+02  0.00000000000E+00 0. -1.
         21   -1    0    0  501  502 -0.00000000000E+00 -0.00000000000E+00 -0.23604134093E+04  0.23604134093E+04  0.00000000000E+00 0. -1.
         25    1    1    2    0    0 -0.11606593327E+03  0.33990337414E+02 -0.36481042030E+03  0.40415131654E+03  0.12500000000E+03 0.  0.
         25    1    1    2    0    0  0.11606593327E+03 -0.33990337414E+02 -0.19721050261E+04  0.19797600556E+04  0.12500000000E+03 0.  0.
</event>
<event>
 4    0  0.2202290E-002  0.2183474E+03  0.7546771E-02  0.1135121E+00
         21   -1    0    0  502  501  0.00000000000E+00  0.00000000000E+00  0.13259578485E+03  0.13259578485E+03  0.00000000000E+00 0.  1.
         21   -1    0    0  501  502 -0.00000000000E+00 -0.00000000000E+00 -0.35955595137E+03  0.35955595137E+03  0.00000000000E+00 0.  1.
         25    1    1    2    0    0  0.10835399908E+03 -0.49832389535E+02 -0.26395252949E+03  0.31546757993E+03  0.12500000000E+03 0.  0.
         25    1    1    2    0    0 -0.10835399908E+03  0.49832389535E+02  0.36992362968E+02  0.17668415628E+03  0.12500000000E+03 0.  0.
</event>
<event>
 4    0  0.2202290E-002  0.1928318E+03  0.7546771E-02  0.1155932E+00
         21   -1    0    0  502  501  0.00000000000E+00  0.00000000000E+00  0.48336556673E+02  0.48336556673E+02  0.00000000000E+00 0.  1.
         21   -1    0    0  501  502 -0.00000000000E+00 -0.00000000000E+00 -0.76927509223E+03  0.76927509223E+03  0.00000000000E+00 0.  1.
         25    1    1    2    0    0 -0.32872307828E+02 -0.13574580432E+02 -0.66248175555E+03  0.67510883144E+03  0.12500000000E+03 0.  0.
         25    1    1    2    0    0  0.32872307828E+02  0.13574580432E+02 -0.58456780012E+02  0.14250281746E+03  0.12500000000E+03 0.  0.
</event>
<event>
 4    0  0.2202290E-002  0.2284134E+03  0.7546771E-02  0.1127761E+00
         21   -1    0    0  502  501  0.00000000000E+00  0.00000000000E+00  0.12318916283E+03  0.12318916283E+03  0.00000000000E+00 0.  1.
         21   -1    0    0  501  502 -0.00000000000E+00 -0.00000000000E+00 -0.42351694169E+03  0.42351694169E+03  0.00000000000E+00 0.  1.
         25    1    1    2    0    0  0.17469458104E+03  0.56631096125E+02 -0.21374280072E+03  0.30827952016E+03  0.12500000000E+03 0.  0.
         25    1    1    2    0    0 -0.17469458104E+03 -0.56631096125E+02 -0.86584978139E+02  0.23842658436E+03  0.12500000000E+03 0.  0.
</event>
<event>
 4    0  0.2202290E-002  0.1868660E+03  0.7546771E-02  0.1161319E+00
         21   -1    0    0  502  501  0.00000000000E+00  0.00000000000E+00  0.40808728164E+03  0.40808728164E+03  0.00000000000E+00 0. -1.
         21   -1    0    0  501  502 -0.00000000000E+00 -0.00000000000E+00 -0.85567229891E+02  0.85567229891E+02  0.00000000000E+00 0. -1.
         25    1    1    2    0    0  0.29511684050E+02  0.13130259925E+03  0.11583666675E+03  0.21715074356E+03  0.12500000000E+03 0.  0.
         25    1    1    2    0    0 -0.29511684050E+02 -0.13130259925E+03  0.20668338501E+03  0.27650376797E+03  0.12500000000E+03 0.  0.
</event>
<event>
 4    0  0.2202290E-002  0.1584051E+03  0.7546771E-02  0.1190509E+00
         21   -1    0    0  502  501  0.00000000000E+00  0.00000000000E+00  0.81075204156E+02  0.81075204156E+02  0.00000000000E+00 0. -1.
         21   -1    0    0  501  502 -0.00000000000E+00 -0.00000000000E+00 -0.30949278014E+03  0.30949278014E+03  0.00000000000E+00 0. -1.
         25    1    1    2    0    0  0.91421781696E+02  0.32983745400E+02 -0.11990122388E+03  0.19861312423E+03  0.12500000000E+03 0.  0.
         25    1    1    2    0    0 -0.91421781696E+02 -0.32983745400E+02 -0.10851635211E+03  0.19195486007E+03  0.12500000000E+03 0.  0.
</event>
<event>
 4    0  0.2202290E-002  0.3014984E+03  0.7546771E-02  0.1084494E+00
         21   -1    0    0  502  501  0.00000000000E+00  0.00000000000E+00  0.36640173245E+03  0.36640173245E+03  0.00000000000E+00 0.  1.
         21   -1    0    0  501  502 -0.00000000000E+00 -0.00000000000E+00 -0.24809180579E+03  0.24809180579E+03  0.00000000000E+00 0.  1.
         25    1    1    2    0    0 -0.77328697254E+02 -0.88613714811E+02 -0.19345043313E+03  0.25861204138E+03  0.12500000000E+03 0.  0.
         25    1    1    2    0    0  0.77328697254E+02  0.88613714811E+02  0.31176035979E+03  0.35588149686E+03  0.12500000000E+03 0.  0.
</event>
<event>
 4    0  0.2202290E-002  0.2969580E+03  0.7546771E-02  0.1086771E+00
         21   -1    0    0  502  501  0.00000000000E+00  0.00000000000E+00  0.11915338826E+04  0.11915338826E+04  0.00000000000E+00 0. -1.
         21   -1    0    0  501  502 -0.00000000000E+00 -0.00000000000E+00 -0.74008860143E+02  0.74008860143E+02  0.00000000000E+00 0. -1.
         25    1    1    2    0    0 -0.73198551555E+02  0.24187543360E+03  0.75748374268E+03  0.80825019254E+03  0.12500000000E+03 0.  0.
         25    1    1    2    0    0  0.73198551555E+02 -0.24187543360E+03  0.36004127981E+03  0.45729255023E+03  0.12500000000E+03 0.  0.
</event>
<event>
 4    0  0.2202290E-002  0.3210498E+03  0.7546771E-02  0.1075167E+00
         21   -1    0    0  502  501  0.00000000000E+00  0.00000000000E+00  0.52675923504E+03  0.52675923504E+03  0.00000000000E+00 0.  1.
         21   -1    0    0  501  502 -0.00000000000E+00 -0.00000000000E+00 -0.19567383566E+03  0.19567383566E+03  0.00000000000E+00 0.  1.
         25    1    1    2    0    0  0.36092954914E+02  0.27791398066E+02 -0.16319936242E+03  0.21055663156E+03  0.12500000000E+03 0.  0.
         25    1    1    2    0    0 -0.36092954914E+02 -0.27791398066E+02  0.49428476180E+03  0.51187643914E+03  0.12500000000E+03 0.  0.
</event>
<event>
 4    0  0.2202290E-002  0.2548032E+03  0.7546771E-02  0.1110306E+00
         21   -1    0    0  502  501  0.00000000000E+00  0.00000000000E+00  0.24047086182E+03  0.24047086182E+03  0.00000000000E+00 0. -1.
         21   -1    0    0  501  502 -0.00000000000E+00 -0.00000000000E+00 -0.26998968913E+03  0.26998968913E+03  0.00000000000E+00 0. -1.
         25    1    1    2    0    0  0.21924085692E+03  0.26820630712E+02  0.79447145666E+01  0.25391734495E+03  0.12500000000E+03 0.  0.
         25    1    1    2    0    0 -0.21924085692E+03 -0.26820630712E+02 -0.37463541876E+02  0.25654320600E+03  0.12500000000E+03 0.  0.
</event>
<event>
 4    0  0.2202290E-002  0.1414641E+03  0.7546771E-02  0.1211372E+00
         21   -1    0    0  502  501  0.00000000000E+00  0.00000000000E+00  0.40257629140E+03  0.40257629140E+03  0.00000000000E+00 0.  1.
         21   -1    0    0  501  502 -0.00000000000E+00 -0.00000000000E+00 -0.49710046363E+02  0.49710046363E+02  0.00000000000E+00 0.  1.
         25    1    1    2    0    0  0.21338248617E+02 -0.50781553567E+02  0.23523430255E+03  0.27201886724E+03  0.12500000000E+03 0.  0.
         25    1    1    2    0    0 -0.21338248617E+02  0.50781553567E+02  0.11763194249E+03  0.18026747053E+03  0.12500000000E+03 0.  0.
</event>
<event>
 4    0  0.2202290E-002  0.2819495E+03  0.7546771E-02  0.1094629E+00
         21   -1    0    0  502  501  0.00000000000E+00  0.00000000000E+00  0.12334322909E+03  0.12334322909E+03  0.00000000000E+00 0. -1.
         21   -1    0    0  501  502 -0.00000000000E+00 -0.00000000000E+00 -0.64450638433E+03  0.64450638433E+03  0.00000000000E+00 0. -1.
         25    1    1    2    0    0 -0.11490999084E+03 -0.60533132118E+02  0.34629576634E+02  0.18355591425E+03  0.12500000000E+03 0.  0.
         25    1    1    2    0    0  0.11490999084E+03  0.60533132118E+02 -0.55579273188E+03  0.58429369917E+03  0.12500000000E+03 0.  0.
</event>
<event>
 4    0  0.2202290E-002  0.1629808E+03  0.7546771E-02  0.1185372E+00
         21   -1    0    0  502  501  0.00000000000E+00  0.00000000000E+00  0.39557378986E+03  0.39557378986E+03  0.00000000000E+00 0.  1.
         21   -1    0    0  501  502 -0.00000000000E+00 -0.00000000000E+00 -0.67149872181E+02  0.67149872181E+02  0.00000000000E+00 0.  1.
         25    1    1    2    0    0  0.48350082390E+02 -0.39529185637E+02  0.28329853014E+03  0.31588501732E+03  0.12500000000E+03 0.  0.
         25    1    1    2    0    0 -0.48350082390E+02  0.39529185637E+02  0.45125387537E+02  0.14683864472E+03  0.12500000000E+03 0.  0.
</event>
<event>
 4    0  0.2202290E-002  0.2187836E+03  0.7546771E-02  0.1134793E+00
         21   -1    0    0  502  501  0.00000000000E+00  0.00000000000E+00  0.66016264747E+02  0.66016264747E+02  0.00000000000E+00 0.  1.
         21   -1    0    0  501  502 -0.00000000000E+00 -0.00000000000E+00 -0.72506751497E+03  0.72506751497E+03  0.00000000000E+00 0.  1.
         25    1    1    2    0    0 -0.14531134977E+03  0.24236637845E+02 -0.14393070957E+03  0.24092291743E+03  0.12500000000E+03 0.  0.
         25    1    1    2    0    0  0.14531134977E+03 -0.24236637845E+02 -0.51512054065E+03  0.55016086228E+03  0.12500000000E+03 0.  0.
</event>
<event>
 4    0  0.2202290E-002  0.1701555E+03  0.7546771E-02  0.1177686E+00
         21   -1    0    0  502  501  0.00000000000E+00  0.00000000000E+00  0.48752307206E+02  0.48752307206E+02  0.00000000000E+00 0.  1.
         21   -1    0    0  501  502 -0.00000000000E+00 -0.00000000000E+00 -0.59387762685E+03  0.59387762685E+03  0.00000000000E+00 0.  1.
         25    1    1    2    0    0  0.10297784778E+03 -0.38519106111E+02 -0.20607344321E+03  0.26491399107E+03  0.12500000000E+03 0.  0.
         25    1    1    2    0    0 -0.10297784778E+03  0.38519106111E+02 -0.33905187644E+03  0.37771594299E+03  0.12500000000E+03 0.  0.
</event>
<event>
 4    0  0.2202290E-002  0.1795498E+03  0.7546771E-02  0.1168239E+00
         21   -1    0    0  502  501  0.00000000000E+00  0.00000000000E+00  0.66155182137E+02  0.66155182137E+02  0.00000000000E+00 0. -1.
         21   -1    0    0  501  502 -0.00000000000E+00 -0.00000000000E+00 -0.48731060563E+03  0.48731060563E+03  0.00000000000E+00 0. -1.
         25    1    1    2    0    0 -0.18253179691E+02  0.12632927971E+03 -0.18296994572E+03  0.25572498219E+03  0.12500000000E+03 0.  0.
         25    1    1    2    0    0  0.18253179691E+02 -0.12632927971E+03 -0.23818547777E+03  0.29774080557E+03  0.12500000000E+03 0.  0.
</event>
<event>
 4    0  0.2202290E-002  0.2188615E+03  0.7546771E-02  0.1134735E+00
         21   -1    0    0  502  501  0.00000000000E+00  0.00000000000E+00  0.12896226856E+03  0.12896226856E+03  0.00000000000E+00 0. -1.
         21   -1    0    0  501  502 -0.00000000000E+00 -0.00000000000E+00 -0.37142938493E+03  0.37142938493E+03  0.00000000000E+00 0. -1.
         25    1    1    2    0    0 -0.95024532808E+02 -0.54011437541E+02  0.41757222936E+02  0.17121788133E+03  0.12500000000E+03 0.  0.
         25    1    1    2    0    0  0.95024532808E+02  0.54011437541E+02 -0.28422433931E+03  0.32917377216E+03  0.12500000000E+03 0.  0.
</event>
<event>
 4    0  0.2202290E-002  0.3387690E+03  0.7546771E-02  0.1067321E+00
         21   -1    0    0  502  501  0.00000000000E+00  0.00000000000E+00  0.59053902343E+02  0.59053902343E+02  0.00000000000E+00 0.  1.
         21   -1    0    0  501  502 -0.00000000000E+00 -0.00000000000E+00 -0.19433839779E+04  0.19433839779E+04  0.00000000000E+00 0.  1.
         25    1    1    2    0    0 -0.29082512242E+03 -0.83669688274E+02 -0.68520055199E+03  0.75941073538E+03  0.12500000000E+03 0.  0.
         25    1    1    2    0    0  0.29082512242E+03  0.83669688274E+02 -0.11991295235E+04  0.12430271448E+04  0.12500000000E+03 0.  0.
</event>
<event>
 4    0  0.2202290E-002  0.1987294E+03  0.7546771E-02  0.1150815E+00
         21   -1    0    0  502  501  0.00000000000E+00  0.00000000000E+00  0.13288344627E+03  0.13288344627E+03  0.00000000000E+00 0.  1.
         21   -1    0    0  501  502 -0.00000000000E+00 -0.00000000000E+00 -0.29720306605E+03  0.29720306605E+03  0.00000000000E+00 0.  1.
         25    1    1    2    0    0 -0.70030964654E+02 -0.69515611628E+02  0.46475319114E+02  0.16589668941E+03  0.12500000000E+03 0.  0.
         25    1    1    2    0    0  0.70030964654E+02  0.69515611628E+02 -0.21079493889E+03  0.26418982292E+03  0.12500000000E+03 0.  0.
</event>
<event>
 4    0  0.2202290E-002  0.2819126E+03  0.7546771E-02  0.1094649E+00
         21   -1    0    0  502  501  0.00000000000E+00  0.00000000000E+00  0.35272609761E+03  0.35272609761E+03  0.00000000000E+00 0.  1.
         21   -1    0    0  501  502 -0.00000000000E+00 -0.00000000000E+00 -0.22531566574E+03  0.22531566574E+03  0.00000000000E+00 0.  1.
         25    1    1    2    0    0 -0.10282845799E+03  0.94921200677E+01 -0.17273050043E+03  0.23690634837E+03  0.12500000000E+03 0.  0.
         25    1    1    2    0    0  0.10282845799E+03 -0.94921200677E+01  0.30014093230E+03  0.34113541499E+03  0.12500000000E+03 0.  0.
</event>
<event>
 4    0  0.2202290E-002  0.2105912E+03  0.7546771E-02  0.1141099E+00
         21   -1    0    0  502  501  0.00000000000E+00  0.00000000000E+00  0.19817964606E+04  0.19817964606E+04  0.00000000000E+00 0. -1.
         21   -1    0    0  501  502 -0.00000000000E+00 -0.00000000000E+00 -0.22377999749E+02  0.22377999749E+02  0.00000000000E+00 0. -1.
         25    1    1    2    0    0 -0.38218416368E+02 -0.15116542116E+03  0.66363902695E+03  0.69307531336E+03  0.12500000000E+03 0.  0.
         25    1    1    2    0    0  0.38218416368E+02  0.15116542116E+03  0.12957794339E+04  0.13110991470E+04  0.12500000000E+03 0.  0.
</event>
