<event>
 4    0  0.2193754E-002  0.3017604E+03  0.7546771E-02  0.1084364E+00
         21   -1    0    0  502  501  0.00000000000E+00  0.00000000000E+00  0.49432807677E+02  0.49432807677E+02  0.00000000000E+00 0. -1.
         21   -1    0    0  501  502 -0.00000000000E+00 -0.00000000000E+00 -0.18420825286E+04  0.18420825286E+04  0.00000000000E+00 0. -1.
         25    1    1    2    0    0  0.54258738840E+02  0.18230825098E+03 -0.27537052752E+03  0.35725934073E+03  0.12500000000E+03 0.  0.
         25    1    1    2    0    0 -0.54258738840E+02 -0.18230825098E+03 -0.15172791934E+04  0.15342559955E+04  0.12500000000E+03 0.  0.
</event>
<event>
 4    0  0.2193754E-002  0.2933246E+03  0.7546771E-02  0.1088626E+00
         21   -1    0    0  502  501  0.00000000000E+00  0.00000000000E+00  0.25602458936E+03  0.25602458936E+03  0.00000000000E+00 0.  1.
         21   -1    0    0  501  502 -0.00000000000E+00 -0.00000000000E+00 -0.33605877977E+03  0.33605877977E+03  0.00000000000E+00 0.  1.
         25    1    1    2    0    0 -0.48649916506E+02  0.22683191802E+03  0.89996905982E+02  0.27846719106E+03  0.12500000000E+03 0.  0.
         25    1    1    2    0    0  0.48649916506E+02 -0.22683191802E+03 -0.17003109640E+03  0.31361617808E+03  0.12500000000E+03 0.  0.
</event>
<event>
 4    0  0.2193754E-002  0.1410143E+03  0.7546771E-02  0.1211971E+00
         21   -1    0    0  502  501  0.00000000000E+00  0.00000000000E+00  0.74636270812E+02  0.74636270812E+02  0.00000000000E+00 0.  1.
         21   -1    0    0  501  502 -0.00000000000E+00 -0.00000000000E+00 -0.26642583579E+03  0.26642583579E+03  0.00000000000E+00 0.  1.
         25    1    1    2    0    0 -0.30466078871E+02 -0.57560891548E+02 -0.90680305011E+02  0.16759879449E+03  0.12500000000E+03 0.  0.
         25    1    1    2    0    0  0.30466078871E+02  0.57560891548E+02 -0.10110925997E+03  0.17346331211E+03  0.12500000000E+03 0.  0.
</event>
<event>
 4    0  0.2193754E-002  0.1881726E+03  0.7546771E-02  0.1160120E+00
         21   -1    0    0  502  501  0.00000000000E+00  0.00000000000E+00  0.75243771098E+02  0.75243771098E+02  0.00000000000E+00 0.  1.
         21   -1    0    0  501  502 -0.00000000000E+00 -0.00000000000E+00 -0.47058933308E+03  0.47058933308E+03  0.00000000000E+00 0.  1.
         25    1    1    2    0    0 -0.48771878605E+02  0.11617430362E+03 -0.10699673632E+03  0.20724011809E+03  0.12500000000E+03 0.  0.
         25    1    1    2    0    0  0.48771878605E+02 -0.11617430362E+03 -0.28834882567E+03  0.33859298609E+03  0.12500000000E+03 0.  0.
</event>
<event>
 4    0  0.2193754E-002  0.1899446E+03  0.7546771E-02  0.1158511E+00
         21   -1    0    0  502  501  0.00000000000E+00  0.00000000000E+00  0.35498833061E+03  0.35498833061E+03  0.00000000000E+00 0. -1.
         21   -1    0    0  501  502 -0.00000000000E+00 -0.00000000000E+00 -0.10163421487E+03  0.10163421487E+03  0.00000000000E+00 0.  1.
         25    1    1    2    0    0  0.23271508137E+01  0.13200463684E+03  0.60586039744E+02  0.19164109160E+03  0.12500000000E+03 0.  0.
         25    1    1    2    0    0 -0.23271508137E+01 -0.13200463684E+03  0.19276807600E+03  0.26498145388E+03  0.12500000000E+03 0.  0.
</event>
<event>
 4    0  0.2193754E-002  0.1657212E+03  0.7546771E-02  0.1182385E+00
         21   -1    0    0  502  501  0.00000000000E+00  0.00000000000E+00  0.48623206165E+02  0.48623206165E+02  0.00000000000E+00 0. -1.
         21   -1    0    0  501  502 -0.00000000000E+00 -0.00000000000E+00 -0.56482328935E+03  0.56482328935E+03  0.00000000000E+00 0. -1.
         25    1    1    2    0    0  0.34409052391E+02 -0.42804864614E+02 -0.43194376565E+03  0.45300845026E+03  0.12500000000E+03 0.  0.
         25    1    1    2    0    0 -0.34409052391E+02  0.42804864614E+02 -0.84256317535E+02  0.16043804526E+03  0.12500000000E+03 0.  0.
</event>
<event>
 4    0  0.2193754E-002  0.1712008E+03  0.7546771E-02  0.1176601E+00
         21   -1    0    0  502  501  0.00000000000E+00  0.00000000000E+00  0.34644533280E+03  0.34644533280E+03  0.00000000000E+00 0.  1.
         21   -1    0    0  501  502 -0.00000000000E+00 -0.00000000000E+00 -0.84601250428E+02  0.84601250428E+02  0.00000000000E+00 0.  1.
         25    1    1    2    0    0  0.11303534585E+03  0.20612820394E+02  0.10325989652E+03  0.19871961152E+03  0.12500000000E+03 0.  0.
         25    1    1    2    0    0 -0.11303534585E+03 -0.20612820394E+02  0.15858418585E+03  0.23232697170E+03  0.12500000000E+03 0.  0.
</event>
<event>
 4    0  0.2193754E-002  0.2346671E+03  0.7546771E-02  0.1123397E+00
         21   -1    0    0  502  501  0.00000000000E+00  0.00000000000E+00  0.48124157402E+03  0.48124157402E+03  0.00000000000E+00 0. -1.
         21   -1    0    0  501  502 -0.00000000000E+00 -0.00000000000E+00 -0.11443035409E+03  0.11443035409E+03  0.00000000000E+00 0. -1.
         25    1    1    2    0    0  0.12284986650E+03 -0.89088362681E+02  0.34601401099E+03  0.39796924739E+03  0.12500000000E+03 0.  0.
         25    1    1    2    0    0 -0.12284986650E+03  0.89088362681E+02  0.20797208934E+02  0.19770268072E+03  0.12500000000E+03 0.  0.
</event>
<event>
 4    0  0.2193754E-002  0.3142154E+03  0.7546771E-02  0.1078343E+00
         21   -1    0    0  502  501  0.00000000000E+00  0.00000000000E+00  0.34597432593E+03  0.34597432593E+03  0.00000000000E+00 0.  1.
         21   -1    0    0  501  502 -0.00000000000E+00 -0.00000000000E+00 -0.28537173201E+03  0.28537173201E+03  0.00000000000E+00 0.  1.
         25    1    1    2    0    0  0.28526116461E+03  0.13817264943E+02 -0.91420636931E+01  0.31188688041E+03  0.12500000000E+03 0.  0.
         25    1    1    2    0    0 -0.28526116461E+03 -0.13817264943E+02  0.69744657614E+02  0.31945917753E+03  0.12500000000E+03 0.  0.
</event>
<event>
 4    0  0.2193754E-002  0.2101919E+03  0.7546771E-02  0.1141414E+00
         21   -1    0    0  502  501  0.00000000000E+00  0.00000000000E+00  0.13465347997E+03  0.13465347997E+03  0.00000000000E+00 0. -1.
         21   -1    0    0  501  502 -0.00000000000E+00 -0.00000000000E+00 -0.32810612253E+03  0.32810612253E+03  0.00000000000E+00 0. -1.
         25    1    1    2    0    0 -0.55192731728E+02  0.15551263876E+03 -0.56653281428E+02  0.21462761413E+03  0.12500000000E+03 0.  0.
         25    1    1    2    0    0  0.55192731728E+02 -0.15551263876E+03 -0.13679936113E+03  0.24813198838E+03  0.12500000000E+03 0.  0.
</event>
<event>
 4    0  0.2193754E-002  0.7433885E+03  0.7546771E-02  0.9645780E-01
         21   -1    0    0  502  501  0.00000000000E+00  0.00000000000E+00  0.38003033623E+03  0.38003033623E+03  0.00000000000E+00 0.  1.
         21   -1    0    0  501  502 -0.00000000000E+00 -0.00000000000E+00 -0.14541640257E+04  0.14541640257E+04  0.00000000000E+00 0.  1.
         25    1    1    2    0    0  0.57438849235E+03 -0.29464623038E+02  0.23149258472E+02  0.58902562959E+03  0.12500000000E+03 0.  0.
         25    1    1    2    0    0 -0.57438849235E+03  0.29464623038E+02 -0.10972829479E+04  0.12451687323E+04  0.12500000000E+03 0.  0.
</event>
<event>
 4    0  0.2193754E-002  0.2030307E+03  0.7546771E-02  0.1147207E+00
         21   -1    0    0  502  501  0.00000000000E+00  0.00000000000E+00  0.28515425385E+03  0.28515425385E+03  0.00000000000E+00 0.  1.
         21   -1    0    0  501  502 -0.00000000000E+00 -0.00000000000E+00 -0.14455849198E+03  0.14455849198E+03  0.00000000000E+00 0.  1.
         25    1    1    2    0    0  0.38314362045E+02 -0.11604210715E+03 -0.38976980649E+02  0.17910322719E+03  0.12500000000E+03 0.  0.
         25    1    1    2    0    0 -0.38314362045E+02  0.11604210715E+03  0.17957274252E+03  0.25060951863E+03  0.12500000000E+03 0.  0.
</event>
<event>
 4    0  0.2193754E-002  0.2200352E+03  0.7546771E-02  0.1133857E+00
         21   -1    0    0  502  501  0.00000000000E+00  0.00000000000E+00  0.53589963828E+02  0.53589963828E+02  0.00000000000E+00 0.  1.
         21   -1    0    0  501  502 -0.00000000000E+00 -0.00000000000E+00 -0.90344310473E+03  0.90344310473E+03  0.00000000000E+00 0. -1.
         25    1    1    2    0    0  0.57605128203E+02 -0.15807991576E+03 -0.27931931427E+03  0.34921610771E+03  0.12500000000E+03 0.  0.
         25    1    1    2    0    0 -0.57605128203E+02  0.15807991576E+03 -0.57053382663E+03  0.60781696085E+03  0.12500000000E+03 0.  0.
</event>
<event>
 4    0  0.2193754E-002  0.4444917E+03  0.7546771E-02  0.1029378E+00
         21   -1    0    0  502  501  0.00000000000E+00  0.00000000000E+00  0.48847517669E+03  0.48847517669E+03  0.00000000000E+00 0.  1.
         21   -1    0    0  501  502 -0.00000000000E+00 -0.00000000000E+00 -0.40446866039E+03  0.40446866039E+03  0.00000000000E+00 0.  1.
         25    1    1    2    0    0 -0.37318451018E+03 -0.15058418467E+03 -0.10006809707E+03  0.43310610636E+03  0.12500000000E+03 0.  0.
         25    1    1    2    0    0  0.37318451018E+03  0.15058418467E+03  0.18407461337E+03  0.45983773073E+03  0.12500000000E+03 0.  0.
</event>
<event>
 4    0  0.2193754E-002  0.1955022E+03  0.7546771E-02  0.1153590E+00
         21   -1    0    0  502  501  0.00000000000E+00  0.00000000000E+00  0.15139728305E+03  0.15139728305E+03  0.00000000000E+00 0.  1.
         21   -1    0    0  501  502 -0.00000000000E+00 -0.00000000000E+00 -0.25245580163E+03  0.25245580163E+03  0.00000000000E+00 0.  1.
         25    1    1    2    0    0 -0.10914303951E+03 -0.88621493579E+02 -0.10547656942E+03  0.21567632901E+03  0.12500000000E+03 0.  0.
         25    1    1    2    0    0  0.10914303951E+03  0.88621493579E+02  0.44180508437E+01  0.18817675566E+03  0.12500000000E+03 0.  0.
</event>
<event>
 4    0  0.2193754E-002  0.2360400E+03  0.7546771E-02  0.1122459E+00
         21   -1    0    0  502  501  0.00000000000E+00  0.00000000000E+00  0.29009314688E+03  0.29009314688E+03  0.00000000000E+00 0. -1.
         21   -1    0    0  501  502 -0.00000000000E+00 -0.00000000000E+00 -0.19205855912E+03  0.19205855912E+03  0.00000000000E+00 0. -1.
         25    1    1    2    0    0  0.16084341425E+03 -0.62858120682E+02  0.15251094496E+03  0.26211893403E+03  0.12500000000E+03 0.  0.
         25    1    1    2    0    0 -0.16084341425E+03  0.62858120682E+02 -0.54476357204E+02  0.22003277197E+03  0.12500000000E+03 0.  0.
</event>
<event>
 4    0  0.2193754E-002  0.1994426E+03  0.7546771E-02  0.1150210E+00
         21   -1    0    0  502  501  0.00000000000E+00  0.00000000000E+00  0.25286121035E+02  0.25286121035E+02  0.00000000000E+00 0.  1.
         21   -1    0    0  501  502 -0.00000000000E+00 -0.00000000000E+00 -0.15730904609E+04  0.15730904609E+04  0.00000000000E+00 0.  1.
         25    1    1    2    0    0 -0.79993179008E+02 -0.72390412751E+02 -0.12221448286E+04  0.12332486622E+04  0.12500000000E+03 0.  0.
         25    1    1    2    0    0  0.79993179008E+02  0.72390412751E+02 -0.32565951118E+03  0.36512791974E+03  0.12500000000E+03 0.  0.
</event>
<event>
 4    0  0.2193754E-002  0.1977745E+03  0.7546771E-02  0.1151630E+00
         21   -1    0    0  502  501  0.00000000000E+00  0.00000000000E+00  0.19736417459E+03  0.19736417459E+03  0.00000000000E+00 0.  1.
         21   -1    0    0  501  502 -0.00000000000E+00 -0.00000000000E+00 -0.19818568866E+03  0.19818568866E+03  0.00000000000E+00 0.  1.
         25    1    1    2    0    0  0.28447930886E+01 -0.13712624416E+03 -0.68807214185E+02  0.19791698363E+03  0.12500000000E+03 0.  0.
         25    1    1    2    0    0 -0.28447930886E+01  0.13712624416E+03  0.67985700116E+02  0.19763287962E+03  0.12500000000E+03 0.  0.
</event>
<event>
 4    0  0.2193754E-002  0.1703489E+03  0.7546771E-02  0.1177485E+00
         21   -1    0    0  502  501  0.00000000000E+00  0.00000000000E+00  0.47432617126E+03  0.47432617126E+03  0.00000000000E+00 0.  1.
         21   -1    0    0  501  502 -0.00000000000E+00 -0.00000000000E+00 -0.61178871069E+02  0.61178871069E+02  0.00000000000E+00 0.  1.
         25    1    1    2    0    0 -0.96388980845E+01 -0.91989281428E+02  0.97237623976E+02  0.18339872347E+03  0.12500000000E+03 0.  0.
         25    1    1    2    0    0  0.96388980845E+01  0.91989281428E+02  0.31590967622E+03  0.35210631886E+03  0.12500000000E+03 0.  0.
</event>
<event>
 4    0  0.2193754E-002  0.2463787E+03  0.7546771E-02  0.1115615E+00
         21   -1    0    0  502  501  0.00000000000E+00  0.00000000000E+00  0.63360679231E+03  0.63360679231E+03  0.00000000000E+00 0.  1.
         21   -1    0    0  501  502 -0.00000000000E+00 -0.00000000000E+00 -0.95804619394E+02  0.95804619394E+02  0.00000000000E+00 0.  1.
         25    1    1    2    0    0  0.99295475451E+02 -0.15592081293E+03  0.42349181411E+03  0.47868696240E+03  0.12500000000E+03 0.  0.
         25    1    1    2    0    0 -0.99295475451E+02  0.15592081293E+03  0.11431035880E+03  0.25072444931E+03  0.12500000000E+03 0.  0.
</event>
<event>
 4    0  0.2193754E-002  0.2231162E+03  0.7546771E-02  0.1131581E+00
         21   -1    0    0  502  501  0.00000000000E+00  0.00000000000E+00  0.10401635379E+03  0.10401635379E+03  0.00000000000E+00 0.  1.
         21   -1    0    0  501  502 -0.00000000000E+00 -0.00000000000E+00 -0.47858681781E+03  0.47858681781E+03  0.00000000000E+00 0.  1.
         25    1    1    2    0    0 -0.98146143983E+02 -0.13849938613E+03 -0.28270260162E+03  0.35264785055E+03  0.12500000000E+03 0.  0.
         25    1    1    2    0    0  0.98146143983E+02  0.13849938613E+03 -0.91867862400E+02  0.22995532105E+03  0.12500000000E+03 0.  0.
</event>
<event>
 4    0  0.2193754E-002  0.2567909E+03  0.7546771E-02  0.1109087E+00
         21   -1    0    0  502  501  0.00000000000E+00  0.00000000000E+00  0.81066196806E+02  0.81066196806E+02  0.00000000000E+00 0.  1.
         21   -1    0    0  501  502 -0.00000000000E+00 -0.00000000000E+00 -0.81342870983E+03  0.81342870983E+03  0.00000000000E+00 0.  1.
         25    1    1    2    0    0 -0.49951293918E+02 -0.16320782267E+03 -0.11268074397E+03  0.23969538003E+03  0.12500000000E+03 0.  0.
         25    1    1    2    0    0  0.49951293918E+02  0.16320782267E+03 -0.61968176905E+03  0.65479952661E+03  0.12500000000E+03 0.  0.
</event>
<event>
 4    0  0.2193754E-002  0.3069988E+03  0.7546771E-02  0.1081793E+00
         21   -1    0    0  502  501  0.00000000000E+00  0.00000000000E+00  0.42887858929E+03  0.42887858929E+03  0.00000000000E+00 0.  1.
         21   -1    0    0  501  502 -0.00000000000E+00 -0.00000000000E+00 -0.21975512373E+03  0.21975512373E+03  0.00000000000E+00 0.  1.
         25    1    1    2    0    0 -0.66343149419E+02 -0.20492732324E+03 -0.85082827312E+02  0.26317429355E+03  0.12500000000E+03 0.  0.
         25    1    1    2    0    0  0.66343149419E+02  0.20492732324E+03  0.29420629288E+03  0.38545941947E+03  0.12500000000E+03 0.  0.
</event>
<event>
 4    0  0.2193754E-002  0.1777526E+03  0.7546771E-02  0.1169996E+00
         21   -1    0    0  502  501  0.00000000000E+00  0.00000000000E+00  0.60077868362E+03  0.60077868362E+03  0.00000000000E+00 0.  1.
         21   -1    0    0  501  502 -0.00000000000E+00 -0.00000000000E+00 -0.52591695840E+02  0.52591695840E+02  0.00000000000E+00 0.  1.
         25    1    1    2    0    0 -0.42015910928E+02  0.17435026936E+02  0.57399526545E+02  0.14487588682E+03  0.12500000000E+03 0.  0.
         25    1    1    2    0    0  0.42015910928E+02 -0.17435026936E+02  0.49078746123E+03  0.50849449263E+03  0.12500000000E+03 0.  0.
</event>
<event>
 4    0  0.2193754E-002  0.2122878E+03  0.7546771E-02  0.1139767E+00
         21   -1    0    0  502  501  0.00000000000E+00  0.00000000000E+00  0.44763552009E+02  0.44763552009E+02  0.00000000000E+00 0.  1.
         21   -1    0    0  501  502 -0.00000000000E+00 -0.00000000000E+00 -0.10067588956E+04  0.10067588956E+04  0.00000000000E+00 0.  1.
         25    1    1    2    0    0 -0.61114696331E+02 -0.14357895560E+03 -0.65771243693E+03  0.68743041269E+03  0.12500000000E+03 0.  0.
         25    1    1    2    0    0  0.61114696331E+02  0.14357895560E+03 -0.30428290661E+03  0.36409203487E+03  0.12500000000E+03 0.  0.
</event>
<event>
 4    0  0.2193754E-002  0.3498038E+03  0.7546771E-02  0.1062696E+00
         21   -1    0    0  502  501  0.00000000000E+00  0.00000000000E+00  0.25524654461E+03  0.25524654461E+03  0.00000000000E+00 0. -1.
         21   -1    0    0  501  502 -0.00000000000E+00 -0.00000000000E+00 -0.47939019951E+03  0.47939019951E+03  0.00000000000E+00 0. -1.
         25    1    1    2    0    0 -0.16166990231E+03  0.22666884412E+03 -0.29157469740E+03  0.42208615989E+03  0.12500000000E+03 0.  0.
         25    1    1    2    0    0  0.16166990231E+03 -0.22666884412E+03  0.67431042504E+02  0.31255058423E+03  0.12500000000E+03 0.  0.
</event>
<event>
 4    0  0.2193754E-002  0.1795046E+03  0.7546771E-02  0.1168283E+00
         21   -1    0    0  502  501  0.00000000000E+00  0.00000000000E+00  0.38679700774E+03  0.38679700774E+03  0.00000000000E+00 0. -1.
         21   -1    0    0  501  502 -0.00000000000E+00 -0.00000000000E+00 -0.83304418073E+02  0.83304418073E+02  0.00000000000E+00 0. -1.
         25    1    1    2    0    0 -0.10966984090E+03 -0.66606131864E+02  0.16685027980E+03  0.24480168846E+03  0.12500000000E+03 0.  0.
         25    1    1    2    0    0  0.10966984090E+03  0.66606131864E+02  0.13664230987E+03  0.22529973735E+03  0.12500000000E+03 0.  0.
</event>
<event>
 4    0  0.2193754E-002  0.2601421E+03  0.7546771E-02  0.1107058E+00
         21   -1    0    0  502  501  0.00000000000E+00  0.00000000000E+00  0.33930414759E+03  0.33930414759E+03  0.00000000000E+00 0.  1.
         21   -1    0    0  501  502 -0.00000000000E+00 -0.00000000000E+00 -0.19944906686E+03  0.19944906686E+03  0.00000000000E+00 0.  1.
         25    1    1    2    0    0  0.13852220932E+03  0.15088410916E+03 -0.34110278587E+02  0.24236940397E+03  0.12500000000E+03 0.  0.
         25    1    1    2    0    0 -0.13852220932E+03 -0.15088410916E+03  0.17396535932E+03  0.29638381048E+03  0.12500000000E+03 0.  0.
</event>
<event>
 4    0  0.2193754E-002  0.2051356E+03  0.7546771E-02  0.1145477E+00
         21   -1    0    0  502  501  0.00000000000E+00  0.00000000000E+00  0.28028527075E+03  0.28028527075E+03  0.00000000000E+00 0.  1.
         21   -1    0    0  501  502 -0.00000000000E+00 -0.00000000000E+00 -0.15013488983E+03  0.15013488983E+03  0.00000000000E+00 0.  1.
         25    1    1    2    0    0 -0.34246966810E+02  0.15442179345E+03  0.25310497666E+02  0.20318603870E+03  0.12500000000E+03 0.  0.
         25    1    1    2    0    0  0.34246966810E+02 -0.15442179345E+03  0.10483988325E+03  0.22723412188E+03  0.12500000000E+03 0.  0.
</event>
<event>
 4    0  0.2193754E-002  0.2269787E+03  0.7546771E-02  0.1128785E+00
         21   -1    0    0  502  501  0.00000000000E+00  0.00000000000E+00  0.10570400553E+04  0.10570400553E+04  0.00000000000E+00 0.  1.
         21   -1    0    0  501  502 -0.00000000000E+00 -0.00000000000E+00 -0.48739238247E+02  0.48739238247E+02  0.00000000000E+00 0.  1.
         25    1    1    2    0    0  0.36245735961E+02  0.10538005388E+03  0.13093300840E+03  0.21257272125E+03  0.12500000000E+03 0.  0.
         25    1    1    2    0    0 -0.36245735961E+02 -0.10538005388E+03  0.87736780863E+03  0.89320657227E+03  0.12500000000E+03 0.  0.
</event>
<event>
 4    0  0.2193754E-002  0.2096841E+03  0.7546771E-02  0.1141816E+00
         21   -1    0    0  502  501  0.00000000000E+00  0.00000000000E+00  0.27473387904E+03  0.27473387904E+03  0.00000000000E+00 0. -1.
         21   -1    0    0  501  502 -0.00000000000E+00 -0.00000000000E+00 -0.16003646357E+03  0.16003646357E+03  0.00000000000E+00 0. -1.
         25    1    1    2    0    0 -0.11264631795E+03 -0.78713876302E+02  0.15816937105E+03  0.24398282155E+03  0.12500000000E+03 0.  0.
         25    1    1    2    0    0  0.11264631795E+03  0.78713876302E+02 -0.43471955579E+02  0.19078752106E+03  0.12500000000E+03 0.  0.
</event>
<event>
 4    0  0.2193754E-002  0.1612757E+03  0.7546771E-02  0.1187264E+00
         21   -1    0    0  502  501  0.00000000000E+00  0.00000000000E+00  0.11625263917E+04  0.11625263917E+04  0.00000000000E+00 0.  1.
         21   -1    0    0  501  502 -0.00000000000E+00 -0.00000000000E+00 -0.22373561078E+02  0.22373561078E+02  0.00000000000E+00 0.  1.
         25    1    1    2    0    0 -0.81358856021E+01 -0.45306684054E+02  0.23608942366E+03  0.27107582744E+03  0.12500000000E+03 0.  0.
         25    1    1    2    0    0  0.81358856021E+01  0.45306684054E+02  0.90406340692E+03  0.91382412530E+03  0.12500000000E+03 0.  0.
</event>
<event>
 4    0  0.2193754E-002  0.2441450E+03  0.7546771E-02  0.1117062E+00
         21   -1    0    0  502  501  0.00000000000E+00  0.00000000000E+00  0.19539051959E+04  0.19539051959E+04  0.00000000000E+00 0. -1.
         21   -1    0    0  501  502 -0.00000000000E+00 -0.00000000000E+00 -0.30506498015E+02  0.30506498015E+02  0.00000000000E+00 0. -1.
         25    1    1    2    0    0  0.59721728378E+02 -0.16770994596E+03  0.51119063682E+03  0.55554853792E+03  0.12500000000E+03 0.  0.
         25    1    1    2    0    0 -0.59721728378E+02  0.16770994596E+03  0.14122080611E+04  0.14288631560E+04  0.12500000000E+03 0.  0.
</event>
<event>
 4    0  0.2193754E-002  0.1604024E+03  0.7546771E-02  0.1188243E+00
         21   -1    0    0  502  501  0.00000000000E+00  0.00000000000E+00  0.62640941618E+02  0.62640941618E+02  0.00000000000E+00 0. -1.
         21   -1    0    0  501  502 -0.00000000000E+00 -0.00000000000E+00 -0.41073654677E+03  0.41073654677E+03  0.00000000000E+00 0. -1.
         25    1    1    2    0    0 -0.54037375960E+02 -0.51511809949E+02 -0.74727964913E+02  0.16365443259E+03  0.12500000000E+03 0.  0.
         25    1    1    2    0    0  0.54037375960E+02  0.51511809949E+02 -0.27336764024E+03  0.30972305580E+03  0.12500000000E+03 0.  0.
</event>
<event>
 4    0  0.2193754E-002  0.3092378E+03  0.7546771E-02  0.1080712E+00
         21   -1    0    0  502  501  0.00000000000E+00  0.00000000000E+00  0.52457506165E+03  0.52457506165E+03  0.00000000000E+00 0.  1.
         21   -1    0    0  501  502 -0.00000000000E+00 -0.00000000000E+00 -0.18229615731E+03  0.18229615731E+03  0.00000000000E+00 0.  1.
         25    1    1    2    0    0 -0.15871505435E+03 -0.17724105930E+03 -0.36875642410E+01  0.26878143483E+03  0.12500000000E+03 0.  0.
         25    1    1    2    0    0  0.15871505435E+03  0.17724105930E+03  0.34596646858E+03  0.43808978413E+03  0.12500000000E+03 0.  0.
</event>
<event>
 4    0  0.2193754E-002  0.2960272E+03  0.7546771E-02  0.1087244E+00
         21   -1    0    0  502  501  0.00000000000E+00  0.00000000000E+00  0.19925800417E+03  0.19925800417E+03  0.00000000000E+00 0.  1.
         21   -1    0    0  501  502 -0.00000000000E+00 -0.00000000000E+00 -0.43979200496E+03  0.43979200496E+03  0.00000000000E+00 0.  1.
         25    1    1    2    0    0  0.18814671232E+03 -0.13803295965E+03 -0.26327856685E+03  0.37335356845E+03  0.12500000000E+03 0.  0.
         25    1    1    2    0    0 -0.18814671232E+03  0.13803295965E+03  0.22744566064E+02  0.26569644069E+03  0.12500000000E+03 0.  0.
</event>
<event>
 4    0  0.2193754E-002  0.1980471E+03  0.7546771E-02  0.1151397E+00
         21   -1    0    0  502  501  0.00000000000E+00  0.00000000000E+00  0.66046951575E+02  0.66046951575E+02  0.00000000000E+00 0. -1.
         21   -1    0    0  501  502 -0.00000000000E+00 -0.00000000000E+00 -0.59386007270E+03  0.59386007270E+03  0.00000000000E+00 0. -1.
         25    1    1    2    0    0  0.70702170492E+01 -0.11867422402E+03 -0.10182870226E+03  0.20031885588E+03  0.12500000000E+03 0.  0.
         25    1    1    2    0    0 -0.70702170492E+01  0.11867422402E+03 -0.42598441886E+03  0.45958816840E+03  0.12500000000E+03 0.  0.
</event>
<event>
 4    0  0.2193754E-002  0.2464425E+03  0.7546771E-02  0.1115574E+00
         21   -1    0    0  502  501  0.00000000000E+00  0.00000000000E+00  0.15793229351E+03  0.15793229351E+03  0.00000000000E+00 0. -1.
         21   -1    0    0  501  502 -0.00000000000E+00 -0.00000000000E+00 -0.38455658088E+03  0.38455658088E+03  0.00000000000E+00 0. -1.
         25    1    1    2    0    0 -0.11627381883E+03 -0.82895761590E+02 -0.28635287721E+03  0.34353206331E+03  0.12500000000E+03 0.  0.
         25    1    1    2    0    0  0.11627381883E+03  0.82895761590E+02  0.59728589836E+02  0.19895681109E+03  0.12500000000E+03 0.  0.
</event>
<event>
 4    0  0.2193754E-002  0.2094787E+03  0.7546771E-02  0.1141979E+00
         21   -1    0    0  502  501  0.00000000000E+00  0.00000000000E+00  0.10482801604E+04  0.10482801604E+04  0.00000000000E+00 0.  1.
         21   -1    0    0  501  502 -0.00000000000E+00 -0.00000000000E+00 -0.41860303535E+02  0.41860303535E+02  0.00000000000E+00 0.  1.
         25    1    1    2    0    0  0.10014385404E+03  0.13092334700E+03  0.58898275571E+03  0.62425587768E+03  0.12500000000E+03 0.  0.
         25    1    1    2    0    0 -0.10014385404E+03 -0.13092334700E+03  0.41743710119E+03  0.46588458629E+03  0.12500000000E+03 0.  0.
</event>
<event>
 4    0  0.2193754E-002  0.1645969E+03  0.7546771E-02  0.1183602E+00
         21   -1    0    0  502  501  0.00000000000E+00  0.00000000000E+00  0.24401684934E+03  0.24401684934E+03  0.00000000000E+00 0. -1.
         21   -1    0    0  501  502 -0.00000000000E+00 -0.00000000000E+00 -0.11102572513E+03  0.11102572513E+03  0.00000000000E+00 0. -1.
         25    1    1    2    0    0  0.72528635340E+02  0.77717591112E+02  0.80421470151E+02  0.18273762550E+03  0.12500000000E+03 0.  0.
         25    1    1    2    0    0 -0.72528635340E+02 -0.77717591112E+02  0.52569654062E+02  0.17230494897E+03  0.12500000000E+03 0.  0.
</event>
<event>
 4    0  0.2193754E-002  0.2406519E+03  0.7546771E-02  0.1119359E+00
         21   -1    0    0  502  501  0.00000000000E+00  0.00000000000E+00  0.13743473455E+04  0.13743473455E+04  0.00000000000E+00 0.  1.
         21   -1    0    0  501  502 -0.00000000000E+00 -0.00000000000E+00 -0.42138788830E+02  0.42138788830E+02  0.00000000000E+00 0.  1.
         25    1    1    2    0    0 -0.16140916728E+03  0.12166716187E+03  0.55471519122E+03  0.60348136751E+03  0.12500000000E+03 0.  0.
         25    1    1    2    0    0  0.16140916728E+03 -0.12166716187E+03  0.77749336544E+03  0.81300476682E+03  0.12500000000E+03 0.  0.
</event>
<event>
 4    0  0.2193754E-002  0.2100825E+03  0.7546771E-02  0.1141501E+00
         21   -1    0    0  502  501  0.00000000000E+00  0.00000000000E+00  0.13306012294E+04  0.13306012294E+04  0.00000000000E+00 0.  1.
         21   -1    0    0  501  502 -0.00000000000E+00 -0.00000000000E+00 -0.33168950175E+02  0.33168950175E+02  0.00000000000E+00 0.  1.
         25    1    1    2    0    0  0.25616682388E+02  0.15534923008E+03  0.45074783986E+03  0.49354656604E+03  0.12500000000E+03 0.  0.
         25    1    1    2    0    0 -0.25616682388E+02 -0.15534923008E+03  0.84668443935E+03  0.87022361353E+03  0.12500000000E+03 0.  0.
</event>
<event>
 4    0  0.2193754E-002  0.2539915E+03  0.7546771E-02  0.1110808E+00
         21   -1    0    0  502  501  0.00000000000E+00  0.00000000000E+00  0.32694152579E+02  0.32694152579E+02  0.00000000000E+00 0.  1.
         21   -1    0    0  501  502 -0.00000000000E+00 -0.00000000000E+00 -0.19731877937E+04  0.19731877937E+04  0.00000000000E+00 0.  1.
         25    1    1    2    0    0  0.62087647309E+02  0.21207190597E+03 -0.94034755440E+03  0.97401637169E+03  0.12500000000E+03 0.  0.
         25    1    1    2    0    0 -0.62087647309E+02 -0.21207190597E+03 -0.10001460868E+04  0.10318655746E+04  0.12500000000E+03 0.  0.
</event>
<event>
 4    0  0.2193754E-002  0.2518304E+03  0.7546771E-02  0.1112153E+00
         21   -1    0    0  502  501  0.00000000000E+00  0.00000000000E+00  0.44176621439E+02  0.44176621439E+02  0.00000000000E+00 0. -1.
         21   -1    0    0  501  502 -0.00000000000E+00 -0.00000000000E+00 -0.14355685717E+04  0.14355685717E+04  0.00000000000E+00 0. -1.
         25    1    1    2    0    0  0.21677355239E+03  0.25035343204E+02 -0.65671618512E+03  0.70322022811E+03  0.12500000000E+03 0.  0.
         25    1    1    2    0    0 -0.21677355239E+03 -0.25035343204E+02 -0.73467576518E+03  0.77652496506E+03  0.12500000000E+03 0.  0.
</event>
<event>
 4    0  0.2193754E-002  0.1726247E+03  0.7546771E-02  0.1175138E+00
         21   -1    0    0  502  501  0.00000000000E+00  0.00000000000E+00  0.43922670927E+03  0.43922670927E+03  0.00000000000E+00 0.  1.
         21   -1    0    0  501  502 -0.00000000000E+00 -0.00000000000E+00 -0.67844883708E+02  0.67844883708E+02  0.00000000000E+00 0.  1.
         25    1    1    2    0    0 -0.39164371808E+02  0.34966920581E+02  0.34262838609E+03  0.36847760380E+03  0.12500000000E+03 0.  0.
         25    1    1    2    0    0  0.39164371808E+02 -0.34966920581E+02  0.28753439479E+02  0.13859398918E+03  0.12500000000E+03 0.  0.
</event>
<event>
 4    0  0.2193754E-002  0.2054365E+03  0.7546771E-02  0.1145232E+00
         21   -1    0    0  502  501  0.00000000000E+00  0.00000000000E+00  0.64271186467E+03  0.64271186467E+03  0.00000000000E+00 0. -1.
         21   -1    0    0  501  502 -0.00000000000E+00 -0.00000000000E+00 -0.65665774042E+02  0.65665774042E+02  0.00000000000E+00 0. -1.
         25    1    1    2    0    0  0.16079528399E+03  0.21914707512E+02  0.31544266673E+03  0.37611760628E+03  0.12500000000E+03 0.  0.
         25    1    1    2    0    0 -0.16079528399E+03 -0.21914707512E+02  0.26160342390E+03  0.33226003244E+03  0.12500000000E+03 0.  0.
</event>
<event>
 4    0  0.2193754E-002  0.2085311E+03  0.7546771E-02  0.1142735E+00
         21   -1    0    0  502  501  0.00000000000E+00  0.00000000000E+00  0.47930351673E+02  0.47930351673E+02  0.00000000000E+00 0. -1.
         21   -1    0    0  501  502 -0.00000000000E+00 -0.00000000000E+00 -0.90725811239E+03  0.90725811239E+03  0.00000000000E+00 0. -1.
         25    1    1    2    0    0  0.14144612312E+03  0.18188927858E+02 -0.62830324674E+03  0.65629856979E+03  0.12500000000E+03 0.  0.
         25    1    1    2    0    0 -0.14144612312E+03 -0.18188927858E+02 -0.23102451397E+03  0.29888989427E+03  0.12500000000E+03 0.  0.
</event>
<event>
 4    0  0.2193754E-002  0.1833123E+03  0.7546771E-02  0.1164635E+00
         21   -1    0    0  502  501  0.00000000000E+00  0.00000000000E+00  0.19470086996E+03  0.19470086996E+03  0.00000000000E+00 0. -1.
         21   -1    0    0  501  502 -0.00000000000E+00 -0.00000000000E+00 -0.17258995523E+03  0.17258995523E+03  0.00000000000E+00 0. -1.
         25    1    1    2    0    0  0.12509011997E+03 -0.22720374183E+02  0.53731694786E+02  0.18621452291E+03  0.12500000000E+03 0.  0.
         25    1    1    2    0    0 -0.12509011997E+03  0.22720374183E+02 -0.31620780048E+02  0.18107630228E+03  0.12500000000E+03 0.  0.
</event>
<event>
 4    0  0.2193754E-002  0.1741164E+03  0.7546771E-02  0.1173622E+00
         21   -1    0    0  502  501  0.00000000000E+00  0.00000000000E+00  0.17308651823E+03  0.17308651823E+03  0.00000000000E+00 0.  1.
         21   -1    0    0  501  502 -0.00000000000E+00 -0.00000000000E+00 -0.17515233261E+03  0.17515233261E+03  0.00000000000E+00 0.  1.
         25    1    1    2    0    0 -0.10117258446E+03  0.33555260539E+02 -0.58737129144E+02  0.17446173706E+03  0.12500000000E+03 0.  0.
         25    1    1    2    0    0  0.10117258446E+03 -0.33555260539E+02  0.56671314766E+02  0.17377711378E+03  0.12500000000E+03 0.  0.
</event>
<event>
 4    0  0.2193754E-002  0.2688748E+03  0.7546771E-02  0.1101925E+00
         21   -1    0    0  502  501  0.00000000000E+00  0.00000000000E+00  0.26038201520E+03  0.26038201520E+03  0.00000000000E+00 0. -1.
         21   -1    0    0  501  502 -0.00000000000E+00 -0.00000000000E+00 -0.27764450196E+03  0.27764450196E+03  0.00000000000E+00 0. -1.
         25    1    1    2    0    0  0.34083765762E+02 -0.10305123323E+03  0.20334430113E+03  0.26221206029E+03  0.12500000000E+03 0.  0.
         25    1    1    2    0    0 -0.34083765762E+02  0.10305123323E+03 -0.22060678789E+03  0.27581445687E+03  0.12500000000E+03 0.  0.
</event>
<event>
 4    0  0.2193754E-002  0.2187483E+03  0.7546771E-02  0.1134820E+00
         21   -1    0    0  502  501  0.00000000000E+00  0.00000000000E+00  0.95150947097E+02  0.95150947097E+02  0.00000000000E+00 0.  1.
         21   -1    0    0  501  502 -0.00000000000E+00 -0.00000000000E+00 -0.50289382244E+03  0.50289382244E+03  0.00000000000E+00 0.  1.
         25    1    1    2    0    0  0.10814628903E+03  0.10992439333E+03 -0.78237808377E+02  0.21336622681E+03  0.12500000000E+03 0.  0.
         25    1    1    2    0    0 -0.10814628903E+03 -0.10992439333E+03 -0.32950506697E+03  0.38467854273E+03  0.12500000000E+03 0.  0.
</event>
<event>
 4    0  0.2193754E-002  0.2168808E+03  0.7546771E-02  0.1136230E+00
         21   -1    0    0  502  501  0.00000000000E+00  0.00000000000E+00  0.37524778700E+03  0.37524778700E+03  0.00000000000E+00 0. -1.
         21   -1    0    0  501  502 -0.00000000000E+00 -0.00000000000E+00 -0.12534992928E+03  0.12534992928E+03  0.00000000000E+00 0. -1.
         25    1    1    2    0    0  0.83231351693E+02  0.13819837816E+03  0.40251096740E+02  0.20801778871E+03  0.12500000000E+03 0.  0.
         25    1    1    2    0    0 -0.83231351693E+02 -0.13819837816E+03  0.20964676098E+03  0.29257992757E+03  0.12500000000E+03 0.  0.
</event>
<event>
 4    0  0.2193754E-002  0.2121608E+03  0.7546771E-02  0.1139866E+00
         21   -1    0    0  502  501  0.00000000000E+00  0.00000000000E+00  0.43857385622E+02  0.43857385622E+02  0.00000000000E+00 0.  1.
         21   -1    0    0  501  502 -0.00000000000E+00 -0.00000000000E+00 -0.10263316115E+04  0.10263316115E+04  0.00000000000E+00 0.  1.
         25    1    1    2    0    0  0.14102594423E+03  0.31707664451E+02 -0.72367629221E+03  0.74848251071E+03  0.12500000000E+03 0.  0.
         25    1    1    2    0    0 -0.14102594423E+03 -0.31707664451E+02 -0.25879793368E+03  0.32170648643E+03  0.12500000000E+03 0.  0.
</event>
<event>
 4    0  0.2193754E-002  0.3111110E+03  0.7546771E-02  0.1079815E+00
         21   -1    0    0  502  501  0.00000000000E+00  0.00000000000E+00  0.30345366574E+03  0.30345366574E+03  0.00000000000E+00 0. -1.
         21   -1    0    0  501  502 -0.00000000000E+00 -0.00000000000E+00 -0.31896151647E+03  0.31896151647E+03  0.00000000000E+00 0. -1.
         25    1    1    2    0    0 -0.23267476765E+03  0.16195977815E+02  0.15589756413E+03  0.30713011526E+03  0.12500000000E+03 0.  0.
         25    1    1    2    0    0  0.23267476765E+03 -0.16195977815E+02 -0.17140541486E+03  0.31528506695E+03  0.12500000000E+03 0.  0.
</event>
<event>
 4    0  0.2193754E-002  0.2517047E+03  0.7546771E-02  0.1112232E+00
         21   -1    0    0  502  501  0.00000000000E+00  0.00000000000E+00  0.77636248969E+03  0.77636248969E+03  0.00000000000E+00 0.  1.
         21   -1    0    0  501  502 -0.00000000000E+00 -0.00000000000E+00 -0.81605235954E+02  0.81605235954E+02  0.00000000000E+00 0.  1.
         25    1    1    2    0    0  0.21697861765E+03  0.25225007270E+02  0.34095115867E+03  0.42377908644E+03  0.12500000000E+03 0.  0.
         25    1    1    2    0    0 -0.21697861765E+03 -0.25225007270E+02  0.35380609507E+03  0.43418863921E+03  0.12500000000E+03 0.  0.
</event>
<event>
 4    0  0.2193754E-002  0.2274146E+03  0.7546771E-02  0.1128473E+00
         21   -1    0    0  502  501  0.00000000000E+00  0.00000000000E+00  0.10960623800E+04  0.10960623800E+04  0.00000000000E+00 0. -1.
         21   -1    0    0  501  502 -0.00000000000E+00 -0.00000000000E+00 -0.47184736044E+02  0.47184736044E+02  0.00000000000E+00 0. -1.
         25    1    1    2    0    0  0.20909662834E+02  0.36462187286E+02  0.58743928122E+02  0.14436950576E+03  0.12500000000E+03 0.  0.
         25    1    1    2    0    0 -0.20909662834E+02 -0.36462187286E+02  0.99013371587E+03  0.99887761032E+03  0.12500000000E+03 0.  0.
</event>
<event>
 4    0  0.2193754E-002  0.4186234E+03  0.7546771E-02  0.1037515E+00
         21   -1    0    0  502  501  0.00000000000E+00  0.00000000000E+00  0.12021564039E+04  0.12021564039E+04  0.00000000000E+00 0.  1.
         21   -1    0    0  501  502 -0.00000000000E+00 -0.00000000000E+00 -0.14577596955E+03  0.14577596955E+03  0.00000000000E+00 0.  1.
         25    1    1    2    0    0 -0.39831141250E+03  0.27782992849E+02  0.55076636379E+03  0.69165921052E+03  0.12500000000E+03 0.  0.
         25    1    1    2    0    0  0.39831141250E+03 -0.27782992849E+02  0.50561407057E+03  0.65627316293E+03  0.12500000000E+03 0.  0.
</event>
<event>
 4    0  0.2193754E-002  0.1774605E+03  0.7546771E-02  0.1170284E+00
         21   -1    0    0  502  501  0.00000000000E+00  0.00000000000E+00  0.55302487821E+02  0.55302487821E+02  0.00000000000E+00 0. -1.
         21   -1    0    0  501  502 -0.00000000000E+00 -0.00000000000E+00 -0.56945433459E+03  0.56945433459E+03  0.00000000000E+00 0. -1.
         25    1    1    2    0    0 -0.66770002967E+02 -0.96036506878E+02 -0.17477512436E+03  0.24464788584E+03  0.12500000000E+03 0.  0.
         25    1    1    2    0    0  0.66770002967E+02  0.96036506878E+02 -0.33937672241E+03  0.38010893657E+03  0.12500000000E+03 0.  0.
</event>
<event>
 4    0  0.2193754E-002  0.1707347E+03  0.7546771E-02  0.1177084E+00
         21   -1    0    0  502  501  0.00000000000E+00  0.00000000000E+00  0.53289109425E+02  0.53289109425E+02  0.00000000000E+00 0. -1.
         21   -1    0    0  501  502 -0.00000000000E+00 -0.00000000000E+00 -0.54702237106E+03  0.54702237106E+03  0.00000000000E+00 0. -1.
         25    1    1    2    0    0  0.45190108040E+02 -0.33960918850E+02 -0.68188342568E+02  0.15319967342E+03  0.12500000000E+03 0.  0.
         25    1    1    2    0    0 -0.45190108040E+02  0.33960918850E+02 -0.42554491907E+03  0.44711180707E+03  0.12500000000E+03 0.  0.
</event>
<event>
 4    0  0.2193754E-002  0.4201408E+03  0.7546771E-02  0.1037020E+00
         21   -1    0    0  502  501  0.00000000000E+00  0.00000000000E+00  0.33981963568E+04  0.33981963568E+04  0.00000000000E+00 0. -1.
         21   -1    0    0  501  502 -0.00000000000E+00 -0.00000000000E+00 -0.51944698018E+02  0.51944698018E+02  0.00000000000E+00 0.  1.
         25    1    1    2    0    0  0.36123796684E+03 -0.48742506240E+02  0.98577005305E+03  0.10584121589E+04  0.12500000000E+03 0.  0.
         25    1    1    2    0    0 -0.36123796684E+03  0.48742506240E+02  0.23604816057E+04  0.23917288959E+04  0.12500000000E+03 0.  0.
</event>
<event>
 4    0  0.2193754E-002  0.3483275E+03  0.7546771E-02  0.1063304E+00
         21   -1    0    0  502  501  0.00000000000E+00  0.00000000000E+00  0.13165659534E+03  0.13165659534E+03  0.00000000000E+00 0. -1.
         21   -1    0    0  501  502 -0.00000000000E+00 -0.00000000000E+00 -0.92157967289E+03  0.92157967289E+03  0.00000000000E+00 0. -1.
         25    1    1    2    0    0 -0.31584623486E+03  0.74046982162E+02 -0.42757130702E+03  0.55107533263E+03  0.12500000000E+03 0.  0.
         25    1    1    2    0    0  0.31584623486E+03 -0.74046982162E+02 -0.36235177053E+03  0.50216093561E+03  0.12500000000E+03 0.  0.
</event>
<event>
 4    0  0.2193754E-002  0.4667850E+03  0.7546771E-02  0.1022832E+00
         21   -1    0    0  502  501  0.00000000000E+00  0.00000000000E+00  0.43923440728E+03  0.43923440728E+03  0.00000000000E+00 0.  1.
         21   -1    0    0  501  502 -0.00000000000E+00 -0.00000000000E+00 -0.49606377016E+03  0.49606377016E+03  0.00000000000E+00 0. -1.
         25    1    1    2    0    0  0.20048483708E+03 -0.32894950446E+03 -0.26092471368E+03  0.48177655878E+03  0.12500000000E+03 0.  0.
         25    1    1    2    0    0 -0.20048483708E+03  0.32894950446E+03  0.20409535080E+03  0.45352161867E+03  0.12500000000E+03 0.  0.
</event>
<event>
 4    0  0.2193754E-002  0.2490538E+03  0.7546771E-02  0.1113904E+00
         21   -1    0    0  502  501  0.00000000000E+00  0.00000000000E+00  0.94444240979E+03  0.94444240979E+03  0.00000000000E+00 0.  1.
         21   -1    0    0  501  502 -0.00000000000E+00 -0.00000000000E+00 -0.65676642008E+02  0.65676642008E+02  0.00000000000E+00 0.  1.
         25    1    1    2    0    0 -0.38979185265E+02  0.43805872616E+02  0.19039602996E+02  0.13937660436E+03  0.12500000000E+03 0.  0.
         25    1    1    2    0    0  0.38979185265E+02 -0.43805872616E+02  0.85972616478E+03  0.87074244744E+03  0.12500000000E+03 0.  0.
</event>
<event>
 4    0  0.2193754E-002  0.3110908E+03  0.7546771E-02  0.1079824E+00
         21   -1    0    0  502  501  0.00000000000E+00  0.00000000000E+00  0.86521541300E+02  0.86521541300E+02  0.00000000000E+00 0.  1.
         21   -1    0    0  501  502 -0.00000000000E+00 -0.00000000000E+00 -0.11185365055E+04  0.11185365055E+04  0.00000000000E+00 0. -1.
         25    1    1    2    0    0  0.11462686302E+03 -0.25003886700E+03 -0.65956475558E+03  0.72547185993E+03  0.12500000000E+03 0.  0.
         25    1    1    2    0    0 -0.11462686302E+03  0.25003886700E+03 -0.37245020858E+03  0.47958618684E+03  0.12500000000E+03 0.  0.
</event>
<event>
 4    0  0.2193754E-002  0.4050898E+03  0.7546771E-02  0.1042031E+00
         21   -1    0    0  502  501  0.00000000000E+00  0.00000000000E+00  0.50522753480E+03  0.50522753480E+03  0.00000000000E+00 0.  1.
         21   -1    0    0  501  502 -0.00000000000E+00 -0.00000000000E+00 -0.32479965817E+03  0.32479965817E+03  0.00000000000E+00 0. -1.
         25    1    1    2    0    0  0.33043298518E+03  0.19236427165E+03  0.13916263749E+03  0.42565386217E+03  0.12500000000E+03 0.  0.
         25    1    1    2    0    0 -0.33043298518E+03 -0.19236427165E+03  0.41265239140E+02  0.40437333081E+03  0.12500000000E+03 0.  0.
</event>
<event>
 4    0  0.2193754E-002  0.1808712E+03  0.7546771E-02  0.1166963E+00
         21   -1    0    0  502  501  0.00000000000E+00  0.00000000000E+00  0.15300160324E+03  0.15300160324E+03  0.00000000000E+00 0. -1.
         21   -1    0    0  501  502 -0.00000000000E+00 -0.00000000000E+00 -0.21381729507E+03  0.21381729507E+03  0.00000000000E+00 0. -1.
         25    1    1    2    0    0  0.49797106881E+02  0.28387274569E+02 -0.14954620800E+03  0.20316165371E+03  0.12500000000E+03 0.  0.
         25    1    1    2    0    0 -0.49797106881E+02 -0.28387274569E+02  0.88730516162E+02  0.16365724460E+03  0.12500000000E+03 0.  0.
</event>
<event>
 4    0  0.2193754E-002  0.3197212E+03  0.7546771E-02  0.1075778E+00
         21   -1    0    0  502  501  0.00000000000E+00  0.00000000000E+00  0.82019876201E+02  0.82019876201E+02  0.00000000000E+00 0.  1.
         21   -1    0    0  501  502 -0.00000000000E+00 -0.00000000000E+00 -0.12463031613E+04  0.12463031613E+04  0.00000000000E+00 0.  1.
         25    1    1    2    0    0  0.18278892368E+03 -0.43543707266E+02 -0.11169159627E+03  0.25180916929E+03  0.12500000000E+03 0.  0.
         25    1    1    2    0    0 -0.18278892368E+03  0.43543707266E+02 -0.10525916889E+04  0.10765138682E+04  0.12500000000E+03 0.  0.
</event>
<event>
 4    0  0.2193754E-002  0.3908649E+03  0.7546771E-02  0.1046990E+00
         21   -1    0    0  502  501  0.00000000000E+00  0.00000000000E+00  0.27938606773E+03  0.27938606773E+03  0.00000000000E+00 0. -1.
         21   -1    0    0  501  502 -0.00000000000E+00 -0.00000000000E+00 -0.54682530049E+03  0.54682530049E+03  0.00000000000E+00 0. -1.
         25    1    1    2    0    0  0.16947549299E+02  0.17109246618E+03  0.21295456544E+03  0.30088951187E+03  0.12500000000E+03 0.  0.
         25    1    1    2    0    0 -0.16947549299E+02 -0.17109246618E+03 -0.48039379820E+03  0.52532185635E+03  0.12500000000E+03 0.  0.
</event>
<event>
 4    0  0.2193754E-002  0.2575521E+03  0.7546771E-02  0.1108623E+00
         21   -1    0    0  502  501  0.00000000000E+00  0.00000000000E+00  0.14780559841E+04  0.14780559841E+04  0.00000000000E+00 0.  1.
         21   -1    0    0  501  502 -0.00000000000E+00 -0.00000000000E+00 -0.44878617755E+02  0.44878617755E+02  0.00000000000E+00 0.  1.
         25    1    1    2    0    0  0.14159854528E+03 -0.12893064351E+03  0.10668482275E+04  0.10910835895E+04  0.12500000000E+03 0.  0.
         25    1    1    2    0    0 -0.14159854528E+03  0.12893064351E+03  0.36632913882E+03  0.43185101228E+03  0.12500000000E+03 0.  0.
</event>
<event>
 4    0  0.2193754E-002  0.2166454E+03  0.7546771E-02  0.1136409E+00
         21   -1    0    0  502  501  0.00000000000E+00  0.00000000000E+00  0.48904084941E+02  0.48904084941E+02  0.00000000000E+00 0. -1.
         21   -1    0    0  501  502 -0.00000000000E+00 -0.00000000000E+00 -0.95974085441E+03  0.95974085441E+03  0.00000000000E+00 0. -1.
         25    1    1    2    0    0 -0.51095659784E+01 -0.20820857789E+02 -0.86429360827E+03  0.87354911544E+03  0.12500000000E+03 0.  0.
         25    1    1    2    0    0  0.51095659784E+01  0.20820857789E+02 -0.46543161194E+02  0.13509582391E+03  0.12500000000E+03 0.  0.
</event>
<event>
 4    0  0.2193754E-002  0.2386914E+03  0.7546771E-02  0.1120668E+00
         21   -1    0    0  502  501  0.00000000000E+00  0.00000000000E+00  0.97060191102E+03  0.97060191102E+03  0.00000000000E+00 0. -1.
         21   -1    0    0  501  502 -0.00000000000E+00 -0.00000000000E+00 -0.58699248970E+02  0.58699248970E+02  0.00000000000E+00 0. -1.
         25    1    1    2    0    0  0.71451378289E+02 -0.17734114176E+03  0.30667240215E+03  0.38239788475E+03  0.12500000000E+03 0.  0.
         25    1    1    2    0    0 -0.71451378289E+02  0.17734114176E+03  0.60523025990E+03  0.64690327524E+03  0.12500000000E+03 0.  0.
</event>
<event>
 4    0  0.2193754E-002  0.2628927E+03  0.7546771E-02  0.1105418E+00
         21   -1    0    0  502  501  0.00000000000E+00  0.00000000000E+00  0.25608881854E+02  0.25608881854E+02  0.00000000000E+00 0.  1.
         21   -1    0    0  501  502 -0.00000000000E+00 -0.00000000000E+00 -0.26987740859E+04  0.26987740859E+04  0.00000000000E+00 0.  1.
         25    1    1    2    0    0 -0.11158844028E+01  0.11054124826E+03 -0.28398858090E+03  0.32938598459E+03  0.12500000000E+03 0.  0.
         25    1    1    2    0    0  0.11158844028E+01 -0.11054124826E+03 -0.23891766231E+04  0.23949969831E+04  0.12500000000E+03 0.  0.
</event>
<event>
 4    0  0.2193754E-002  0.2480939E+03  0.7546771E-02  0.1114515E+00
         21   -1    0    0  502  501  0.00000000000E+00  0.00000000000E+00  0.23876162796E+03  0.23876162796E+03  0.00000000000E+00 0.  1.
         21   -1    0    0  501  502 -0.00000000000E+00 -0.00000000000E+00 -0.25779083883E+03  0.25779083883E+03  0.00000000000E+00 0.  1.
         25    1    1    2    0    0  0.18128600887E+03 -0.82103594704E+02 -0.89071115925E+02  0.25132505042E+03  0.12500000000E+03 0.  0.
         25    1    1    2    0    0 -0.18128600887E+03  0.82103594704E+02  0.70041905061E+02  0.24522741637E+03  0.12500000000E+03 0.  0.
</event>
<event>
 4    0  0.2193754E-002  0.2418445E+03  0.7546771E-02  0.1118570E+00
         21   -1    0    0  502  501  0.00000000000E+00  0.00000000000E+00  0.45582775148E+02  0.45582775148E+02  0.00000000000E+00 0.  1.
         21   -1    0    0  501  502 -0.00000000000E+00 -0.00000000000E+00 -0.12831327367E+04  0.12831327367E+04  0.00000000000E+00 0.  1.
         25    1    1    2    0    0 -0.73048086890E+02 -0.17097868452E+03 -0.36859744616E+03  0.43134534989E+03  0.12500000000E+03 0.  0.
         25    1    1    2    0    0  0.73048086890E+02  0.17097868452E+03 -0.86895251535E+03  0.89737016191E+03  0.12500000000E+03 0.  0.
</event>
<event>
 4    0  0.2193754E-002  0.2224488E+03  0.7546771E-02  0.1132070E+00
         21   -1    0    0  502  501  0.00000000000E+00  0.00000000000E+00  0.16043952631E+03  0.16043952631E+03  0.00000000000E+00 0. -1.
         21   -1    0    0  501  502 -0.00000000000E+00 -0.00000000000E+00 -0.30842429432E+03  0.30842429432E+03  0.00000000000E+00 0. -1.
         25    1    1    2    0    0  0.63879736818E+02  0.87738876631E+02  0.82604637286E+02  0.18500610084E+03  0.12500000000E+03 0.  0.
         25    1    1    2    0    0 -0.63879736818E+02 -0.87738876631E+02 -0.23058940530E+03  0.28385771979E+03  0.12500000000E+03 0.  0.
</event>
<event>
 4    0  0.2193754E-002  0.1903441E+03  0.7546771E-02  0.1158151E+00
         21   -1    0    0  502  501  0.00000000000E+00  0.00000000000E+00  0.17646563206E+03  0.17646563206E+03  0.00000000000E+00 0. -1.
         21   -1    0    0  501  502 -0.00000000000E+00 -0.00000000000E+00 -0.20531409433E+03  0.20531409433E+03  0.00000000000E+00 0. -1.
         25    1    1    2    0    0 -0.12636140910E+03  0.24021197250E+02  0.49489634061E+02  0.18606033297E+03  0.12500000000E+03 0.  0.
         25    1    1    2    0    0  0.12636140910E+03 -0.24021197250E+02 -0.78338096332E+02  0.19571939343E+03  0.12500000000E+03 0.  0.
</event>
<event>
 4    0  0.2193754E-002  0.2558432E+03  0.7546771E-02  0.1109667E+00
         21   -1    0    0  502  501  0.00000000000E+00  0.00000000000E+00  0.22244703599E+03  0.22244703599E+03  0.00000000000E+00 0. -1.
         21   -1    0    0  501  502 -0.00000000000E+00 -0.00000000000E+00 -0.29425308095E+03  0.29425308095E+03  0.00000000000E+00 0. -1.
         25    1    1    2    0    0 -0.26749813580E+02  0.10640834097E+03  0.16040461594E+03  0.23106909869E+03  0.12500000000E+03 0.  0.
         25    1    1    2    0    0  0.26749813580E+02 -0.10640834097E+03 -0.23221066089E+03  0.28563101825E+03  0.12500000000E+03 0.  0.
</event>
<event>
 4    0  0.2193754E-002  0.1891326E+03  0.7546771E-02  0.1159246E+00
         21   -1    0    0  502  501  0.00000000000E+00  0.00000000000E+00  0.30988079091E+02  0.30988079091E+02  0.00000000000E+00 0. -1.
         21   -1    0    0  501  502 -0.00000000000E+00 -0.00000000000E+00 -0.11543521039E+04  0.11543521039E+04  0.00000000000E+00 0. -1.
         25    1    1    2    0    0  0.13933977364E+03 -0.21612787824E+02 -0.51081790304E+03  0.54446543984E+03  0.12500000000E+03 0.  0.
         25    1    1    2    0    0 -0.13933977364E+03  0.21612787824E+02 -0.61254612180E+03  0.64087474318E+03  0.12500000000E+03 0.  0.
</event>
<event>
 4    0  0.2193754E-002  0.1976305E+03  0.7546771E-02  0.1151754E+00
         21   -1    0    0  502  501  0.00000000000E+00  0.00000000000E+00  0.91856465056E+02  0.91856465056E+02  0.00000000000E+00 0. -1.
         21   -1    0    0  501  502 -0.00000000000E+00 -0.00000000000E+00 -0.42520494253E+03  0.42520494253E+03  0.00000000000E+00 0. -1.
         25    1    1    2    0    0  0.13557798597E+03 -0.21270264422E+02 -0.77960635493E+02  0.20133721741E+03  0.12500000000E+03 0.  0.
         25    1    1    2    0    0 -0.13557798597E+03  0.21270264422E+02 -0.25538784199E+03  0.31572419018E+03  0.12500000000E+03 0.  0.
</event>
<event>
 4    0  0.2193754E-002  0.2078028E+03  0.7546771E-02  0.1143318E+00
         21   -1    0    0  502  501  0.00000000000E+00  0.00000000000E+00  0.34690556972E+03  0.34690556972E+03  0.00000000000E+00 0.  1.
         21   -1    0    0  501  502 -0.00000000000E+00 -0.00000000000E+00 -0.12447763888E+03  0.12447763888E+03  0.00000000000E+00 0.  1.
         25    1    1    2    0    0  0.67248246728E+02  0.14818936621E+03  0.14839405408E+03  0.25323548375E+03  0.12500000000E+03 0.  0.
         25    1    1    2    0    0 -0.67248246728E+02 -0.14818936621E+03  0.74033876762E+02  0.21814772484E+03  0.12500000000E+03 0.  0.
</event>
<event>
 4    0  0.2193754E-002  0.2772354E+03  0.7546771E-02  0.1097209E+00
         21   -1    0    0  502  501  0.00000000000E+00  0.00000000000E+00  0.86752126766E+02  0.86752126766E+02  0.00000000000E+00 0. -1.
         21   -1    0    0  501  502 -0.00000000000E+00 -0.00000000000E+00 -0.88596664411E+03  0.88596664411E+03  0.00000000000E+00 0.  1.
         25    1    1    2    0    0  0.13915338684E+03 -0.91107481209E+02 -0.78177669319E+02  0.22226332622E+03  0.12500000000E+03 0.  0.
         25    1    1    2    0    0 -0.13915338684E+03  0.91107481209E+02 -0.72103684802E+03  0.75045544465E+03  0.12500000000E+03 0.  0.
</event>
<event>
 4    0  0.2193754E-002  0.1650155E+03  0.7546771E-02  0.1183148E+00
         21   -1    0    0  502  501  0.00000000000E+00  0.00000000000E+00  0.17592820614E+02  0.17592820614E+02  0.00000000000E+00 0.  1.
         21   -1    0    0  501  502 -0.00000000000E+00 -0.00000000000E+00 -0.15477966273E+04  0.15477966273E+04  0.00000000000E+00 0.  1.
         25    1    1    2    0    0 -0.68227577668E+02 -0.62630955893E+02 -0.10260821298E+04  0.10378088341E+04  0.12500000000E+03 0.  0.
         25    1    1    2    0    0  0.68227577668E+02  0.62630955893E+02 -0.50412167685E+03  0.52758061380E+03  0.12500000000E+03 0.  0.
</event>
<event>
 4    0  0.2193754E-002  0.2127286E+03  0.7546771E-02  0.1139423E+00
         21   -1    0    0  502  501  0.00000000000E+00  0.00000000000E+00  0.39089820960E+02  0.39089820960E+02  0.00000000000E+00 0. -1.
         21   -1    0    0  501  502 -0.00000000000E+00 -0.00000000000E+00 -0.11576787426E+04  0.11576787426E+04  0.00000000000E+00 0. -1.
         25    1    1    2    0    0  0.39840881386E+02 -0.77945122396E+02 -0.14239916231E+03  0.20872292486E+03  0.12500000000E+03 0.  0.
         25    1    1    2    0    0 -0.39840881386E+02  0.77945122396E+02 -0.97618975932E+03  0.98804563869E+03  0.12500000000E+03 0.  0.
</event>
<event>
 4    0  0.2193754E-002  0.1813156E+03  0.7546771E-02  0.1166536E+00
         21   -1    0    0  502  501  0.00000000000E+00  0.00000000000E+00  0.52911961111E+03  0.52911961111E+03  0.00000000000E+00 0.  1.
         21   -1    0    0  501  502 -0.00000000000E+00 -0.00000000000E+00 -0.62132151218E+02  0.62132151218E+02  0.00000000000E+00 0.  1.
         25    1    1    2    0    0  0.10552617335E+03 -0.69698705126E+02  0.29129211362E+03  0.34127668865E+03  0.12500000000E+03 0.  0.
         25    1    1    2    0    0 -0.10552617335E+03  0.69698705126E+02  0.17569534627E+03  0.24997507368E+03  0.12500000000E+03 0.  0.
</event>
<event>
 4    0  0.2193754E-002  0.2680312E+03  0.7546771E-02  0.1102412E+00
         21   -1    0    0  502  501  0.00000000000E+00  0.00000000000E+00  0.19603104597E+03  0.19603104597E+03  0.00000000000E+00 0. -1.
         21   -1    0    0  501  502 -0.00000000000E+00 -0.00000000000E+00 -0.36647631838E+03  0.36647631838E+03  0.00000000000E+00 0. -1.
         25    1    1    2    0    0  0.19294672912E+03  0.44643707656E+02  0.51570290510E+02  0.23980407789E+03  0.12500000000E+03 0.  0.
         25    1    1    2    0    0 -0.19294672912E+03 -0.44643707656E+02 -0.22201556292E+03  0.32270328646E+03  0.12500000000E+03 0.  0.
</event>
<event>
 4    0  0.2193754E-002  0.3212680E+03  0.7546771E-02  0.1075067E+00
         21   -1    0    0  502  501  0.00000000000E+00  0.00000000000E+00  0.60465265208E+03  0.60465265208E+03  0.00000000000E+00 0.  1.
         21   -1    0    0  501  502 -0.00000000000E+00 -0.00000000000E+00 -0.17069825226E+03  0.17069825226E+03  0.00000000000E+00 0.  1.
         25    1    1    2    0    0 -0.96644649619E+02 -0.98812460205E+02  0.53276513573E+03  0.56441809011E+03  0.12500000000E+03 0.  0.
         25    1    1    2    0    0  0.96644649619E+02  0.98812460205E+02 -0.98810735900E+02  0.21093281423E+03  0.12500000000E+03 0.  0.
</event>
<event>
 4    0  0.2193754E-002  0.4339681E+03  0.7546771E-02  0.1032614E+00
         21   -1    0    0  502  501  0.00000000000E+00  0.00000000000E+00  0.85361389646E+02  0.85361389646E+02  0.00000000000E+00 0.  1.
         21   -1    0    0  501  502 -0.00000000000E+00 -0.00000000000E+00 -0.22062468474E+04  0.22062468474E+04  0.00000000000E+00 0.  1.
         25    1    1    2    0    0  0.21231737064E+03 -0.33732027754E+03 -0.74983281007E+03  0.85833436292E+03  0.12500000000E+03 0.  0.
         25    1    1    2    0    0 -0.21231737064E+03  0.33732027754E+03 -0.13710526476E+04  0.14332738741E+04  0.12500000000E+03 0.  0.
</event>
<event>
 4    0  0.2193754E-002  0.2077665E+03  0.7546771E-02  0.1143347E+00
         21   -1    0    0  502  501  0.00000000000E+00  0.00000000000E+00  0.66607861221E+03  0.66607861221E+03  0.00000000000E+00 0.  1.
         21   -1    0    0  501  502 -0.00000000000E+00 -0.00000000000E+00 -0.64807552515E+02  0.64807552515E+02  0.00000000000E+00 0.  1.
         25    1    1    2    0    0 -0.33276751292E+02  0.90930103472E+02  0.53770597585E+03  0.56047153572E+03  0.12500000000E+03 0.  0.
         25    1    1    2    0    0  0.33276751292E+02 -0.90930103472E+02  0.63565083850E+02  0.17041462900E+03  0.12500000000E+03 0.  0.
</event>
<event>
 4    0  0.2193754E-002  0.3511698E+03  0.7546771E-02  0.1062136E+00
         21   -1    0    0  502  501  0.00000000000E+00  0.00000000000E+00  0.54166057138E+02  0.54166057138E+02  0.00000000000E+00 0. -1.
         21   -1    0    0  501  502 -0.00000000000E+00 -0.00000000000E+00 -0.22767067289E+04  0.22767067289E+04  0.00000000000E+00 0. -1.
         25    1    1    2    0    0 -0.18211067725E+02  0.31872399853E+03 -0.13635502096E+04  0.14059910399E+04  0.12500000000E+03 0.  0.
         25    1    1    2    0    0  0.18211067725E+02 -0.31872399853E+03 -0.85899046216E+03  0.92488174612E+03  0.12500000000E+03 0.  0.
</event>
<event>
 4    0  0.2193754E-002  0.1989070E+03  0.7546771E-02  0.1150664E+00
         21   -1    0    0  502  501  0.00000000000E+00  0.00000000000E+00  0.16986960815E+03  0.16986960815E+03  0.00000000000E+00 0. -1.
         21   -1    0    0  501  502 -0.00000000000E+00 -0.00000000000E+00 -0.23290803764E+03  0.23290803764E+03  0.00000000000E+00 0. -1.
         25    1    1    2    0    0  0.40757115721E+02 -0.35466128210E+02 -0.17831099078E+03  0.22436309448E+03  0.12500000000E+03 0.  0.
         25    1    1    2    0    0 -0.40757115721E+02  0.35466128210E+02  0.11527256129E+03  0.17841455131E+03  0.12500000000E+03 0.  0.
</event>
<event>
 4    0  0.2193754E-002  0.5186022E+03  0.7546771E-02  0.1009034E+00
         21   -1    0    0  502  501  0.00000000000E+00  0.00000000000E+00  0.11826096653E+04  0.11826096653E+04  0.00000000000E+00 0. -1.
         21   -1    0    0  501  502 -0.00000000000E+00 -0.00000000000E+00 -0.22741924671E+03  0.22741924671E+03  0.00000000000E+00 0. -1.
         25    1    1    2    0    0  0.49397736693E+03  0.46492620719E+02  0.59253115266E+03  0.78287506647E+03  0.12500000000E+03 0.  0.
         25    1    1    2    0    0 -0.49397736693E+03 -0.46492620719E+02  0.36265926593E+03  0.62715384555E+03  0.12500000000E+03 0.  0.
</event>
<event>
 4    0  0.2193754E-002  0.2210217E+03  0.7546771E-02  0.1133124E+00
         21   -1    0    0  502  501  0.00000000000E+00  0.00000000000E+00  0.43713383074E+03  0.43713383074E+03  0.00000000000E+00 0.  1.
         21   -1    0    0  501  502 -0.00000000000E+00 -0.00000000000E+00 -0.11175206163E+03  0.11175206163E+03  0.00000000000E+00 0.  1.
         25    1    1    2    0    0 -0.16281116075E+03 -0.75014798845E+02  0.12167877708E+03  0.25013080359E+03  0.12500000000E+03 0.  0.
         25    1    1    2    0    0  0.16281116075E+03  0.75014798845E+02  0.20370299203E+03  0.29875508878E+03  0.12500000000E+03 0.  0.
</event>
<event>
 4    0  0.2193754E-002  0.2371066E+03  0.7546771E-02  0.1121735E+00
         21   -1    0    0  502  501  0.00000000000E+00  0.00000000000E+00  0.21996766258E+03  0.21996766258E+03  0.00000000000E+00 0.  1.
         21   -1    0    0  501  502 -0.00000000000E+00 -0.00000000000E+00 -0.25558096470E+03  0.25558096470E+03  0.00000000000E+00 0.  1.
         25    1    1    2    0    0  0.78118093560E+02  0.63430102852E+02 -0.19285114768E+03  0.25088319922E+03  0.12500000000E+03 0.  0.
         25    1    1    2    0    0 -0.78118093560E+02 -0.63430102852E+02  0.15723784555E+03  0.22466542806E+03  0.12500000000E+03 0.  0.
</event>
<event>
 4    0  0.2193754E-002  0.2248358E+03  0.7546771E-02  0.1130328E+00
         21   -1    0    0  502  501  0.00000000000E+00  0.00000000000E+00  0.13441953496E+03  0.13441953496E+03  0.00000000000E+00 0.  1.
         21   -1    0    0  501  502 -0.00000000000E+00 -0.00000000000E+00 -0.37606986649E+03  0.37606986649E+03  0.00000000000E+00 0.  1.
         25    1    1    2    0    0  0.72061697773E+02  0.43367505815E+02 -0.31028773556E+03  0.34493058387E+03  0.12500000000E+03 0.  0.
         25    1    1    2    0    0 -0.72061697773E+02 -0.43367505815E+02  0.68637404028E+02  0.16555881758E+03  0.12500000000E+03 0.  0.
</event>
<event>
 4    0  0.2193754E-002  0.2014098E+03  0.7546771E-02  0.1148555E+00
         21   -1    0    0  502  501  0.00000000000E+00  0.00000000000E+00  0.10099673162E+03  0.10099673162E+03  0.00000000000E+00 0. -1.
         21   -1    0    0  501  502 -0.00000000000E+00 -0.00000000000E+00 -0.40165546435E+03  0.40165546435E+03  0.00000000000E+00 0. -1.
         25    1    1    2    0    0 -0.43787959598E+02  0.45260287740E+02  0.30391449279E+02  0.14322890505E+03  0.12500000000E+03 0.  0.
         25    1    1    2    0    0  0.43787959598E+02 -0.45260287740E+02 -0.33105018200E+03  0.35942329092E+03  0.12500000000E+03 0.  0.
</event>
<event>
 4    0  0.2193754E-002  0.1743396E+03  0.7546771E-02  0.1173396E+00
         21   -1    0    0  502  501  0.00000000000E+00  0.00000000000E+00  0.14791839423E+03  0.14791839423E+03  0.00000000000E+00 0.  1.
         21   -1    0    0  501  502 -0.00000000000E+00 -0.00000000000E+00 -0.20548021658E+03  0.20548021658E+03  0.00000000000E+00 0.  1.
         25    1    1    2    0    0 -0.71463220143E+01  0.10358126548E+03 -0.92795536817E+02  0.18712605412E+03  0.12500000000E+03 0.  0.
         25    1    1    2    0    0  0.71463220143E+01 -0.10358126548E+03  0.35233714470E+02  0.16627255670E+03  0.12500000000E+03 0.  0.
</event>
<event>
 4    0  0.2193754E-002  0.2323991E+03  0.7546771E-02  0.1124962E+00
         21   -1    0    0  502  501  0.00000000000E+00  0.00000000000E+00  0.36866689243E+02  0.36866689243E+02  0.00000000000E+00 0.  1.
         21   -1    0    0  501  502 -0.00000000000E+00 -0.00000000000E+00 -0.14649904708E+04  0.14649904708E+04  0.00000000000E+00 0.  1.
         25    1    1    2    0    0  0.12381799107E+03  0.14871832434E+03 -0.61518955077E+03  0.65691035788E+03  0.12500000000E+03 0.  0.
         25    1    1    2    0    0 -0.12381799107E+03 -0.14871832434E+03 -0.81293423075E+03  0.84494680214E+03  0.12500000000E+03 0.  0.
</event>
<event>
 4    0  0.2193754E-002  0.1996965E+03  0.7546771E-02  0.1149995E+00
         21   -1    0    0  502  501  0.00000000000E+00  0.00000000000E+00  0.11366249217E+03  0.11366249217E+03  0.00000000000E+00 0. -1.
         21   -1    0    0  501  502 -0.00000000000E+00 -0.00000000000E+00 -0.35085167185E+03  0.35085167185E+03  0.00000000000E+00 0. -1.
         25    1    1    2    0    0 -0.16701216552E+02  0.50014383884E+02  0.51836201863E+02  0.14523209374E+03  0.12500000000E+03 0.  0.
         25    1    1    2    0    0  0.16701216552E+02 -0.50014383884E+02 -0.28902538154E+03  0.31928207028E+03  0.12500000000E+03 0.  0.
</event>
<event>
 4    0  0.2193754E-002  0.1822939E+03  0.7546771E-02  0.1165601E+00
         21   -1    0    0  502  501  0.00000000000E+00  0.00000000000E+00  0.14700880699E+02  0.14700880699E+02  0.00000000000E+00 0. -1.
         21   -1    0    0  501  502 -0.00000000000E+00 -0.00000000000E+00 -0.22604806781E+04  0.22604806781E+04  0.00000000000E+00 0. -1.
         25    1    1    2    0    0  0.48835455820E+02 -0.12030898249E+03 -0.95234202481E+03  0.96924686496E+03  0.12500000000E+03 0.  0.
         25    1    1    2    0    0 -0.48835455820E+02  0.12030898249E+03 -0.12934377726E+04  0.13059346938E+04  0.12500000000E+03 0.  0.
</event>
<event>
 4    0  0.2193754E-002  0.1883307E+03  0.7546771E-02  0.1159976E+00
         21   -1    0    0  502  501  0.00000000000E+00  0.00000000000E+00  0.69476297651E+02  0.69476297651E+02  0.00000000000E+00 0.  1.
         21   -1    0    0  501  502 -0.00000000000E+00 -0.00000000000E+00 -0.51051129115E+03  0.51051129115E+03  0.00000000000E+00 0.  1.
         25    1    1    2    0    0 -0.65665328074E+01  0.13358862504E+03 -0.28859032445E+03  0.34175783160E+03  0.12500000000E+03 0.  0.
         25    1    1    2    0    0  0.65665328074E+01 -0.13358862504E+03 -0.15244466904E+03  0.23822975720E+03  0.12500000000E+03 0.  0.
</event>
<event>
 4    0  0.2193754E-002  0.2089254E+03  0.7546771E-02  0.1142420E+00
         21   -1    0    0  502  501  0.00000000000E+00  0.00000000000E+00  0.41269153224E+02  0.41269153224E+02  0.00000000000E+00 0. -1.
         21   -1    0    0  501  502 -0.00000000000E+00 -0.00000000000E+00 -0.10576865573E+04  0.10576865573E+04  0.00000000000E+00 0. -1.
         25    1    1    2    0    0  0.39786234369E+02  0.87931849117E+02 -0.86795336134E+03  0.88220348672E+03  0.12500000000E+03 0.  0.
         25    1    1    2    0    0 -0.39786234369E+02 -0.87931849117E+02 -0.14846404274E+03  0.21675222379E+03  0.12500000000E+03 0.  0.
</event>
<event>
 4    0  0.2193754E-002  0.1733439E+03  0.7546771E-02  0.1174405E+00
         21   -1    0    0  502  501  0.00000000000E+00  0.00000000000E+00  0.13362714848E+04  0.13362714848E+04  0.00000000000E+00 0.  1.
         21   -1    0    0  501  502 -0.00000000000E+00 -0.00000000000E+00 -0.22486541334E+02  0.22486541334E+02  0.00000000000E+00 0.  1.
         25    1    1    2    0    0 -0.22870401461E+02  0.96581177628E+02  0.39188175568E+03  0.42313979908E+03  0.12500000000E+03 0.  0.
         25    1    1    2    0    0  0.22870401461E+02 -0.96581177628E+02  0.92190318779E+03  0.93561822705E+03  0.12500000000E+03 0.  0.
</event>
<event>
 4    0  0.2193754E-002  0.2182577E+03  0.7546771E-02  0.1135189E+00
         21   -1    0    0  502  501  0.00000000000E+00  0.00000000000E+00  0.41281997158E+03  0.41281997158E+03  0.00000000000E+00 0. -1.
         21   -1    0    0  501  502 -0.00000000000E+00 -0.00000000000E+00 -0.11539273538E+03  0.11539273538E+03  0.00000000000E+00 0. -1.
         25    1    1    2    0    0  0.66942255607E+02  0.38872804645E+02 -0.46475278830E+02  0.15419893667E+03  0.12500000000E+03 0.  0.
         25    1    1    2    0    0 -0.66942255607E+02 -0.38872804645E+02  0.34390251503E+03  0.37401377030E+03  0.12500000000E+03 0.  0.
</event>
<event>
 4    0  0.2193754E-002  0.2106003E+03  0.7546771E-02  0.1141091E+00
         21   -1    0    0  502  501  0.00000000000E+00  0.00000000000E+00  0.18736676310E+02  0.18736676310E+02  0.00000000000E+00 0.  1.
         21   -1    0    0  501  502 -0.00000000000E+00 -0.00000000000E+00 -0.23671488377E+04  0.23671488377E+04  0.00000000000E+00 0.  1.
         25    1    1    2    0    0 -0.78428315229E+02 -0.12608777888E+03 -0.16371153514E+04  0.16485814516E+04  0.12500000000E+03 0.  0.
         25    1    1    2    0    0  0.78428315229E+02  0.12608777888E+03 -0.71129680997E+03  0.73730406244E+03  0.12500000000E+03 0.  0.
</event>
<event>
 4    0  0.2193754E-002  0.1543778E+03  0.7546771E-02  0.1195195E+00
         21   -1    0    0  502  501  0.00000000000E+00  0.00000000000E+00  0.14234387295E+03  0.14234387295E+03  0.00000000000E+00 0.  1.
         21   -1    0    0  501  502 -0.00000000000E+00 -0.00000000000E+00 -0.16742904549E+03  0.16742904549E+03  0.00000000000E+00 0.  1.
         25    1    1    2    0    0 -0.17236390463E+02 -0.68757559822E+02  0.44059648930E+02  0.15030285377E+03  0.12500000000E+03 0.  0.
         25    1    1    2    0    0  0.17236390463E+02  0.68757559822E+02 -0.69144821471E+02  0.15947006467E+03  0.12500000000E+03 0.  0.
</event>
<event>
 4    0  0.2193754E-002  0.2516017E+03  0.7546771E-02  0.1112297E+00
         21   -1    0    0  502  501  0.00000000000E+00  0.00000000000E+00  0.63325737665E+02  0.63325737665E+02  0.00000000000E+00 0.  1.
         21   -1    0    0  501  502 -0.00000000000E+00 -0.00000000000E+00 -0.99964746818E+03  0.99964746818E+03  0.00000000000E+00 0.  1.
         25    1    1    2    0    0 -0.11771955272E+03 -0.93081185313E+02 -0.13311588358E+03  0.23636166909E+03  0.12500000000E+03 0.  0.
         25    1    1    2    0    0  0.11771955272E+03  0.93081185313E+02 -0.80320584693E+03  0.82661153675E+03  0.12500000000E+03 0.  0.
</event>
<event>
 4    0  0.2193754E-002  0.2124692E+03  0.7546771E-02  0.1139625E+00
         21   -1    0    0  502  501  0.00000000000E+00  0.00000000000E+00  0.47610862704E+03  0.47610862704E+03  0.00000000000E+00 0. -1.
         21   -1    0    0  501  502 -0.00000000000E+00 -0.00000000000E+00 -0.94816941546E+02  0.94816941546E+02  0.00000000000E+00 0. -1.
         25    1    1    2    0    0 -0.15691268608E+03  0.62357658301E+02  0.23330421568E+03  0.31395210727E+03  0.12500000000E+03 0.  0.
         25    1    1    2    0    0  0.15691268608E+03 -0.62357658301E+02  0.14798746982E+03  0.25697346133E+03  0.12500000000E+03 0.  0.
</event>
<event>
 4    0  0.2193754E-002  0.2355014E+03  0.7546771E-02  0.1122826E+00
         21   -1    0    0  502  501  0.00000000000E+00  0.00000000000E+00  0.17908702421E+04  0.17908702421E+04  0.00000000000E+00 0. -1.
         21   -1    0    0  501  502 -0.00000000000E+00 -0.00000000000E+00 -0.30968680316E+02  0.30968680316E+02  0.00000000000E+00 0. -1.
         25    1    1    2    0    0  0.16018468280E+03 -0.11537706209E+03  0.99370479918E+03  0.10208061652E+04  0.12500000000E+03 0.  0.
         25    1    1    2    0    0 -0.16018468280E+03  0.11537706209E+03  0.76619676262E+03  0.80103275720E+03  0.12500000000E+03 0.  0.
</event>
<event>
 4    0  0.2193754E-002  0.3422172E+03  0.7546771E-02  0.1065855E+00
         21   -1    0    0  502  501  0.00000000000E+00  0.00000000000E+00  0.25738105676E+03  0.25738105676E+03  0.00000000000E+00 0. -1.
         21   -1    0    0  501  502 -0.00000000000E+00 -0.00000000000E+00 -0.45501657014E+03  0.45501657014E+03  0.00000000000E+00 0. -1.
         25    1    1    2    0    0 -0.21875178256E+02 -0.52050236008E+02  0.22751983163E+03  0.26566524853E+03  0.12500000000E+03 0.  0.
         25    1    1    2    0    0  0.21875178256E+02  0.52050236008E+02 -0.42515534501E+03  0.44673237837E+03  0.12500000000E+03 0.  0.
</event>
<event>
 4    0  0.2193754E-002  0.2247078E+03  0.7546771E-02  0.1130421E+00
         21   -1    0    0  502  501  0.00000000000E+00  0.00000000000E+00  0.31619431925E+03  0.31619431925E+03  0.00000000000E+00 0. -1.
         21   -1    0    0  501  502 -0.00000000000E+00 -0.00000000000E+00 -0.15969172294E+03  0.15969172294E+03  0.00000000000E+00 0. -1.
         25    1    1    2    0    0 -0.77290424250E+02 -0.10865950845E+03  0.21667144372E+03  0.28346465914E+03  0.12500000000E+03 0.  0.
         25    1    1    2    0    0  0.77290424250E+02  0.10865950845E+03 -0.60168847416E+02  0.19242138305E+03  0.12500000000E+03 0.  0.
</event>
<event>
 4    0  0.2193754E-002  0.2712293E+03  0.7546771E-02  0.1100578E+00
         21   -1    0    0  502  501  0.00000000000E+00  0.00000000000E+00  0.69327224274E+03  0.69327224274E+03  0.00000000000E+00 0.  1.
         21   -1    0    0  501  502 -0.00000000000E+00 -0.00000000000E+00 -0.10611323227E+03  0.10611323227E+03  0.00000000000E+00 0.  1.
         25    1    1    2    0    0 -0.62096812627E+02  0.16422089664E+03  0.53624114190E+03  0.57793086031E+03  0.12500000000E+03 0.  0.
         25    1    1    2    0    0  0.62096812627E+02 -0.16422089664E+03  0.50917868563E+02  0.22145461470E+03  0.12500000000E+03 0.  0.
</event>
<event>
 4    0  0.2193754E-002  0.1885362E+03  0.7546771E-02  0.1159788E+00
         21   -1    0    0  502  501  0.00000000000E+00  0.00000000000E+00  0.30983618762E+03  0.30983618762E+03  0.00000000000E+00 0.  1.
         21   -1    0    0  501  502 -0.00000000000E+00 -0.00000000000E+00 -0.11472482229E+03  0.11472482229E+03  0.00000000000E+00 0.  1.
         25    1    1    2    0    0  0.13237423423E+03  0.35086300653E+02  0.13601795959E+03  0.22995623869E+03  0.12500000000E+03 0.  0.
         25    1    1    2    0    0 -0.13237423423E+03 -0.35086300653E+02  0.59093405743E+02  0.19460477123E+03  0.12500000000E+03 0.  0.
</event>
<event>
 4    0  0.2193754E-002  0.2289722E+03  0.7546771E-02  0.1127365E+00
         21   -1    0    0  502  501  0.00000000000E+00  0.00000000000E+00  0.76944547018E+02  0.76944547018E+02  0.00000000000E+00 0. -1.
         21   -1    0    0  501  502 -0.00000000000E+00 -0.00000000000E+00 -0.68137759894E+03  0.68137759894E+03  0.00000000000E+00 0. -1.
         25    1    1    2    0    0 -0.56231491464E+02  0.16695515511E+03 -0.42797192738E+03  0.47939646961E+03  0.12500000000E+03 0.  0.
         25    1    1    2    0    0  0.56231491464E+02 -0.16695515511E+03 -0.17646112454E+03  0.27892567635E+03  0.12500000000E+03 0.  0.
</event>
<event>
 4    0  0.2193754E-002  0.2019611E+03  0.7546771E-02  0.1148095E+00
         21   -1    0    0  502  501  0.00000000000E+00  0.00000000000E+00  0.42561434784E+03  0.42561434784E+03  0.00000000000E+00 0. -1.
         21   -1    0    0  501  502 -0.00000000000E+00 -0.00000000000E+00 -0.95833903520E+02  0.95833903520E+02  0.00000000000E+00 0. -1.
         25    1    1    2    0    0  0.84349157182E+01  0.13227540871E+03  0.52381167342E+02  0.18956982419E+03  0.12500000000E+03 0.  0.
         25    1    1    2    0    0 -0.84349157182E+01 -0.13227540871E+03  0.27739927698E+03  0.33187842717E+03  0.12500000000E+03 0.  0.
</event>
<event>
 4    0  0.2193754E-002  0.1886158E+03  0.7546771E-02  0.1159716E+00
         21   -1    0    0  502  501  0.00000000000E+00  0.00000000000E+00  0.40247496407E+02  0.40247496407E+02  0.00000000000E+00 0.  1.
         21   -1    0    0  501  502 -0.00000000000E+00 -0.00000000000E+00 -0.88392886000E+03  0.88392886000E+03  0.00000000000E+00 0.  1.
         25    1    1    2    0    0 -0.12118534612E+03  0.72412689849E+02 -0.43318392929E+03  0.47244343827E+03  0.12500000000E+03 0.  0.
         25    1    1    2    0    0  0.12118534612E+03 -0.72412689849E+02 -0.41049743430E+03  0.45173291814E+03  0.12500000000E+03 0.  0.
</event>
<event>
 4    0  0.2193754E-002  0.2840664E+03  0.7546771E-02  0.1093488E+00
         21   -1    0    0  502  501  0.00000000000E+00  0.00000000000E+00  0.43822443809E+03  0.43822443809E+03  0.00000000000E+00 0.  1.
         21   -1    0    0  501  502 -0.00000000000E+00 -0.00000000000E+00 -0.18413793456E+03  0.18413793456E+03  0.00000000000E+00 0.  1.
         25    1    1    2    0    0 -0.31192843602E+02  0.22063421501E+03  0.26305717697E+03  0.36671041528E+03  0.12500000000E+03 0.  0.
         25    1    1    2    0    0  0.31192843602E+02 -0.22063421501E+03 -0.89706734270E+01  0.25565195737E+03  0.12500000000E+03 0.  0.
</event>
<event>
 4    0  0.2193754E-002  0.2365442E+03  0.7546771E-02  0.1122117E+00
         21   -1    0    0  502  501  0.00000000000E+00  0.00000000000E+00  0.11146763875E+04  0.11146763875E+04  0.00000000000E+00 0.  1.
         21   -1    0    0  501  502 -0.00000000000E+00 -0.00000000000E+00 -0.50196764347E+02  0.50196764347E+02  0.00000000000E+00 0.  1.
         25    1    1    2    0    0 -0.93990194394E+02  0.22527498738E+02  0.98806125345E+02  0.18635797608E+03  0.12500000000E+03 0.  0.
         25    1    1    2    0    0  0.93990194394E+02 -0.22527498738E+02  0.96567349780E+03  0.97851517576E+03  0.12500000000E+03 0.  0.
</event>
<event>
 4    0  0.2193754E-002  0.3658435E+03  0.7546771E-02  0.1056294E+00
         21   -1    0    0  502  501  0.00000000000E+00  0.00000000000E+00  0.49623867397E+03  0.49623867397E+03  0.00000000000E+00 0.  1.
         21   -1    0    0  501  502 -0.00000000000E+00 -0.00000000000E+00 -0.26971188403E+03  0.26971188403E+03  0.00000000000E+00 0.  1.
         25    1    1    2    0    0 -0.26953627501E+03 -0.34661936371E+02 -0.10723056024E+03  0.31776508057E+03  0.12500000000E+03 0.  0.
         25    1    1    2    0    0  0.26953627501E+03  0.34661936371E+02  0.33375735018E+03  0.44818547743E+03  0.12500000000E+03 0.  0.
</event>
<event>
 4    0  0.2193754E-002  0.2262881E+03  0.7546771E-02  0.1129280E+00
         21   -1    0    0  502  501  0.00000000000E+00  0.00000000000E+00  0.35967408030E+02  0.35967408030E+02  0.00000000000E+00 0. -1.
         21   -1    0    0  501  502 -0.00000000000E+00 -0.00000000000E+00 -0.14236862971E+04  0.14236862971E+04  0.00000000000E+00 0. -1.
         25    1    1    2    0    0 -0.28000273484E+02 -0.17494276651E+03 -0.48503310300E+03  0.53129191399E+03  0.12500000000E+03 0.  0.
         25    1    1    2    0    0  0.28000273484E+02  0.17494276651E+03 -0.90268578610E+03  0.92836179117E+03  0.12500000000E+03 0.  0.
</event>
<event>
 4    0  0.2193754E-002  0.2578287E+03  0.7546771E-02  0.1108455E+00
         21   -1    0    0  502  501  0.00000000000E+00  0.00000000000E+00  0.57950655397E+02  0.57950655397E+02  0.00000000000E+00 0. -1.
         21   -1    0    0  501  502 -0.00000000000E+00 -0.00000000000E+00 -0.11471076403E+04  0.11471076403E+04  0.00000000000E+00 0. -1.
         25    1    1    2    0    0 -0.42701373453E+01 -0.21766156300E+03 -0.40719827210E+03  0.47836202074E+03  0.12500000000E+03 0.  0.
         25    1    1    2    0    0  0.42701373453E+01  0.21766156300E+03 -0.68195871279E+03  0.72669627495E+03  0.12500000000E+03 0.  0.
</event>
<event>
 4    0  0.2193754E-002  0.2981342E+03  0.7546771E-02  0.1086177E+00
         21   -1    0    0  502  501  0.00000000000E+00  0.00000000000E+00  0.15361693276E+03  0.15361693276E+03  0.00000000000E+00 0. -1.
         21   -1    0    0  501  502 -0.00000000000E+00 -0.00000000000E+00 -0.57860813952E+03  0.57860813952E+03  0.00000000000E+00 0. -1.
         25    1    1    2    0    0 -0.58059065744E+02 -0.21211028985E+03 -0.18728704882E+02  0.25364817082E+03  0.12500000000E+03 0.  0.
         25    1    1    2    0    0  0.58059065744E+02  0.21211028985E+03 -0.40626250188E+03  0.47857690146E+03  0.12500000000E+03 0.  0.
</event>
<event>
 4    0  0.2193754E-002  0.2162099E+03  0.7546771E-02  0.1136741E+00
         21   -1    0    0  502  501  0.00000000000E+00  0.00000000000E+00  0.77936622880E+03  0.77936622880E+03  0.00000000000E+00 0. -1.
         21   -1    0    0  501  502 -0.00000000000E+00 -0.00000000000E+00 -0.59980402601E+02  0.59980402601E+02  0.00000000000E+00 0. -1.
         25    1    1    2    0    0  0.86541253418E+02  0.15789883626E+02  0.62877868966E+02  0.16527956732E+03  0.12500000000E+03 0.  0.
         25    1    1    2    0    0 -0.86541253418E+02 -0.15789883626E+02  0.65650795723E+03  0.67406706408E+03  0.12500000000E+03 0.  0.
</event>
<event>
 4    0  0.2193754E-002  0.1832007E+03  0.7546771E-02  0.1164741E+00
         21   -1    0    0  502  501  0.00000000000E+00  0.00000000000E+00  0.83978424757E+02  0.83978424757E+02  0.00000000000E+00 0.  1.
         21   -1    0    0  501  502 -0.00000000000E+00 -0.00000000000E+00 -0.39965617583E+03  0.39965617583E+03  0.00000000000E+00 0.  1.
         25    1    1    2    0    0 -0.52264420173E+02 -0.10564427885E+03 -0.24179085288E+03  0.29661439581E+03  0.12500000000E+03 0.  0.
         25    1    1    2    0    0  0.52264420173E+02  0.10564427885E+03 -0.73886898202E+02  0.18702020478E+03  0.12500000000E+03 0.  0.
</event>
<event>
 4    0  0.2193754E-002  0.1536199E+03  0.7546771E-02  0.1196094E+00
         21   -1    0    0  502  501  0.00000000000E+00  0.00000000000E+00  0.24622884705E+03  0.24622884705E+03  0.00000000000E+00 0.  1.
         21   -1    0    0  501  502 -0.00000000000E+00 -0.00000000000E+00 -0.95842002811E+02  0.95842002811E+02  0.00000000000E+00 0.  1.
         25    1    1    2    0    0 -0.47562623800E+02  0.31218557493E+02  0.15182406593E+03  0.20472505589E+03  0.12500000000E+03 0.  0.
         25    1    1    2    0    0  0.47562623800E+02 -0.31218557493E+02 -0.14372216911E+01  0.13734579397E+03  0.12500000000E+03 0.  0.
</event>
<event>
 4    0  0.2193754E-002  0.2101935E+03  0.7546771E-02  0.1141413E+00
         21   -1    0    0  502  501  0.00000000000E+00  0.00000000000E+00  0.66611214511E+02  0.66611214511E+02  0.00000000000E+00 0.  1.
         21   -1    0    0  501  502 -0.00000000000E+00 -0.00000000000E+00 -0.66327134301E+03  0.66327134301E+03  0.00000000000E+00 0.  1.
         25    1    1    2    0    0 -0.64118320026E+02  0.12446282288E+03 -0.13403820819E+03  0.23063693220E+03  0.12500000000E+03 0.  0.
         25    1    1    2    0    0  0.64118320026E+02 -0.12446282288E+03 -0.46262192032E+03  0.49924562532E+03  0.12500000000E+03 0.  0.
</event>
<event>
 4    0  0.2193754E-002  0.2153333E+03  0.7546771E-02  0.1137411E+00
         21   -1    0    0  502  501  0.00000000000E+00  0.00000000000E+00  0.28721943047E+03  0.28721943047E+03  0.00000000000E+00 0.  1.
         21   -1    0    0  501  502 -0.00000000000E+00 -0.00000000000E+00 -0.16143897911E+03  0.16143897911E+03  0.00000000000E+00 0.  1.
         25    1    1    2    0    0  0.82996055039E+02  0.19086040695E+02  0.22256029510E+03  0.26909237644E+03  0.12500000000E+03 0.  0.
         25    1    1    2    0    0 -0.82996055039E+02 -0.19086040695E+02 -0.96779843741E+02  0.17956603314E+03  0.12500000000E+03 0.  0.
</event>
<event>
 4    0  0.2193754E-002  0.1956288E+03  0.7546771E-02  0.1153480E+00
         21   -1    0    0  502  501  0.00000000000E+00  0.00000000000E+00  0.46705431453E+02  0.46705431453E+02  0.00000000000E+00 0.  1.
         21   -1    0    0  501  502 -0.00000000000E+00 -0.00000000000E+00 -0.81940461359E+03  0.81940461359E+03  0.00000000000E+00 0.  1.
         25    1    1    2    0    0  0.10233360099E+03  0.11023080328E+03 -0.37581432486E+03  0.42365599565E+03  0.12500000000E+03 0.  0.
         25    1    1    2    0    0 -0.10233360099E+03 -0.11023080328E+03 -0.39688485728E+03  0.44245404939E+03  0.12500000000E+03 0.  0.
</event>
<event>
 4    0  0.2193754E-002  0.1794038E+03  0.7546771E-02  0.1168381E+00
         21   -1    0    0  502  501  0.00000000000E+00  0.00000000000E+00  0.12569138680E+03  0.12569138680E+03  0.00000000000E+00 0. -1.
         21   -1    0    0  501  502 -0.00000000000E+00 -0.00000000000E+00 -0.25606930687E+03  0.25606930687E+03  0.00000000000E+00 0. -1.
         25    1    1    2    0    0  0.60099607643E+02 -0.68443497989E+02  0.31534298369E+02  0.15784767097E+03  0.12500000000E+03 0.  0.
         25    1    1    2    0    0 -0.60099607643E+02  0.68443497989E+02 -0.16191221843E+03  0.22391302270E+03  0.12500000000E+03 0.  0.
</event>
<event>
 4    0  0.2193754E-002  0.2280691E+03  0.7546771E-02  0.1128006E+00
         21   -1    0    0  502  501  0.00000000000E+00  0.00000000000E+00  0.20338095309E+03  0.20338095309E+03  0.00000000000E+00 0. -1.
         21   -1    0    0  501  502 -0.00000000000E+00 -0.00000000000E+00 -0.25575400887E+03  0.25575400887E+03  0.00000000000E+00 0. -1.
         25    1    1    2    0    0 -0.14748590595E+03  0.74021068524E+02 -0.12251945235E+03  0.24055607920E+03  0.12500000000E+03 0.  0.
         25    1    1    2    0    0  0.14748590595E+03 -0.74021068524E+02  0.70146396569E+02  0.21857888276E+03  0.12500000000E+03 0.  0.
</event>
<event>
 4    0  0.2193754E-002  0.1727836E+03  0.7546771E-02  0.1174976E+00
         21   -1    0    0  502  501  0.00000000000E+00  0.00000000000E+00  0.35562506502E+02  0.35562506502E+02  0.00000000000E+00 0.  1.
         21   -1    0    0  501  502 -0.00000000000E+00 -0.00000000000E+00 -0.83948493551E+03  0.83948493551E+03  0.00000000000E+00 0.  1.
         25    1    1    2    0    0 -0.18464107094E+02  0.26898206996E+02 -0.69250079472E+03  0.70444786002E+03  0.12500000000E+03 0.  0.
         25    1    1    2    0    0  0.18464107094E+02 -0.26898206996E+02 -0.11142163428E+03  0.17059958199E+03  0.12500000000E+03 0.  0.
</event>
<event>
 4    0  0.2193754E-002  0.1473238E+03  0.7546771E-02  0.1203801E+00
         21   -1    0    0  502  501  0.00000000000E+00  0.00000000000E+00  0.25144520668E+03  0.25144520668E+03  0.00000000000E+00 0. -1.
         21   -1    0    0  501  502 -0.00000000000E+00 -0.00000000000E+00 -0.86318214125E+02  0.86318214125E+02  0.00000000000E+00 0. -1.
         25    1    1    2    0    0 -0.62896107900E+02  0.78190177075E+01  0.13462056556E+03  0.19433155714E+03  0.12500000000E+03 0.  0.
         25    1    1    2    0    0  0.62896107900E+02 -0.78190177075E+01  0.30506426989E+02  0.14343186367E+03  0.12500000000E+03 0.  0.
</event>
<event>
 4    0  0.2193754E-002  0.2253883E+03  0.7546771E-02  0.1129928E+00
         21   -1    0    0  502  501  0.00000000000E+00  0.00000000000E+00  0.65488404153E+02  0.65488404153E+02  0.00000000000E+00 0.  1.
         21   -1    0    0  501  502 -0.00000000000E+00 -0.00000000000E+00 -0.77570803819E+03  0.77570803819E+03  0.00000000000E+00 0.  1.
         25    1    1    2    0    0 -0.10067979734E+03 -0.87418026508E+02 -0.10897807312E+03  0.21278992780E+03  0.12500000000E+03 0.  0.
         25    1    1    2    0    0  0.10067979734E+03  0.87418026508E+02 -0.60124156092E+03  0.62840651455E+03  0.12500000000E+03 0.  0.
</event>
<event>
 4    0  0.2193754E-002  0.2189000E+03  0.7546771E-02  0.1134706E+00
         21   -1    0    0  502  501  0.00000000000E+00  0.00000000000E+00  0.28145559663E+03  0.28145559663E+03  0.00000000000E+00 0.  1.
         21   -1    0    0  501  502 -0.00000000000E+00 -0.00000000000E+00 -0.17024787851E+03  0.17024787851E+03  0.00000000000E+00 0.  1.
         25    1    1    2    0    0 -0.63645553499E+02  0.60991451903E+02  0.21717031324E+03  0.26562879859E+03  0.12500000000E+03 0.  0.
         25    1    1    2    0    0  0.63645553499E+02 -0.60991451903E+02 -0.10596259513E+03  0.18607467655E+03  0.12500000000E+03 0.  0.
</event>
<event>
 4    0  0.2193754E-002  0.2599353E+03  0.7546771E-02  0.1107182E+00
         21   -1    0    0  502  501  0.00000000000E+00  0.00000000000E+00  0.20457033858E+03  0.20457033858E+03  0.00000000000E+00 0.  1.
         21   -1    0    0  501  502 -0.00000000000E+00 -0.00000000000E+00 -0.33028436903E+03  0.33028436903E+03  0.00000000000E+00 0.  1.
         25    1    1    2    0    0 -0.67884402547E+02 -0.21206495566E+03 -0.12860602678E+02  0.25567603062E+03  0.12500000000E+03 0.  0.
         25    1    1    2    0    0  0.67884402547E+02  0.21206495566E+03 -0.11285342776E+03  0.27917867699E+03  0.12500000000E+03 0.  0.
</event>
<event>
 4    0  0.2193754E-002  0.3497910E+03  0.7546771E-02  0.1062701E+00
         21   -1    0    0  502  501  0.00000000000E+00  0.00000000000E+00  0.11951276606E+04  0.11951276606E+04  0.00000000000E+00 0. -1.
         21   -1    0    0  501  502 -0.00000000000E+00 -0.00000000000E+00 -0.10237711691E+03  0.10237711691E+03  0.00000000000E+00 0. -1.
         25    1    1    2    0    0 -0.26479958504E+03 -0.19047925170E+03  0.51280808719E+03  0.62048231228E+03  0.12500000000E+03 0.  0.
         25    1    1    2    0    0  0.26479958504E+03  0.19047925170E+03  0.57994245654E+03  0.67702246526E+03  0.12500000000E+03 0.  0.
</event>
<event>
 4    0  0.2193754E-002  0.1821075E+03  0.7546771E-02  0.1165779E+00
         21   -1    0    0  502  501  0.00000000000E+00  0.00000000000E+00  0.58384442622E+02  0.58384442622E+02  0.00000000000E+00 0.  1.
         21   -1    0    0  501  502 -0.00000000000E+00 -0.00000000000E+00 -0.56801323149E+03  0.56801323149E+03  0.00000000000E+00 0.  1.
         25    1    1    2    0    0  0.48615391243E+02 -0.12318349873E+03 -0.25359184514E+03  0.31220418727E+03  0.12500000000E+03 0.  0.
         25    1    1    2    0    0 -0.48615391243E+02  0.12318349873E+03 -0.25603694373E+03  0.31419348685E+03  0.12500000000E+03 0.  0.
</event>
<event>
 4    0  0.2193754E-002  0.1898507E+03  0.7546771E-02  0.1158596E+00
         21   -1    0    0  502  501  0.00000000000E+00  0.00000000000E+00  0.57680164752E+03  0.57680164752E+03  0.00000000000E+00 0. -1.
         21   -1    0    0  501  502 -0.00000000000E+00 -0.00000000000E+00 -0.62488217337E+02  0.62488217337E+02  0.00000000000E+00 0. -1.
         25    1    1    2    0    0  0.85135273488E+02 -0.38529932372E+02  0.43916181169E+03  0.46606938038E+03  0.12500000000E+03 0.  0.
         25    1    1    2    0    0 -0.85135273488E+02  0.38529932372E+02  0.75151618494E+02  0.17322048448E+03  0.12500000000E+03 0.  0.
</event>
<event>
 4    0  0.2193754E-002  0.2289859E+03  0.7546771E-02  0.1127356E+00
         21   -1    0    0  502  501  0.00000000000E+00  0.00000000000E+00  0.27494366780E+03  0.27494366780E+03  0.00000000000E+00 0.  1.
         21   -1    0    0  501  502 -0.00000000000E+00 -0.00000000000E+00 -0.19071011751E+03  0.19071011751E+03  0.00000000000E+00 0.  1.
         25    1    1    2    0    0  0.55839955900E+02 -0.11062523925E+03  0.19104377493E+03  0.25976675725E+03  0.12500000000E+03 0.  0.
         25    1    1    2    0    0 -0.55839955900E+02  0.11062523925E+03 -0.10681022464E+03  0.20588702805E+03  0.12500000000E+03 0.  0.
</event>
<event>
 4    0  0.2193754E-002  0.2499792E+03  0.7546771E-02  0.1113318E+00
         21   -1    0    0  502  501  0.00000000000E+00  0.00000000000E+00  0.16424582836E+03  0.16424582836E+03  0.00000000000E+00 0. -1.
         21   -1    0    0  501  502 -0.00000000000E+00 -0.00000000000E+00 -0.38046393246E+03  0.38046393246E+03  0.00000000000E+00 0. -1.
         25    1    1    2    0    0 -0.20282494525E+03  0.10978765795E+02 -0.26533031539E+02  0.23997394333E+03  0.12500000000E+03 0.  0.
         25    1    1    2    0    0  0.20282494525E+03 -0.10978765795E+02 -0.18968507256E+03  0.30473581750E+03  0.12500000000E+03 0.  0.
</event>
<event>
 4    0  0.2193754E-002  0.2004723E+03  0.7546771E-02  0.1149341E+00
         21   -1    0    0  502  501  0.00000000000E+00  0.00000000000E+00  0.18103201672E+03  0.18103201672E+03  0.00000000000E+00 0. -1.
         21   -1    0    0  501  502 -0.00000000000E+00 -0.00000000000E+00 -0.22200023066E+03  0.22200023066E+03  0.00000000000E+00 0. -1.
         25    1    1    2    0    0 -0.79519670874E+02  0.13213711097E+03 -0.48567995205E+02  0.20437084995E+03  0.12500000000E+03 0.  0.
         25    1    1    2    0    0  0.79519670874E+02 -0.13213711097E+03  0.75997812628E+01  0.19866139742E+03  0.12500000000E+03 0.  0.
</event>
<event>
 4    0  0.2193754E-002  0.3003778E+03  0.7546771E-02  0.1085052E+00
         21   -1    0    0  502  501  0.00000000000E+00  0.00000000000E+00  0.30427641687E+03  0.30427641687E+03  0.00000000000E+00 0. -1.
         21   -1    0    0  501  502 -0.00000000000E+00 -0.00000000000E+00 -0.29652907440E+03  0.29652907440E+03  0.00000000000E+00 0. -1.
         25    1    1    2    0    0 -0.21658310168E+03  0.12377762480E+03 -0.10736805466E+03  0.29896829179E+03  0.12500000000E+03 0.  0.
         25    1    1    2    0    0  0.21658310168E+03 -0.12377762480E+03  0.11511539713E+03  0.30183719948E+03  0.12500000000E+03 0.  0.
</event>
<event>
 4    0  0.2193754E-002  0.1975000E+03  0.7546771E-02  0.1151866E+00
         21   -1    0    0  502  501  0.00000000000E+00  0.00000000000E+00  0.12566329175E+03  0.12566329175E+03  0.00000000000E+00 0.  1.
         21   -1    0    0  501  502 -0.00000000000E+00 -0.00000000000E+00 -0.31040276927E+03  0.31040276927E+03  0.00000000000E+00 0.  1.
         25    1    1    2    0    0  0.51337260667E+02 -0.62418000504E+02 -0.23567150096E+03  0.27874285189E+03  0.12500000000E+03 0.  0.
         25    1    1    2    0    0 -0.51337260667E+02  0.62418000504E+02  0.50932023438E+02  0.15732320913E+03  0.12500000000E+03 0.  0.
</event>
<event>
 4    0  0.2193754E-002  0.2778240E+03  0.7546771E-02  0.1096883E+00
         21   -1    0    0  502  501  0.00000000000E+00  0.00000000000E+00  0.43273279779E+03  0.43273279779E+03  0.00000000000E+00 0.  1.
         21   -1    0    0  501  502 -0.00000000000E+00 -0.00000000000E+00 -0.17836913860E+03  0.17836913860E+03  0.00000000000E+00 0.  1.
         25    1    1    2    0    0  0.18959167218E+03  0.87694817999E+02  0.27443107925E+03  0.36684165592E+03  0.12500000000E+03 0.  0.
         25    1    1    2    0    0 -0.18959167218E+03 -0.87694817999E+02 -0.20067420056E+02  0.24426028046E+03  0.12500000000E+03 0.  0.
</event>
<event>
 4    0  0.2193754E-002  0.1586865E+03  0.7546771E-02  0.1190188E+00
         21   -1    0    0  502  501  0.00000000000E+00  0.00000000000E+00  0.31601885616E+03  0.31601885616E+03  0.00000000000E+00 0.  1.
         21   -1    0    0  501  502 -0.00000000000E+00 -0.00000000000E+00 -0.79683190229E+02  0.79683190229E+02  0.00000000000E+00 0.  1.
         25    1    1    2    0    0  0.79388150683E+02 -0.74627085315E+01  0.47657523192E+02  0.15573827405E+03  0.12500000000E+03 0.  0.
         25    1    1    2    0    0 -0.79388150683E+02  0.74627085315E+01  0.18867814274E+03  0.23996377234E+03  0.12500000000E+03 0.  0.
</event>
<event>
 4    0  0.2193754E-002  0.2514545E+03  0.7546771E-02  0.1112389E+00
         21   -1    0    0  502  501  0.00000000000E+00  0.00000000000E+00  0.51271300664E+03  0.51271300664E+03  0.00000000000E+00 0. -1.
         21   -1    0    0  501  502 -0.00000000000E+00 -0.00000000000E+00 -0.12332306721E+03  0.12332306721E+03  0.00000000000E+00 0. -1.
         25    1    1    2    0    0 -0.12984201842E+03  0.13002930779E+02  0.41584397761E+03  0.45340846890E+03  0.12500000000E+03 0.  0.
         25    1    1    2    0    0  0.12984201842E+03 -0.13002930779E+02 -0.26454038183E+02  0.18262760496E+03  0.12500000000E+03 0.  0.
</event>
<event>
 4    0  0.2193754E-002  0.2097430E+03  0.7546771E-02  0.1141770E+00
         21   -1    0    0  502  501  0.00000000000E+00  0.00000000000E+00  0.90762607598E+02  0.90762607598E+02  0.00000000000E+00 0.  1.
         21   -1    0    0  501  502 -0.00000000000E+00 -0.00000000000E+00 -0.48469447562E+03  0.48469447562E+03  0.00000000000E+00 0.  1.
         25    1    1    2    0    0 -0.12008367267E+02  0.78483094076E+01 -0.42717481144E+03  0.44531911745E+03  0.12500000000E+03 0.  0.
         25    1    1    2    0    0  0.12008367267E+02 -0.78483094076E+01  0.33242943418E+02  0.13013796576E+03  0.12500000000E+03 0.  0.
</event>
<event>
 4    0  0.2193754E-002  0.2940293E+03  0.7546771E-02  0.1088264E+00
         21   -1    0    0  502  501  0.00000000000E+00  0.00000000000E+00  0.97235026750E+03  0.97235026750E+03  0.00000000000E+00 0.  1.
         21   -1    0    0  501  502 -0.00000000000E+00 -0.00000000000E+00 -0.88911595249E+02  0.88911595249E+02  0.00000000000E+00 0.  1.
         25    1    1    2    0    0  0.25012655669E+03 -0.26310991722E+02  0.59876500247E+03  0.66136229922E+03  0.12500000000E+03 0.  0.
         25    1    1    2    0    0 -0.25012655669E+03  0.26310991722E+02  0.28467366978E+03  0.39989956353E+03  0.12500000000E+03 0.  0.
</event>
<event>
 4    0  0.2193754E-002  0.4229545E+03  0.7546771E-02  0.1036109E+00
         21   -1    0    0  502  501  0.00000000000E+00  0.00000000000E+00  0.12400172020E+04  0.12400172020E+04  0.00000000000E+00 0. -1.
         21   -1    0    0  501  502 -0.00000000000E+00 -0.00000000000E+00 -0.14426451416E+03  0.14426451416E+03  0.00000000000E+00 0.  1.
         25    1    1    2    0    0  0.39387448637E+03  0.70855120104E+02  0.63910594978E+03  0.76435526695E+03  0.12500000000E+03 0.  0.
         25    1    1    2    0    0 -0.39387448637E+03 -0.70855120104E+02  0.45664673807E+03  0.61992644922E+03  0.12500000000E+03 0.  0.
</event>
<event>
 4    0  0.2193754E-002  0.2423942E+03  0.7546771E-02  0.1118208E+00
         21   -1    0    0  502  501  0.00000000000E+00  0.00000000000E+00  0.60786432052E+02  0.60786432052E+02  0.00000000000E+00 0.  1.
         21   -1    0    0  501  502 -0.00000000000E+00 -0.00000000000E+00 -0.96657966613E+03  0.96657966613E+03  0.00000000000E+00 0.  1.
         25    1    1    2    0    0 -0.19719400051E+03 -0.53043200240E+02 -0.37273364353E+03  0.44300612179E+03  0.12500000000E+03 0.  0.
         25    1    1    2    0    0  0.19719400051E+03  0.53043200240E+02 -0.53305959055E+03  0.58435997639E+03  0.12500000000E+03 0.  0.
</event>
<event>
 4    0  0.2193754E-002  0.2270895E+03  0.7546771E-02  0.1128705E+00
         21   -1    0    0  502  501  0.00000000000E+00  0.00000000000E+00  0.10993234051E+03  0.10993234051E+03  0.00000000000E+00 0. -1.
         21   -1    0    0  501  502 -0.00000000000E+00 -0.00000000000E+00 -0.46910363336E+03  0.46910363336E+03  0.00000000000E+00 0.  1.
         25    1    1    2    0    0  0.18156524758E+03  0.18696104144E+02 -0.11421416599E+03  0.24896859070E+03  0.12500000000E+03 0.  0.
         25    1    1    2    0    0 -0.18156524758E+03 -0.18696104144E+02 -0.24495712686E+03  0.33006738318E+03  0.12500000000E+03 0.  0.
</event>
<event>
 4    0  0.2193754E-002  0.1956417E+03  0.7546771E-02  0.1153469E+00
         21   -1    0    0  502  501  0.00000000000E+00  0.00000000000E+00  0.93297044913E+03  0.93297044913E+03  0.00000000000E+00 0. -1.
         21   -1    0    0  501  502 -0.00000000000E+00 -0.00000000000E+00 -0.41025613068E+02  0.41025613068E+02  0.00000000000E+00 0. -1.
         25    1    1    2    0    0 -0.29597416760E+02 -0.13499188736E+03  0.29762017222E+03  0.35114325231E+03  0.12500000000E+03 0.  0.
         25    1    1    2    0    0  0.29597416760E+02  0.13499188736E+03  0.59432466384E+03  0.62285280988E+03  0.12500000000E+03 0.  0.
</event>
<event>
 4    0  0.2193754E-002  0.1779555E+03  0.7546771E-02  0.1169796E+00
         21   -1    0    0  502  501  0.00000000000E+00  0.00000000000E+00  0.27153220283E+02  0.27153220283E+02  0.00000000000E+00 0.  1.
         21   -1    0    0  501  502 -0.00000000000E+00 -0.00000000000E+00 -0.11662767596E+04  0.11662767596E+04  0.00000000000E+00 0.  1.
         25    1    1    2    0    0 -0.13800302780E+02 -0.31237772502E+02 -0.16057239740E+03  0.20633647665E+03  0.12500000000E+03 0.  0.
         25    1    1    2    0    0  0.13800302780E+02  0.31237772502E+02 -0.97855114188E+03  0.98709350320E+03  0.12500000000E+03 0.  0.
</event>
<event>
 4    0  0.2193754E-002  0.1787324E+03  0.7546771E-02  0.1169036E+00
         21   -1    0    0  502  501  0.00000000000E+00  0.00000000000E+00  0.23813338198E+03  0.23813338198E+03  0.00000000000E+00 0. -1.
         21   -1    0    0  501  502 -0.00000000000E+00 -0.00000000000E+00 -0.13414864289E+03  0.13414864289E+03  0.00000000000E+00 0. -1.
         25    1    1    2    0    0  0.12582752655E+03 -0.49889202665E+00  0.74985913622E+02  0.19256350270E+03  0.12500000000E+03 0.  0.
         25    1    1    2    0    0 -0.12582752655E+03  0.49889202665E+00  0.28998825465E+02  0.17971852216E+03  0.12500000000E+03 0.  0.
</event>
<event>
 4    0  0.2193754E-002  0.2301834E+03  0.7546771E-02  0.1126511E+00
         21   -1    0    0  502  501  0.00000000000E+00  0.00000000000E+00  0.41102507739E+03  0.41102507739E+03  0.00000000000E+00 0. -1.
         21   -1    0    0  501  502 -0.00000000000E+00 -0.00000000000E+00 -0.12890795116E+03  0.12890795116E+03  0.00000000000E+00 0. -1.
         25    1    1    2    0    0 -0.10345357949E+02  0.17897838902E+03  0.22578796282E+03  0.31423795812E+03  0.12500000000E+03 0.  0.
         25    1    1    2    0    0  0.10345357949E+02 -0.17897838902E+03  0.56329163411E+02  0.22569507043E+03  0.12500000000E+03 0.  0.
</event>
<event>
 4    0  0.2193754E-002  0.2165685E+03  0.7546771E-02  0.1136468E+00
         21   -1    0    0  502  501  0.00000000000E+00  0.00000000000E+00  0.19679936678E+03  0.19679936678E+03  0.00000000000E+00 0. -1.
         21   -1    0    0  501  502 -0.00000000000E+00 -0.00000000000E+00 -0.23832345514E+03  0.23832345514E+03  0.00000000000E+00 0. -1.
         25    1    1    2    0    0  0.65096354505E+02 -0.16418505686E+03 -0.11629887499E+02  0.21668992258E+03  0.12500000000E+03 0.  0.
         25    1    1    2    0    0 -0.65096354505E+02  0.16418505686E+03 -0.29894200870E+02  0.21843289934E+03  0.12500000000E+03 0.  0.
</event>
<event>
 4    0  0.2193754E-002  0.3217828E+03  0.7546771E-02  0.1074832E+00
         21   -1    0    0  502  501  0.00000000000E+00  0.00000000000E+00  0.55086647969E+02  0.55086647969E+02  0.00000000000E+00 0.  1.
         21   -1    0    0  501  502 -0.00000000000E+00 -0.00000000000E+00 -0.18796605705E+04  0.18796605705E+04  0.00000000000E+00 0.  1.
         25    1    1    2    0    0 -0.62995723694E+02  0.13393771246E+03 -0.16846845526E+04  0.16957873728E+04  0.12500000000E+03 0.  0.
         25    1    1    2    0    0  0.62995723694E+02 -0.13393771246E+03 -0.13988936997E+03  0.23895984569E+03  0.12500000000E+03 0.  0.
</event>
<event>
 4    0  0.2193754E-002  0.1611977E+03  0.7546771E-02  0.1187351E+00
         21   -1    0    0  502  501  0.00000000000E+00  0.00000000000E+00  0.28412206177E+03  0.28412206177E+03  0.00000000000E+00 0. -1.
         21   -1    0    0  501  502 -0.00000000000E+00 -0.00000000000E+00 -0.91456127053E+02  0.91456127053E+02  0.00000000000E+00 0. -1.
         25    1    1    2    0    0 -0.11087408362E+02 -0.22106505009E+02 -0.18686385835E+02  0.12878590452E+03  0.12500000000E+03 0.  0.
         25    1    1    2    0    0  0.11087408362E+02  0.22106505009E+02  0.21135232055E+03  0.24679228430E+03  0.12500000000E+03 0.  0.
</event>
<event>
 4    0  0.2193754E-002  0.1663113E+03  0.7546771E-02  0.1181750E+00
         21   -1    0    0  502  501  0.00000000000E+00  0.00000000000E+00  0.19557590214E+03  0.19557590214E+03  0.00000000000E+00 0. -1.
         21   -1    0    0  501  502 -0.00000000000E+00 -0.00000000000E+00 -0.14142572021E+03  0.14142572021E+03  0.00000000000E+00 0. -1.
         25    1    1    2    0    0  0.64206219378E+02  0.72493010455E+02  0.79297697756E+02  0.17689205760E+03  0.12500000000E+03 0.  0.
         25    1    1    2    0    0 -0.64206219378E+02 -0.72493010455E+02 -0.25147515821E+02  0.16010956475E+03  0.12500000000E+03 0.  0.
</event>
<event>
 4    0  0.2193754E-002  0.1898361E+03  0.7546771E-02  0.1158609E+00
         21   -1    0    0  502  501  0.00000000000E+00  0.00000000000E+00  0.45247606841E+03  0.45247606841E+03  0.00000000000E+00 0.  1.
         21   -1    0    0  501  502 -0.00000000000E+00 -0.00000000000E+00 -0.79645614932E+02  0.79645614932E+02  0.00000000000E+00 0.  1.
         25    1    1    2    0    0  0.13326829280E+03 -0.41736257735E+02  0.22870291679E+03  0.29568966371E+03  0.12500000000E+03 0.  0.
         25    1    1    2    0    0 -0.13326829280E+03  0.41736257735E+02  0.14412753669E+03  0.23643201963E+03  0.12500000000E+03 0.  0.
</event>
<event>
 4    0  0.2193754E-002  0.1640970E+03  0.7546771E-02  0.1184147E+00
         21   -1    0    0  502  501  0.00000000000E+00  0.00000000000E+00  0.35610234313E+02  0.35610234313E+02  0.00000000000E+00 0.  1.
         21   -1    0    0  501  502 -0.00000000000E+00 -0.00000000000E+00 -0.75618236801E+03  0.75618236801E+03  0.00000000000E+00 0.  1.
         25    1    1    2    0    0  0.44354936628E+02  0.94981407228E+02 -0.31753491876E+03  0.35699054995E+03  0.12500000000E+03 0.  0.
         25    1    1    2    0    0 -0.44354936628E+02 -0.94981407228E+02 -0.40303721494E+03  0.43480205237E+03  0.12500000000E+03 0.  0.
</event>
<event>
 4    0  0.2193754E-002  0.2289090E+03  0.7546771E-02  0.1127410E+00
         21   -1    0    0  502  501  0.00000000000E+00  0.00000000000E+00  0.33491920061E+03  0.33491920061E+03  0.00000000000E+00 0.  1.
         21   -1    0    0  501  502 -0.00000000000E+00 -0.00000000000E+00 -0.15645368023E+03  0.15645368023E+03  0.00000000000E+00 0.  1.
         25    1    1    2    0    0 -0.14151034689E+03  0.10967851042E+03  0.15496772748E+02  0.21890569634E+03  0.12500000000E+03 0.  0.
         25    1    1    2    0    0  0.14151034689E+03 -0.10967851042E+03  0.16296874763E+03  0.27246718450E+03  0.12500000000E+03 0.  0.
</event>
<event>
 4    0  0.2193754E-002  0.2011225E+03  0.7546771E-02  0.1148795E+00
         21   -1    0    0  502  501  0.00000000000E+00  0.00000000000E+00  0.46302807035E+03  0.46302807035E+03  0.00000000000E+00 0.  1.
         21   -1    0    0  501  502 -0.00000000000E+00 -0.00000000000E+00 -0.87360253914E+02  0.87360253914E+02  0.00000000000E+00 0.  1.
         25    1    1    2    0    0 -0.11360733836E+03 -0.92047524590E+02  0.26815478033E+03  0.33001721217E+03  0.12500000000E+03 0.  0.
         25    1    1    2    0    0  0.11360733836E+03  0.92047524590E+02  0.10751303611E+03  0.22037111210E+03  0.12500000000E+03 0.  0.
</event>
<event>
 4    0  0.2193754E-002  0.3855195E+03  0.7546771E-02  0.1048912E+00
         21   -1    0    0  502  501  0.00000000000E+00  0.00000000000E+00  0.25383913561E+03  0.25383913561E+03  0.00000000000E+00 0.  1.
         21   -1    0    0  501  502 -0.00000000000E+00 -0.00000000000E+00 -0.58550964636E+03  0.58550964636E+03  0.00000000000E+00 0.  1.
         25    1    1    2    0    0  0.94086502933E+02  0.51838673555E+02  0.21355320821E+03  0.26975820812E+03  0.12500000000E+03 0.  0.
         25    1    1    2    0    0 -0.94086502933E+02 -0.51838673555E+02 -0.54522371895E+03  0.56959057385E+03  0.12500000000E+03 0.  0.
</event>
<event>
 4    0  0.2193754E-002  0.1924613E+03  0.7546771E-02  0.1156260E+00
         21   -1    0    0  502  501  0.00000000000E+00  0.00000000000E+00  0.10662153460E+03  0.10662153460E+03  0.00000000000E+00 0.  1.
         21   -1    0    0  501  502 -0.00000000000E+00 -0.00000000000E+00 -0.34740973997E+03  0.34740973997E+03  0.00000000000E+00 0.  1.
         25    1    1    2    0    0 -0.13366799667E+03  0.40340668944E+02 -0.17210389760E+03  0.25443909777E+03  0.12500000000E+03 0.  0.
         25    1    1    2    0    0  0.13366799667E+03 -0.40340668944E+02 -0.68684307769E+02  0.19959217679E+03  0.12500000000E+03 0.  0.
</event>
<event>
 4    0  0.2193754E-002  0.1559509E+03  0.7546771E-02  0.1193346E+00
         21   -1    0    0  502  501  0.00000000000E+00  0.00000000000E+00  0.44556240496E+03  0.44556240496E+03  0.00000000000E+00 0. -1.
         21   -1    0    0  501  502 -0.00000000000E+00 -0.00000000000E+00 -0.54584205362E+02  0.54584205362E+02  0.00000000000E+00 0. -1.
         25    1    1    2    0    0  0.32081455099E+02 -0.27047611741E+02  0.61952921829E+02  0.14568444524E+03  0.12500000000E+03 0.  0.
         25    1    1    2    0    0 -0.32081455099E+02  0.27047611741E+02  0.32902527777E+03  0.35446216508E+03  0.12500000000E+03 0.  0.
</event>
<event>
 4    0  0.2193754E-002  0.2376622E+03  0.7546771E-02  0.1121360E+00
         21   -1    0    0  502  501  0.00000000000E+00  0.00000000000E+00  0.66047350645E+03  0.66047350645E+03  0.00000000000E+00 0. -1.
         21   -1    0    0  501  502 -0.00000000000E+00 -0.00000000000E+00 -0.85519415808E+02  0.85519415808E+02  0.00000000000E+00 0. -1.
         25    1    1    2    0    0  0.17113345974E+02  0.17988419845E+03  0.42965751985E+03  0.48257825876E+03  0.12500000000E+03 0.  0.
         25    1    1    2    0    0 -0.17113345974E+02 -0.17988419845E+03  0.14529657079E+03  0.26341466349E+03  0.12500000000E+03 0.  0.
</event>
<event>
 4    0  0.2193754E-002  0.2016277E+03  0.7546771E-02  0.1148373E+00
         21   -1    0    0  502  501  0.00000000000E+00  0.00000000000E+00  0.10767168724E+04  0.10767168724E+04  0.00000000000E+00 0.  1.
         21   -1    0    0  501  502 -0.00000000000E+00 -0.00000000000E+00 -0.37757109358E+02  0.37757109358E+02  0.00000000000E+00 0.  1.
         25    1    1    2    0    0  0.42972235003E+02 -0.13228482442E+03  0.72781961397E+03  0.75146009756E+03  0.12500000000E+03 0.  0.
         25    1    1    2    0    0 -0.42972235003E+02  0.13228482442E+03  0.31114014909E+03  0.36301388421E+03  0.12500000000E+03 0.  0.
</event>
<event>
 4    0  0.2193754E-002  0.2450747E+03  0.7546771E-02  0.1116458E+00
         21   -1    0    0  502  501  0.00000000000E+00  0.00000000000E+00  0.55076065168E+03  0.55076065168E+03  0.00000000000E+00 0.  1.
         21   -1    0    0  501  502 -0.00000000000E+00 -0.00000000000E+00 -0.10905206819E+03  0.10905206819E+03  0.00000000000E+00 0.  1.
         25    1    1    2    0    0 -0.10133549902E+03  0.89783518320E+02  0.33500933045E+01  0.18429917702E+03  0.12500000000E+03 0.  0.
         25    1    1    2    0    0  0.10133549902E+03 -0.89783518320E+02  0.43835849019E+03  0.47551354286E+03  0.12500000000E+03 0.  0.
</event>
<event>
 4    0  0.2193754E-002  0.1856423E+03  0.7546771E-02  0.1162451E+00
         21   -1    0    0  502  501  0.00000000000E+00  0.00000000000E+00  0.65777280997E+02  0.65777280997E+02  0.00000000000E+00 0.  1.
         21   -1    0    0  501  502 -0.00000000000E+00 -0.00000000000E+00 -0.52393545053E+03  0.52393545053E+03  0.00000000000E+00 0.  1.
         25    1    1    2    0    0  0.13424739116E+03  0.15835104387E+02 -0.26683053036E+03  0.32418612632E+03  0.12500000000E+03 0.  0.
         25    1    1    2    0    0 -0.13424739116E+03 -0.15835104387E+02 -0.19132763917E+03  0.26552660521E+03  0.12500000000E+03 0.  0.
</event>
<event>
 4    0  0.2193754E-002  0.3913212E+03  0.7546771E-02  0.1046827E+00
         21   -1    0    0  502  501  0.00000000000E+00  0.00000000000E+00  0.54734358491E+03  0.54734358491E+03  0.00000000000E+00 0. -1.
         21   -1    0    0  501  502 -0.00000000000E+00 -0.00000000000E+00 -0.27977365730E+03  0.27977365730E+03  0.00000000000E+00 0.  1.
         25    1    1    2    0    0  0.34014669421E+03 -0.11743755243E+03  0.39165270023E+02  0.38294943619E+03  0.12500000000E+03 0.  0.
         25    1    1    2    0    0 -0.34014669421E+03  0.11743755243E+03  0.22840465759E+03  0.44416780603E+03  0.12500000000E+03 0.  0.
</event>
<event>
 4    0  0.2193754E-002  0.2081714E+03  0.7546771E-02  0.1143022E+00
         21   -1    0    0  502  501  0.00000000000E+00  0.00000000000E+00  0.74063711728E+02  0.74063711728E+02  0.00000000000E+00 0.  1.
         21   -1    0    0  501  502 -0.00000000000E+00 -0.00000000000E+00 -0.58510878313E+03  0.58510878313E+03  0.00000000000E+00 0.  1.
         25    1    1    2    0    0  0.33513877297E+02 -0.10135266324E+03 -0.53295728011E+02  0.17280328973E+03  0.12500000000E+03 0.  0.
         25    1    1    2    0    0 -0.33513877297E+02  0.10135266324E+03 -0.45774934339E+03  0.48636920512E+03  0.12500000000E+03 0.  0.
</event>
<event>
 4    0  0.2193754E-002  0.2746245E+03  0.7546771E-02  0.1098662E+00
         21   -1    0    0  502  501  0.00000000000E+00  0.00000000000E+00  0.29049635061E+03  0.29049635061E+03  0.00000000000E+00 0. -1.
         21   -1    0    0  501  502 -0.00000000000E+00 -0.00000000000E+00 -0.25961992955E+03  0.25961992955E+03  0.00000000000E+00 0. -1.
         25    1    1    2    0    0  0.13632590913E+02 -0.24182187600E+03  0.49106382261E+02  0.27694783629E+03  0.12500000000E+03 0.  0.
         25    1    1    2    0    0 -0.13632590913E+02  0.24182187600E+03 -0.18229961196E+02  0.27316844388E+03  0.12500000000E+03 0.  0.
</event>
<event>
 4    0  0.2193754E-002  0.1645186E+03  0.7546771E-02  0.1183688E+00
         21   -1    0    0  502  501  0.00000000000E+00  0.00000000000E+00  0.54472252475E+02  0.54472252475E+02  0.00000000000E+00 0.  1.
         21   -1    0    0  501  502 -0.00000000000E+00 -0.00000000000E+00 -0.49688386517E+03  0.49688386517E+03  0.00000000000E+00 0.  1.
         25    1    1    2    0    0 -0.77732752301E+02  0.71833312134E+02 -0.24710975112E+03  0.29646354685E+03  0.12500000000E+03 0.  0.
         25    1    1    2    0    0  0.77732752301E+02 -0.71833312134E+02 -0.19530186158E+03  0.25489257080E+03  0.12500000000E+03 0.  0.
</event>
<event>
 4    0  0.2193754E-002  0.3402380E+03  0.7546771E-02  0.1066695E+00
         21   -1    0    0  502  501  0.00000000000E+00  0.00000000000E+00  0.78423195700E+03  0.78423195700E+03  0.00000000000E+00 0.  1.
         21   -1    0    0  501  502 -0.00000000000E+00 -0.00000000000E+00 -0.14761179814E+03  0.14761179814E+03  0.00000000000E+00 0.  1.
         25    1    1    2    0    0  0.48547800800E+02 -0.18080715256E+03  0.66767825810E+03  0.70460440796E+03  0.12500000000E+03 0.  0.
         25    1    1    2    0    0 -0.48547800800E+02  0.18080715256E+03 -0.31058099240E+02  0.22723934718E+03  0.12500000000E+03 0.  0.
</event>
<event>
 4    0  0.2193754E-002  0.2307541E+03  0.7546771E-02  0.1126110E+00
         21   -1    0    0  502  501  0.00000000000E+00  0.00000000000E+00  0.28352931889E+03  0.28352931889E+03  0.00000000000E+00 0.  1.
         21   -1    0    0  501  502 -0.00000000000E+00 -0.00000000000E+00 -0.18780233466E+03  0.18780233466E+03  0.00000000000E+00 0.  1.
         25    1    1    2    0    0 -0.91899522726E+02 -0.14337677777E+03  0.14268391893E+03  0.25492375998E+03  0.12500000000E+03 0.  0.
         25    1    1    2    0    0  0.91899522726E+02  0.14337677777E+03 -0.46956934695E+02  0.21640789357E+03  0.12500000000E+03 0.  0.
</event>
<event>
 4    0  0.2193754E-002  0.1591617E+03  0.7546771E-02  0.1189646E+00
         21   -1    0    0  502  501  0.00000000000E+00  0.00000000000E+00  0.27738236815E+03  0.27738236815E+03  0.00000000000E+00 0. -1.
         21   -1    0    0  501  502 -0.00000000000E+00 -0.00000000000E+00 -0.91326759399E+02  0.91326759399E+02  0.00000000000E+00 0. -1.
         25    1    1    2    0    0 -0.27576260603E+02  0.94198044204E+02  0.83083327541E+02  0.17933644637E+03  0.12500000000E+03 0.  0.
         25    1    1    2    0    0  0.27576260603E+02 -0.94198044204E+02  0.10297228121E+03  0.18937268119E+03  0.12500000000E+03 0.  0.
</event>
<event>
 4    0  0.2193754E-002  0.3300138E+03  0.7546771E-02  0.1071131E+00
         21   -1    0    0  502  501  0.00000000000E+00  0.00000000000E+00  0.33422559454E+03  0.33422559454E+03  0.00000000000E+00 0. -1.
         21   -1    0    0  501  502 -0.00000000000E+00 -0.00000000000E+00 -0.32585499033E+03  0.32585499033E+03  0.00000000000E+00 0. -1.
         25    1    1    2    0    0 -0.86607508204E+02  0.81513121983E+02  0.28552416700E+03  0.33360800271E+03  0.12500000000E+03 0.  0.
         25    1    1    2    0    0  0.86607508204E+02 -0.81513121983E+02 -0.27715356279E+03  0.32647258216E+03  0.12500000000E+03 0.  0.
</event>
<event>
 4    0  0.2193754E-002  0.2089929E+03  0.7546771E-02  0.1142366E+00
         21   -1    0    0  502  501  0.00000000000E+00  0.00000000000E+00  0.25191158618E+03  0.25191158618E+03  0.00000000000E+00 0.  1.
         21   -1    0    0  501  502 -0.00000000000E+00 -0.00000000000E+00 -0.17338635643E+03  0.17338635643E+03  0.00000000000E+00 0.  1.
         25    1    1    2    0    0 -0.16066840568E+03 -0.84502388205E+01 -0.81059430204E+01  0.20390303929E+03  0.12500000000E+03 0.  0.
         25    1    1    2    0    0  0.16066840568E+03  0.84502388205E+01  0.86631172776E+02  0.22139490332E+03  0.12500000000E+03 0.  0.
</event>
<event>
 4    0  0.2193754E-002  0.2448126E+03  0.7546771E-02  0.1116628E+00
         21   -1    0    0  502  501  0.00000000000E+00  0.00000000000E+00  0.13993656629E+03  0.13993656629E+03  0.00000000000E+00 0. -1.
         21   -1    0    0  501  502 -0.00000000000E+00 -0.00000000000E+00 -0.42828827172E+03  0.42828827172E+03  0.00000000000E+00 0. -1.
         25    1    1    2    0    0  0.11024268459E+03 -0.51163670447E+02  0.55276817476E+02  0.18289805146E+03  0.12500000000E+03 0.  0.
         25    1    1    2    0    0 -0.11024268459E+03  0.51163670447E+02 -0.34362852291E+03  0.38532678655E+03  0.12500000000E+03 0.  0.
</event>
<event>
 4    0  0.2193754E-002  0.2918518E+03  0.7546771E-02  0.1089386E+00
         21   -1    0    0  502  501  0.00000000000E+00  0.00000000000E+00  0.13037141092E+03  0.13037141092E+03  0.00000000000E+00 0.  1.
         21   -1    0    0  501  502 -0.00000000000E+00 -0.00000000000E+00 -0.65334475151E+03  0.65334475151E+03  0.00000000000E+00 0.  1.
         25    1    1    2    0    0 -0.24308511530E+03 -0.81905615592E+02 -0.17922663184E+03  0.33696600527E+03  0.12500000000E+03 0.  0.
         25    1    1    2    0    0  0.24308511530E+03  0.81905615592E+02 -0.34374670875E+03  0.44675015716E+03  0.12500000000E+03 0.  0.
</event>
<event>
 4    0  0.2193754E-002  0.2813691E+03  0.7546771E-02  0.1094944E+00
         21   -1    0    0  502  501  0.00000000000E+00  0.00000000000E+00  0.32120173597E+03  0.32120173597E+03  0.00000000000E+00 0.  1.
         21   -1    0    0  501  502 -0.00000000000E+00 -0.00000000000E+00 -0.24647618485E+03  0.24647618485E+03  0.00000000000E+00 0. -1.
         25    1    1    2    0    0 -0.12583719928E+03  0.21672287799E+03  0.64800272821E+02  0.28745065998E+03  0.12500000000E+03 0.  0.
         25    1    1    2    0    0  0.12583719928E+03 -0.21672287799E+03  0.99252783022E+01  0.28022726084E+03  0.12500000000E+03 0.  0.
</event>
<event>
 4    0  0.2193754E-002  0.1802159E+03  0.7546771E-02  0.1167594E+00
         21   -1    0    0  502  501  0.00000000000E+00  0.00000000000E+00  0.54352009516E+02  0.54352009516E+02  0.00000000000E+00 0.  1.
         21   -1    0    0  501  502 -0.00000000000E+00 -0.00000000000E+00 -0.59754477869E+03  0.59754477869E+03  0.00000000000E+00 0.  1.
         25    1    1    2    0    0  0.15956730257E+02  0.12834719683E+02 -0.50345310563E+03  0.51914292525E+03  0.12500000000E+03 0.  0.
         25    1    1    2    0    0 -0.15956730257E+02 -0.12834719683E+02 -0.39739663539E+02  0.13275386295E+03  0.12500000000E+03 0.  0.
</event>
<event>
 4    0  0.2193754E-002  0.2849026E+03  0.7546771E-02  0.1093041E+00
         21   -1    0    0  502  501  0.00000000000E+00  0.00000000000E+00  0.69749639023E+02  0.69749639023E+02  0.00000000000E+00 0.  1.
         21   -1    0    0  501  502 -0.00000000000E+00 -0.00000000000E+00 -0.11637262372E+04  0.11637262372E+04  0.00000000000E+00 0.  1.
         25    1    1    2    0    0 -0.20558934790E+03 -0.13954462670E+03 -0.68051567325E+03  0.73516410709E+03  0.12500000000E+03 0.  0.
         25    1    1    2    0    0  0.20558934790E+03  0.13954462670E+03 -0.41346092488E+03  0.49831176909E+03  0.12500000000E+03 0.  0.
</event>
<event>
 4    0  0.2193754E-002  0.2732383E+03  0.7546771E-02  0.1099440E+00
         21   -1    0    0  502  501  0.00000000000E+00  0.00000000000E+00  0.17657010565E+03  0.17657010565E+03  0.00000000000E+00 0.  1.
         21   -1    0    0  501  502 -0.00000000000E+00 -0.00000000000E+00 -0.42283025425E+03  0.42283025425E+03  0.00000000000E+00 0.  1.
         25    1    1    2    0    0  0.17453272427E+02  0.24233824330E+03 -0.12457765254E+03  0.30029490905E+03  0.12500000000E+03 0.  0.
         25    1    1    2    0    0 -0.17453272427E+02 -0.24233824330E+03 -0.12168249606E+03  0.29910545086E+03  0.12500000000E+03 0.  0.
</event>
<event>
 4    0  0.2193754E-002  0.3631122E+03  0.7546771E-02  0.1057358E+00
         21   -1    0    0  502  501  0.00000000000E+00  0.00000000000E+00  0.89318472778E+02  0.89318472778E+02  0.00000000000E+00 0. -1.
         21   -1    0    0  501  502 -0.00000000000E+00 -0.00000000000E+00 -0.14761837677E+04  0.14761837677E+04  0.00000000000E+00 0.  1.
         25    1    1    2    0    0  0.27897047578E+03  0.72607583813E+02 -0.10857952512E+04  0.11303418576E+04  0.12500000000E+03 0.  0.
         25    1    1    2    0    0 -0.27897047578E+03 -0.72607583813E+02 -0.30107004376E+03  0.43516038289E+03  0.12500000000E+03 0.  0.
</event>
<event>
 4    0  0.2193754E-002  0.1923535E+03  0.7546771E-02  0.1156356E+00
         21   -1    0    0  502  501  0.00000000000E+00  0.00000000000E+00  0.19613748743E+03  0.19613748743E+03  0.00000000000E+00 0. -1.
         21   -1    0    0  501  502 -0.00000000000E+00 -0.00000000000E+00 -0.18864249034E+03  0.18864249034E+03  0.00000000000E+00 0. -1.
         25    1    1    2    0    0 -0.13674074189E+03  0.36382744876E+02 -0.33044389934E+02  0.19167333232E+03  0.12500000000E+03 0.  0.
         25    1    1    2    0    0  0.13674074189E+03 -0.36382744876E+02  0.40539387024E+02  0.19310664545E+03  0.12500000000E+03 0.  0.
</event>
<event>
 4    0  0.2193754E-002  0.1764184E+03  0.7546771E-02  0.1171315E+00
         21   -1    0    0  502  501  0.00000000000E+00  0.00000000000E+00  0.26754872161E+03  0.26754872161E+03  0.00000000000E+00 0.  1.
         21   -1    0    0  501  502 -0.00000000000E+00 -0.00000000000E+00 -0.11632818866E+03  0.11632818866E+03  0.00000000000E+00 0.  1.
         25    1    1    2    0    0 -0.34984098439E+01  0.12443915753E+03  0.76759283890E+02  0.19239108727E+03  0.12500000000E+03 0.  0.
         25    1    1    2    0    0  0.34984098439E+01 -0.12443915753E+03  0.74461249057E+02  0.19148582300E+03  0.12500000000E+03 0.  0.
</event>
<event>
 4    0  0.2193754E-002  0.2428525E+03  0.7546771E-02  0.1117907E+00
         21   -1    0    0  502  501  0.00000000000E+00  0.00000000000E+00  0.40623644932E+02  0.40623644932E+02  0.00000000000E+00 0. -1.
         21   -1    0    0  501  502 -0.00000000000E+00 -0.00000000000E+00 -0.14517978327E+04  0.14517978327E+04  0.00000000000E+00 0. -1.
         25    1    1    2    0    0  0.12486009844E+03 -0.12669854616E+03 -0.37308616518E+03  0.43181113051E+03  0.12500000000E+03 0.  0.
         25    1    1    2    0    0 -0.12486009844E+03  0.12669854616E+03 -0.10380880226E+04  0.10606103471E+04  0.12500000000E+03 0.  0.
</event>
<event>
 4    0  0.2193754E-002  0.1633630E+03  0.7546771E-02  0.1184951E+00
         21   -1    0    0  502  501  0.00000000000E+00  0.00000000000E+00  0.15686795952E+03  0.15686795952E+03  0.00000000000E+00 0. -1.
         21   -1    0    0  501  502 -0.00000000000E+00 -0.00000000000E+00 -0.17012699109E+03  0.17012699109E+03  0.00000000000E+00 0. -1.
         25    1    1    2    0    0 -0.11415737782E+02 -0.25342254932E+01  0.97982747895E+02  0.15925564434E+03  0.12500000000E+03 0.  0.
         25    1    1    2    0    0  0.11415737782E+02  0.25342254932E+01 -0.11124177947E+03  0.16773930627E+03  0.12500000000E+03 0.  0.
</event>
<event>
 4    0  0.2193754E-002  0.2519859E+03  0.7546771E-02  0.1112056E+00
         21   -1    0    0  502  501  0.00000000000E+00  0.00000000000E+00  0.16529075285E+03  0.16529075285E+03  0.00000000000E+00 0.  1.
         21   -1    0    0  501  502 -0.00000000000E+00 -0.00000000000E+00 -0.38415270627E+03  0.38415270627E+03  0.00000000000E+00 0.  1.
         25    1    1    2    0    0 -0.11803643446E+03  0.11326228167E+03  0.48974659161E+02  0.21162339556E+03  0.12500000000E+03 0.  0.
         25    1    1    2    0    0  0.11803643446E+03 -0.11326228167E+03 -0.26783661258E+03  0.33782006356E+03  0.12500000000E+03 0.  0.
</event>
<event>
 4    0  0.2193754E-002  0.2216564E+03  0.7546771E-02  0.1132654E+00
         21   -1    0    0  502  501  0.00000000000E+00  0.00000000000E+00  0.18540414929E+03  0.18540414929E+03  0.00000000000E+00 0. -1.
         21   -1    0    0  501  502 -0.00000000000E+00 -0.00000000000E+00 -0.26499715809E+03  0.26499715809E+03  0.00000000000E+00 0. -1.
         25    1    1    2    0    0  0.13321391385E+03 -0.14404567103E+02  0.86909814670E+02  0.20280965037E+03  0.12500000000E+03 0.  0.
         25    1    1    2    0    0 -0.13321391385E+03  0.14404567103E+02 -0.16650282347E+03  0.24759165701E+03  0.12500000000E+03 0.  0.
</event>
<event>
 4    0  0.2193754E-002  0.2559286E+03  0.7546771E-02  0.1109614E+00
         21   -1    0    0  502  501  0.00000000000E+00  0.00000000000E+00  0.30505976278E+04  0.30505976278E+04  0.00000000000E+00 0. -1.
         21   -1    0    0  501  502 -0.00000000000E+00 -0.00000000000E+00 -0.21471021493E+02  0.21471021493E+02  0.00000000000E+00 0. -1.
         25    1    1    2    0    0  0.50531214888E+02  0.14944069704E+03  0.56581200146E+03  0.60054487477E+03  0.12500000000E+03 0.  0.
         25    1    1    2    0    0 -0.50531214888E+02 -0.14944069704E+03  0.24633146048E+04  0.24715237745E+04  0.12500000000E+03 0.  0.
</event>
<event>
 4    0  0.2193754E-002  0.1582239E+03  0.7546771E-02  0.1190717E+00
         21   -1    0    0  502  501  0.00000000000E+00  0.00000000000E+00  0.25104482143E+03  0.25104482143E+03  0.00000000000E+00 0.  1.
         21   -1    0    0  501  502 -0.00000000000E+00 -0.00000000000E+00 -0.99722426140E+02  0.99722426140E+02  0.00000000000E+00 0.  1.
         25    1    1    2    0    0  0.21395873091E+02 -0.92782472603E+02  0.55119569036E+02  0.16652188294E+03  0.12500000000E+03 0.  0.
         25    1    1    2    0    0 -0.21395873091E+02  0.92782472603E+02  0.96202826255E+02  0.18424536463E+03  0.12500000000E+03 0.  0.
</event>
<event>
 4    0  0.2193754E-002  0.2750535E+03  0.7546771E-02  0.1098422E+00
         21   -1    0    0  502  501  0.00000000000E+00  0.00000000000E+00  0.35811942851E+03  0.35811942851E+03  0.00000000000E+00 0.  1.
         21   -1    0    0  501  502 -0.00000000000E+00 -0.00000000000E+00 -0.21125470349E+03  0.21125470349E+03  0.00000000000E+00 0.  1.
         25    1    1    2    0    0 -0.95627641816E+02 -0.20465113285E+03 -0.24773304024E+02  0.25935583403E+03  0.12500000000E+03 0.  0.
         25    1    1    2    0    0  0.95627641816E+02  0.20465113285E+03  0.17163802905E+03  0.31001829796E+03  0.12500000000E+03 0.  0.
</event>
<event>
 4    0  0.2193754E-002  0.2557390E+03  0.7546771E-02  0.1109731E+00
         21   -1    0    0  502  501  0.00000000000E+00  0.00000000000E+00  0.49326380351E+03  0.49326380351E+03  0.00000000000E+00 0. -1.
         21   -1    0    0  501  502 -0.00000000000E+00 -0.00000000000E+00 -0.13259119054E+03  0.13259119054E+03  0.00000000000E+00 0. -1.
         25    1    1    2    0    0  0.12598157923E+03 -0.80223085780E+02 -0.22468727552E+02  0.19605342516E+03  0.12500000000E+03 0.  0.
         25    1    1    2    0    0 -0.12598157923E+03  0.80223085780E+02  0.38314134052E+03  0.42980156889E+03  0.12500000000E+03 0.  0.
</event>
<event>
 4    0  0.2193754E-002  0.2226172E+03  0.7546771E-02  0.1131947E+00
         21   -1    0    0  502  501  0.00000000000E+00  0.00000000000E+00  0.12365426710E+04  0.12365426710E+04  0.00000000000E+00 0. -1.
         21   -1    0    0  501  502 -0.00000000000E+00 -0.00000000000E+00 -0.40078218469E+02  0.40078218469E+02  0.00000000000E+00 0. -1.
         25    1    1    2    0    0 -0.16014923837E+03  0.22713538635E+02  0.34549073380E+03  0.40143807807E+03  0.12500000000E+03 0.  0.
         25    1    1    2    0    0  0.16014923837E+03 -0.22713538635E+02  0.85097371870E+03  0.87518281136E+03  0.12500000000E+03 0.  0.
</event>
<event>
 4    0  0.2193754E-002  0.3142029E+03  0.7546771E-02  0.1078349E+00
         21   -1    0    0  502  501  0.00000000000E+00  0.00000000000E+00  0.14724496113E+03  0.14724496113E+03  0.00000000000E+00 0. -1.
         21   -1    0    0  501  502 -0.00000000000E+00 -0.00000000000E+00 -0.67047069549E+03  0.67047069549E+03  0.00000000000E+00 0. -1.
         25    1    1    2    0    0 -0.74298904303E+02  0.27825514084E+03 -0.24556038171E+03  0.39858644188E+03  0.12500000000E+03 0.  0.
         25    1    1    2    0    0  0.74298904303E+02 -0.27825514084E+03 -0.27766535266E+03  0.41912921474E+03  0.12500000000E+03 0.  0.
</event>
<event>
 4    0  0.2193754E-002  0.2721628E+03  0.7546771E-02  0.1100048E+00
         21   -1    0    0  502  501  0.00000000000E+00  0.00000000000E+00  0.33848896087E+03  0.33848896087E+03  0.00000000000E+00 0. -1.
         21   -1    0    0  501  502 -0.00000000000E+00 -0.00000000000E+00 -0.21883318139E+03  0.21883318139E+03  0.00000000000E+00 0. -1.
         25    1    1    2    0    0  0.86630480633E+02 -0.14504571436E+02 -0.17078848246E+03  0.22914826753E+03  0.12500000000E+03 0.  0.
         25    1    1    2    0    0 -0.86630480633E+02  0.14504571436E+02  0.29044426194E+03  0.32817387474E+03  0.12500000000E+03 0.  0.
</event>
<event>
 4    0  0.2193754E-002  0.1953292E+03  0.7546771E-02  0.1153741E+00
         21   -1    0    0  502  501  0.00000000000E+00  0.00000000000E+00  0.81490342122E+02  0.81490342122E+02  0.00000000000E+00 0.  1.
         21   -1    0    0  501  502 -0.00000000000E+00 -0.00000000000E+00 -0.46819644831E+03  0.46819644831E+03  0.00000000000E+00 0.  1.
         25    1    1    2    0    0 -0.91627915695E+02  0.11318520057E+03 -0.24451198301E+03  0.31083383728E+03  0.12500000000E+03 0.  0.
         25    1    1    2    0    0  0.91627915695E+02 -0.11318520057E+03 -0.14219412318E+03  0.23885295316E+03  0.12500000000E+03 0.  0.
</event>
<event>
 4    0  0.2193754E-002  0.2908180E+03  0.7546771E-02  0.1089923E+00
         21   -1    0    0  502  501  0.00000000000E+00  0.00000000000E+00  0.73411660926E+03  0.73411660926E+03  0.00000000000E+00 0. -1.
         21   -1    0    0  501  502 -0.00000000000E+00 -0.00000000000E+00 -0.11520661954E+03  0.11520661954E+03  0.00000000000E+00 0. -1.
         25    1    1    2    0    0  0.18287535492E+03  0.15099810078E+01  0.58460084065E+03  0.62516303343E+03  0.12500000000E+03 0.  0.
         25    1    1    2    0    0 -0.18287535492E+03 -0.15099810078E+01  0.34309149083E+02  0.22416019537E+03  0.12500000000E+03 0.  0.
</event>
<event>
 4    0  0.2193754E-002  0.1845654E+03  0.7546771E-02  0.1163456E+00
         21   -1    0    0  502  501  0.00000000000E+00  0.00000000000E+00  0.26578964414E+03  0.26578964414E+03  0.00000000000E+00 0. -1.
         21   -1    0    0  501  502 -0.00000000000E+00 -0.00000000000E+00 -0.12816291008E+03  0.12816291008E+03  0.00000000000E+00 0. -1.
         25    1    1    2    0    0  0.43901389169E+02  0.12089744326E+03  0.11528262752E+03  0.21321024358E+03  0.12500000000E+03 0.  0.
         25    1    1    2    0    0 -0.43901389169E+02 -0.12089744326E+03  0.22344106541E+02  0.18074231064E+03  0.12500000000E+03 0.  0.
</event>
<event>
 4    0  0.2193754E-002  0.3625899E+03  0.7546771E-02  0.1057563E+00
         21   -1    0    0  502  501  0.00000000000E+00  0.00000000000E+00  0.16167364656E+04  0.16167364656E+04  0.00000000000E+00 0. -1.
         21   -1    0    0  501  502 -0.00000000000E+00 -0.00000000000E+00 -0.81319016636E+02  0.81319016636E+02  0.00000000000E+00 0. -1.
         25    1    1    2    0    0 -0.27502486547E+02  0.58023964598E+02 -0.14960017382E+02  0.14132221819E+03  0.12500000000E+03 0.  0.
         25    1    1    2    0    0  0.27502486547E+02 -0.58023964598E+02  0.15503774664E+04  0.15567332641E+04  0.12500000000E+03 0.  0.
</event>
<event>
 4    0  0.2193754E-002  0.3343371E+03  0.7546771E-02  0.1069234E+00
         21   -1    0    0  502  501  0.00000000000E+00  0.00000000000E+00  0.53024302961E+03  0.53024302961E+03  0.00000000000E+00 0. -1.
         21   -1    0    0  501  502 -0.00000000000E+00 -0.00000000000E+00 -0.21081141510E+03  0.21081141510E+03  0.00000000000E+00 0. -1.
         25    1    1    2    0    0  0.97819091397E+02 -0.58306007328E+01 -0.16632985461E+03  0.22998519752E+03  0.12500000000E+03 0.  0.
         25    1    1    2    0    0 -0.97819091397E+02  0.58306007328E+01  0.48576146912E+03  0.51106924719E+03  0.12500000000E+03 0.  0.
</event>
<event>
 4    0  0.2193754E-002  0.1879026E+03  0.7546771E-02  0.1160367E+00
         21   -1    0    0  502  501  0.00000000000E+00  0.00000000000E+00  0.51291024749E+03  0.51291024749E+03  0.00000000000E+00 0.  1.
         21   -1    0    0  501  502 -0.00000000000E+00 -0.00000000000E+00 -0.68837353752E+02  0.68837353752E+02  0.00000000000E+00 0.  1.
         25    1    1    2    0    0  0.65381749912E+02 -0.51352214446E+02  0.39697149228E+03  0.42440922332E+03  0.12500000000E+03 0.  0.
         25    1    1    2    0    0 -0.65381749912E+02  0.51352214446E+02  0.47101401458E+02  0.15733837793E+03  0.12500000000E+03 0.  0.
</event>
<event>
 4    0  0.2193754E-002  0.2045481E+03  0.7546771E-02  0.1145957E+00
         21   -1    0    0  502  501  0.00000000000E+00  0.00000000000E+00  0.12596155042E+03  0.12596155042E+03  0.00000000000E+00 0.  1.
         21   -1    0    0  501  502 -0.00000000000E+00 -0.00000000000E+00 -0.33216439130E+03  0.33216439130E+03  0.00000000000E+00 0.  1.
         25    1    1    2    0    0  0.15734150123E+03 -0.36613810918E+02 -0.11526725417E+03  0.23453882204E+03  0.12500000000E+03 0.  0.
         25    1    1    2    0    0 -0.15734150123E+03  0.36613810918E+02 -0.90935586706E+02  0.22358711968E+03  0.12500000000E+03 0.  0.
</event>
<event>
 4    0  0.2193754E-002  0.2869717E+03  0.7546771E-02  0.1091941E+00
         21   -1    0    0  502  501  0.00000000000E+00  0.00000000000E+00  0.15563743075E+03  0.15563743075E+03  0.00000000000E+00 0.  1.
         21   -1    0    0  501  502 -0.00000000000E+00 -0.00000000000E+00 -0.52913224977E+03  0.52913224977E+03  0.00000000000E+00 0.  1.
         25    1    1    2    0    0  0.10284026353E+03  0.22207603213E+03 -0.28537755993E+03  0.39618081170E+03  0.12500000000E+03 0.  0.
         25    1    1    2    0    0 -0.10284026353E+03 -0.22207603213E+03 -0.88117259089E+02  0.28858886881E+03  0.12500000000E+03 0.  0.
</event>
<event>
 4    0  0.2193754E-002  0.2036677E+03  0.7546771E-02  0.1146681E+00
         21   -1    0    0  502  501  0.00000000000E+00  0.00000000000E+00  0.52522056975E+03  0.52522056975E+03  0.00000000000E+00 0.  1.
         21   -1    0    0  501  502 -0.00000000000E+00 -0.00000000000E+00 -0.78977386612E+02  0.78977386612E+02  0.00000000000E+00 0.  1.
         25    1    1    2    0    0  0.16876837107E+01 -0.56941565623E+02  0.44616055159E+03  0.46682912074E+03  0.12500000000E+03 0.  0.
         25    1    1    2    0    0 -0.16876837107E+01  0.56941565623E+02  0.82631542979E-01  0.13736883562E+03  0.12500000000E+03 0.  0.
</event>
<event>
 4    0  0.2193754E-002  0.3741786E+03  0.7546771E-02  0.1053107E+00
         21   -1    0    0  502  501  0.00000000000E+00  0.00000000000E+00  0.11918427300E+03  0.11918427300E+03  0.00000000000E+00 0. -1.
         21   -1    0    0  501  502 -0.00000000000E+00 -0.00000000000E+00 -0.11747325486E+04  0.11747325486E+04  0.00000000000E+00 0. -1.
         25    1    1    2    0    0  0.12922159333E+03 -0.21635771771E+03 -0.10117537293E+03  0.29894872183E+03  0.12500000000E+03 0.  0.
         25    1    1    2    0    0 -0.12922159333E+03  0.21635771771E+03 -0.95437290267E+03  0.99496809977E+03  0.12500000000E+03 0.  0.
</event>
<event>
 4    0  0.2193754E-002  0.1682375E+03  0.7546771E-02  0.1179698E+00
         21   -1    0    0  502  501  0.00000000000E+00  0.00000000000E+00  0.35861264844E+04  0.35861264844E+04  0.00000000000E+00 0.  1.
         21   -1    0    0  501  502 -0.00000000000E+00 -0.00000000000E+00 -0.78925982429E+01  0.78925982429E+01  0.00000000000E+00 0.  1.
         25    1    1    2    0    0  0.22184780480E+02  0.60755709461E+02  0.27736275297E+04  0.27771960850E+04  0.12500000000E+03 0.  0.
         25    1    1    2    0    0 -0.22184780480E+02 -0.60755709461E+02  0.80460635637E+03  0.81682299761E+03  0.12500000000E+03 0.  0.
</event>
<event>
 4    0  0.2193754E-002  0.2304042E+03  0.7546771E-02  0.1126356E+00
         21   -1    0    0  502  501  0.00000000000E+00  0.00000000000E+00  0.16697922054E+04  0.16697922054E+04  0.00000000000E+00 0. -1.
         21   -1    0    0  501  502 -0.00000000000E+00 -0.00000000000E+00 -0.31792028306E+02  0.31792028306E+02  0.00000000000E+00 0. -1.
         25    1    1    2    0    0 -0.75245682370E+02 -0.39001010840E+02  0.17646424665E+03  0.23226627372E+03  0.12500000000E+03 0.  0.
         25    1    1    2    0    0  0.75245682370E+02  0.39001010840E+02  0.14615359304E+04  0.14693179600E+04  0.12500000000E+03 0.  0.
</event>
<event>
 4    0  0.2193754E-002  0.1899648E+03  0.7546771E-02  0.1158493E+00
         21   -1    0    0  502  501  0.00000000000E+00  0.00000000000E+00  0.55869048400E+03  0.55869048400E+03  0.00000000000E+00 0. -1.
         21   -1    0    0  501  502 -0.00000000000E+00 -0.00000000000E+00 -0.64591457983E+02  0.64591457983E+02  0.00000000000E+00 0. -1.
         25    1    1    2    0    0 -0.43373012981E+02  0.13275265430E+03  0.19629545287E+03  0.27140631955E+03  0.12500000000E+03 0.  0.
         25    1    1    2    0    0  0.43373012981E+02 -0.13275265430E+03  0.29780357315E+03  0.35187562243E+03  0.12500000000E+03 0.  0.
</event>
<event>
 4    0  0.2193754E-002  0.2634524E+03  0.7546771E-02  0.1105087E+00
         21   -1    0    0  502  501  0.00000000000E+00  0.00000000000E+00  0.48480816795E+03  0.48480816795E+03  0.00000000000E+00 0.  1.
         21   -1    0    0  501  502 -0.00000000000E+00 -0.00000000000E+00 -0.14316417935E+03  0.14316417935E+03  0.00000000000E+00 0.  1.
         25    1    1    2    0    0 -0.15752185539E+02  0.22867381084E+03  0.21282933442E+03  0.33683997492E+03  0.12500000000E+03 0.  0.
         25    1    1    2    0    0  0.15752185539E+02 -0.22867381084E+03  0.12881465417E+03  0.29113237238E+03  0.12500000000E+03 0.  0.
</event>
<event>
 4    0  0.2193754E-002  0.1900974E+03  0.7546771E-02  0.1158373E+00
         21   -1    0    0  502  501  0.00000000000E+00  0.00000000000E+00  0.11338428219E+03  0.11338428219E+03  0.00000000000E+00 0. -1.
         21   -1    0    0  501  502 -0.00000000000E+00 -0.00000000000E+00 -0.31871295623E+03  0.31871295623E+03  0.00000000000E+00 0. -1.
         25    1    1    2    0    0  0.12522140955E+03 -0.33340040197E+02 -0.17198318751E+03  0.24898830591E+03  0.12500000000E+03 0.  0.
         25    1    1    2    0    0 -0.12522140955E+03  0.33340040197E+02 -0.33345486527E+02  0.18310893250E+03  0.12500000000E+03 0.  0.
</event>
<event>
 4    0  0.2193754E-002  0.3068479E+03  0.7546771E-02  0.1081867E+00
         21   -1    0    0  502  501  0.00000000000E+00  0.00000000000E+00  0.12256990490E+04  0.12256990490E+04  0.00000000000E+00 0.  1.
         21   -1    0    0  501  502 -0.00000000000E+00 -0.00000000000E+00 -0.76817928325E+02  0.76817928325E+02  0.00000000000E+00 0.  1.
         25    1    1    2    0    0 -0.15660273105E+03 -0.14653220112E+03  0.19161348251E+03  0.31358703420E+03  0.12500000000E+03 0.  0.
         25    1    1    2    0    0  0.15660273105E+03  0.14653220112E+03  0.95726763815E+03  0.98892994311E+03  0.12500000000E+03 0.  0.
</event>
<event>
 4    0  0.2193754E-002  0.2023296E+03  0.7546771E-02  0.1147788E+00
         21   -1    0    0  502  501  0.00000000000E+00  0.00000000000E+00  0.51471932406E+03  0.51471932406E+03  0.00000000000E+00 0. -1.
         21   -1    0    0  501  502 -0.00000000000E+00 -0.00000000000E+00 -0.79533176275E+02  0.79533176275E+02  0.00000000000E+00 0. -1.
         25    1    1    2    0    0 -0.66248153330E+02 -0.10406638649E+03  0.70054575887E+02  0.18908007357E+03  0.12500000000E+03 0.  0.
         25    1    1    2    0    0  0.66248153330E+02  0.10406638649E+03  0.36513157190E+03  0.40517242677E+03  0.12500000000E+03 0.  0.
</event>
<event>
 4    0  0.2193754E-002  0.4757043E+03  0.7546771E-02  0.1020322E+00
         21   -1    0    0  502  501  0.00000000000E+00  0.00000000000E+00  0.15133929606E+03  0.15133929606E+03  0.00000000000E+00 0.  1.
         21   -1    0    0  501  502 -0.00000000000E+00 -0.00000000000E+00 -0.14952797378E+04  0.14952797378E+04  0.00000000000E+00 0.  1.
         25    1    1    2    0    0  0.37822519742E+03 -0.17843886890E+03 -0.34461823052E+03  0.55613078921E+03  0.12500000000E+03 0.  0.
         25    1    1    2    0    0 -0.37822519742E+03  0.17843886890E+03 -0.99932221119E+03  0.10904882446E+04  0.12500000000E+03 0.  0.
</event>
<event>
 4    0  0.2193754E-002  0.1612545E+03  0.7546771E-02  0.1187288E+00
         21   -1    0    0  502  501  0.00000000000E+00  0.00000000000E+00  0.28999188208E+03  0.28999188208E+03  0.00000000000E+00 0. -1.
         21   -1    0    0  501  502 -0.00000000000E+00 -0.00000000000E+00 -0.89668115672E+02  0.89668115672E+02  0.00000000000E+00 0. -1.
         25    1    1    2    0    0 -0.48671805641E+02 -0.84021628497E+02  0.13643528154E+03  0.20896929145E+03  0.12500000000E+03 0.  0.
         25    1    1    2    0    0  0.48671805641E+02  0.84021628497E+02  0.63888484869E+02  0.17069070630E+03  0.12500000000E+03 0.  0.
</event>
<event>
 4    0  0.2193754E-002  0.1984527E+03  0.7546771E-02  0.1151051E+00
         21   -1    0    0  502  501  0.00000000000E+00  0.00000000000E+00  0.63621926438E+03  0.63621926438E+03  0.00000000000E+00 0. -1.
         21   -1    0    0  501  502 -0.00000000000E+00 -0.00000000000E+00 -0.61902382125E+02  0.61902382125E+02  0.00000000000E+00 0. -1.
         25    1    1    2    0    0 -0.39758460312E+02  0.11906817066E+03  0.12983145427E+03  0.21963417528E+03  0.12500000000E+03 0.  0.
         25    1    1    2    0    0  0.39758460312E+02 -0.11906817066E+03  0.44448542799E+03  0.47848747123E+03  0.12500000000E+03 0.  0.
</event>
<event>
 4    0  0.2193754E-002  0.1957321E+03  0.7546771E-02  0.1153391E+00
         21   -1    0    0  502  501  0.00000000000E+00  0.00000000000E+00  0.51241017906E+03  0.51241017906E+03  0.00000000000E+00 0. -1.
         21   -1    0    0  501  502 -0.00000000000E+00 -0.00000000000E+00 -0.74766346614E+02  0.74766346614E+02  0.00000000000E+00 0. -1.
         25    1    1    2    0    0 -0.21512664472E+02  0.71869069864E+02  0.41472523678E+03  0.43960207001E+03  0.12500000000E+03 0.  0.
         25    1    1    2    0    0  0.21512664472E+02 -0.71869069864E+02  0.22918595663E+02  0.14757445566E+03  0.12500000000E+03 0.  0.
</event>
<event>
 4    0  0.2193754E-002  0.2464118E+03  0.7546771E-02  0.1115594E+00
         21   -1    0    0  502  501  0.00000000000E+00  0.00000000000E+00  0.44688734386E+02  0.44688734386E+02  0.00000000000E+00 0. -1.
         21   -1    0    0  501  502 -0.00000000000E+00 -0.00000000000E+00 -0.13587043959E+04  0.13587043959E+04  0.00000000000E+00 0. -1.
         25    1    1    2    0    0  0.14155258239E+03 -0.37732615914E+02 -0.10947781411E+04  0.11115867317E+04  0.12500000000E+03 0.  0.
         25    1    1    2    0    0 -0.14155258239E+03  0.37732615914E+02 -0.21923752037E+03  0.29180639853E+03  0.12500000000E+03 0.  0.
</event>
<event>
 4    0  0.2193754E-002  0.2111125E+03  0.7546771E-02  0.1140688E+00
         21   -1    0    0  502  501  0.00000000000E+00  0.00000000000E+00  0.98579292037E+03  0.98579292037E+03  0.00000000000E+00 0.  1.
         21   -1    0    0  501  502 -0.00000000000E+00 -0.00000000000E+00 -0.45210821952E+02  0.45210821952E+02  0.00000000000E+00 0.  1.
         25    1    1    2    0    0  0.15536264076E+03  0.23391558783E+02  0.31093833507E+03  0.37012479433E+03  0.12500000000E+03 0.  0.
         25    1    1    2    0    0 -0.15536264076E+03 -0.23391558783E+02  0.62964376336E+03  0.66087894799E+03  0.12500000000E+03 0.  0.
</event>
<event>
 4    0  0.2193754E-002  0.2266305E+03  0.7546771E-02  0.1129034E+00
         21   -1    0    0  502  501  0.00000000000E+00  0.00000000000E+00  0.33820659822E+03  0.33820659822E+03  0.00000000000E+00 0.  1.
         21   -1    0    0  501  502 -0.00000000000E+00 -0.00000000000E+00 -0.15186396911E+03  0.15186396911E+03  0.00000000000E+00 0.  1.
         25    1    1    2    0    0  0.39204398184E+01  0.11622022308E+03  0.25431841131E+03  0.30630926273E+03  0.12500000000E+03 0.  0.
         25    1    1    2    0    0 -0.39204398184E+01 -0.11622022308E+03 -0.67975782210E+02  0.18376130460E+03  0.12500000000E+03 0.  0.
</event>
<event>
 4    0  0.2193754E-002  0.3813327E+03  0.7546771E-02  0.1050442E+00
         21   -1    0    0  502  501  0.00000000000E+00  0.00000000000E+00  0.19226628005E+04  0.19226628005E+04  0.00000000000E+00 0. -1.
         21   -1    0    0  501  502 -0.00000000000E+00 -0.00000000000E+00 -0.75631876481E+02  0.75631876481E+02  0.00000000000E+00 0. -1.
         25    1    1    2    0    0 -0.39968176565E+02  0.33336111985E+03  0.58126273265E+03  0.68280191545E+03  0.12500000000E+03 0.  0.
         25    1    1    2    0    0  0.39968176565E+02 -0.33336111985E+03  0.12657681914E+04  0.13154927615E+04  0.12500000000E+03 0.  0.
</event>
<event>
 4    0  0.2193754E-002  0.2420200E+03  0.7546771E-02  0.1118454E+00
         21   -1    0    0  502  501  0.00000000000E+00  0.00000000000E+00  0.18560832626E+04  0.18560832626E+04  0.00000000000E+00 0. -1.
         21   -1    0    0  501  502 -0.00000000000E+00 -0.00000000000E+00 -0.31557669743E+02  0.31557669743E+02  0.00000000000E+00 0. -1.
         25    1    1    2    0    0 -0.13177633930E+03 -0.54396212405E+02  0.14988461322E+04  0.15107907464E+04  0.12500000000E+03 0.  0.
         25    1    1    2    0    0  0.13177633930E+03  0.54396212405E+02  0.32567946071E+03  0.37685018595E+03  0.12500000000E+03 0.  0.
</event>
<event>
 4    0  0.2193754E-002  0.2085356E+03  0.7546771E-02  0.1142731E+00
         21   -1    0    0  502  501  0.00000000000E+00  0.00000000000E+00  0.86671074241E+03  0.86671074241E+03  0.00000000000E+00 0.  1.
         21   -1    0    0  501  502 -0.00000000000E+00 -0.00000000000E+00 -0.50174864534E+02  0.50174864534E+02  0.00000000000E+00 0.  1.
         25    1    1    2    0    0  0.92376657624E+02 -0.92368842003E+02  0.63669595156E+03  0.66187021732E+03  0.12500000000E+03 0.  0.
         25    1    1    2    0    0 -0.92376657624E+02  0.92368842003E+02  0.17983992632E+03  0.25501538962E+03  0.12500000000E+03 0.  0.
</event>
<event>
 4    0  0.2213256E-002  0.3104785E+03  0.7546771E-02  0.1080117E+00
         21   -1    0    0  502  501  0.00000000000E+00  0.00000000000E+00  0.35795995840E+03  0.35795995840E+03  0.00000000000E+00 0.  1.
         21   -1    0    0  501  502 -0.00000000000E+00 -0.00000000000E+00 -0.26929524970E+03  0.26929524970E+03  0.00000000000E+00 0.  1.
         25    1    1    2    0    0  0.11354656330E+02 -0.50713600422E+02  0.32657842941E+03  0.35352406996E+03  0.12500000000E+03 0.  0.
         25    1    1    2    0    0 -0.11354656330E+02  0.50713600422E+02 -0.23791372071E+03  0.27373113814E+03  0.12500000000E+03 0.  0.
</event>
<event>
 4    0  0.2193754E-002  0.1980365E+03  0.7546771E-02  0.1151406E+00
         21   -1    0    0  502  501  0.00000000000E+00  0.00000000000E+00  0.12306607057E+03  0.12306607057E+03  0.00000000000E+00 0.  1.
         21   -1    0    0  501  502 -0.00000000000E+00 -0.00000000000E+00 -0.31867820375E+03  0.31867820375E+03  0.00000000000E+00 0.  1.
         25    1    1    2    0    0  0.15068530284E+03 -0.12241911606E+02 -0.12809549992E+03  0.23428483091E+03  0.12500000000E+03 0.  0.
         25    1    1    2    0    0 -0.15068530284E+03  0.12241911606E+02 -0.67516633259E+02  0.20745944341E+03  0.12500000000E+03 0.  0.
</event>
<event>
 4    0  0.2193754E-002  0.2130934E+03  0.7546771E-02  0.1139140E+00
         21   -1    0    0  502  501  0.00000000000E+00  0.00000000000E+00  0.40239827248E+03  0.40239827248E+03  0.00000000000E+00 0. -1.
         21   -1    0    0  501  502 -0.00000000000E+00 -0.00000000000E+00 -0.11284539267E+03  0.11284539267E+03  0.00000000000E+00 0. -1.
         25    1    1    2    0    0 -0.14775343431E+03  0.78720539538E+02  0.19543455505E+03  0.28609031092E+03  0.12500000000E+03 0.  0.
         25    1    1    2    0    0  0.14775343431E+03 -0.78720539538E+02  0.94118324769E+02  0.22915335423E+03  0.12500000000E+03 0.  0.
</event>
<event>
 4    0  0.2193754E-002  0.2366957E+03  0.7546771E-02  0.1122014E+00
         21   -1    0    0  502  501  0.00000000000E+00  0.00000000000E+00  0.32259471730E+03  0.32259471730E+03  0.00000000000E+00 0. -1.
         21   -1    0    0  501  502 -0.00000000000E+00 -0.00000000000E+00 -0.17366941385E+03  0.17366941385E+03  0.00000000000E+00 0. -1.
         25    1    1    2    0    0  0.94017174764E+02 -0.89768958413E+02 -0.86248607651E+02  0.19990377027E+03  0.12500000000E+03 0.  0.
         25    1    1    2    0    0 -0.94017174764E+02  0.89768958413E+02  0.23517391109E+03  0.29636036088E+03  0.12500000000E+03 0.  0.
</event>
<event>
 4    0  0.2193754E-002  0.3527034E+03  0.7546771E-02  0.1061511E+00
         21   -1    0    0  502  501  0.00000000000E+00  0.00000000000E+00  0.44298117457E+03  0.44298117457E+03  0.00000000000E+00 0.  1.
         21   -1    0    0  501  502 -0.00000000000E+00 -0.00000000000E+00 -0.28082388425E+03  0.28082388425E+03  0.00000000000E+00 0.  1.
         25    1    1    2    0    0  0.32331158926E+02  0.67243710660E+01  0.41779010759E+03  0.43733750697E+03  0.12500000000E+03 0.  0.
         25    1    1    2    0    0 -0.32331158926E+02 -0.67243710660E+01 -0.25563281726E+03  0.28646755185E+03  0.12500000000E+03 0.  0.
</event>
<event>
 4    0  0.2193754E-002  0.3948333E+03  0.7546771E-02  0.1045584E+00
         21   -1    0    0  502  501  0.00000000000E+00  0.00000000000E+00  0.63731051710E+03  0.63731051710E+03  0.00000000000E+00 0. -1.
         21   -1    0    0  501  502 -0.00000000000E+00 -0.00000000000E+00 -0.24461128840E+03  0.24461128840E+03  0.00000000000E+00 0. -1.
         25    1    1    2    0    0 -0.89833289671E+02 -0.36350387647E+03  0.18746689476E+03  0.43700563471E+03  0.12500000000E+03 0.  0.
         25    1    1    2    0    0  0.89833289671E+02  0.36350387647E+03  0.20523233393E+03  0.44491617079E+03  0.12500000000E+03 0.  0.
</event>
<event>
 4    0  0.2193754E-002  0.2269054E+03  0.7546771E-02  0.1128837E+00
         21   -1    0    0  502  501  0.00000000000E+00  0.00000000000E+00  0.48850476776E+02  0.48850476776E+02  0.00000000000E+00 0. -1.
         21   -1    0    0  501  502 -0.00000000000E+00 -0.00000000000E+00 -0.10539521630E+04  0.10539521630E+04  0.00000000000E+00 0. -1.
         25    1    1    2    0    0  0.51788894514E+02  0.15174274010E+03 -0.25768813894E+03  0.32823181704E+03  0.12500000000E+03 0.  0.
         25    1    1    2    0    0 -0.51788894514E+02 -0.15174274010E+03 -0.74741354730E+03  0.77457082275E+03  0.12500000000E+03 0.  0.
</event>
<event>
 4    0  0.2193754E-002  0.2992036E+03  0.7546771E-02  0.1085639E+00
         21   -1    0    0  502  501  0.00000000000E+00  0.00000000000E+00  0.14064907409E+03  0.14064907409E+03  0.00000000000E+00 0. -1.
         21   -1    0    0  501  502 -0.00000000000E+00 -0.00000000000E+00 -0.63649747806E+03  0.63649747806E+03  0.00000000000E+00 0. -1.
         25    1    1    2    0    0  0.38803685859E+01  0.52946232266E+02 -0.59416487621E+03  0.60948770364E+03  0.12500000000E+03 0.  0.
         25    1    1    2    0    0 -0.38803685859E+01 -0.52946232266E+02  0.98316472235E+02  0.16765884851E+03  0.12500000000E+03 0.  0.
</event>
<event>
 4    0  0.2193754E-002  0.1883772E+03  0.7546771E-02  0.1159933E+00
         21   -1    0    0  502  501  0.00000000000E+00  0.00000000000E+00  0.12020551409E+03  0.12020551409E+03  0.00000000000E+00 0. -1.
         21   -1    0    0  501  502 -0.00000000000E+00 -0.00000000000E+00 -0.29521073524E+03  0.29521073524E+03  0.00000000000E+00 0. -1.
         25    1    1    2    0    0  0.94398564391E+02 -0.93616328248E+02 -0.35951785007E+02  0.18599095870E+03  0.12500000000E+03 0.  0.
         25    1    1    2    0    0 -0.94398564391E+02  0.93616328248E+02 -0.13905343614E+03  0.22942529062E+03  0.12500000000E+03 0.  0.
</event>
<event>
 4    0  0.2193754E-002  0.5773769E+03  0.7546771E-02  0.9953486E-01
         21   -1    0    0  502  501  0.00000000000E+00  0.00000000000E+00  0.75475120330E+03  0.75475120330E+03  0.00000000000E+00 0. -1.
         21   -1    0    0  501  502 -0.00000000000E+00 -0.00000000000E+00 -0.44168732499E+03  0.44168732499E+03  0.00000000000E+00 0. -1.
         25    1    1    2    0    0  0.21020442340E+03  0.21348813787E+03  0.65123607495E+03  0.72766510838E+03  0.12500000000E+03 0.  0.
         25    1    1    2    0    0 -0.21020442340E+03 -0.21348813787E+03 -0.33817219664E+03  0.46877341991E+03  0.12500000000E+03 0.  0.
</event>
<event>
 4    0  0.2193754E-002  0.2194353E+03  0.7546771E-02  0.1134305E+00
         21   -1    0    0  502  501  0.00000000000E+00  0.00000000000E+00  0.14780118013E+04  0.14780118013E+04  0.00000000000E+00 0.  1.
         21   -1    0    0  501  502 -0.00000000000E+00 -0.00000000000E+00 -0.32578793618E+02  0.32578793618E+02  0.00000000000E+00 0.  1.
         25    1    1    2    0    0 -0.16647206553E+03  0.40085161905E+02  0.52779276699E+03  0.56877937172E+03  0.12500000000E+03 0.  0.
         25    1    1    2    0    0  0.16647206553E+03 -0.40085161905E+02  0.91764024071E+03  0.94181122322E+03  0.12500000000E+03 0.  0.
</event>
<event>
 4    0  0.2193754E-002  0.1852686E+03  0.7546771E-02  0.1162799E+00
         21   -1    0    0  502  501  0.00000000000E+00  0.00000000000E+00  0.28386214724E+03  0.28386214724E+03  0.00000000000E+00 0. -1.
         21   -1    0    0  501  502 -0.00000000000E+00 -0.00000000000E+00 -0.12091940969E+03  0.12091940969E+03  0.00000000000E+00 0. -1.
         25    1    1    2    0    0  0.45271781594E+02 -0.12317598707E+03  0.39479495614E+02  0.18548716552E+03  0.12500000000E+03 0.  0.
         25    1    1    2    0    0 -0.45271781594E+02  0.12317598707E+03  0.12346324193E+03  0.21929439142E+03  0.12500000000E+03 0.  0.
</event>
<event>
 4    0  0.2193754E-002  0.2232619E+03  0.7546771E-02  0.1131474E+00
         21   -1    0    0  502  501  0.00000000000E+00  0.00000000000E+00  0.20295210183E+03  0.20295210183E+03  0.00000000000E+00 0. -1.
         21   -1    0    0  501  502 -0.00000000000E+00 -0.00000000000E+00 -0.24560422508E+03  0.24560422508E+03  0.00000000000E+00 0. -1.
         25    1    1    2    0    0  0.49819845325E+02  0.41642233745E+02  0.15268132063E+03  0.20773222737E+03  0.12500000000E+03 0.  0.
         25    1    1    2    0    0 -0.49819845325E+02 -0.41642233745E+02 -0.19533344388E+03  0.24082409953E+03  0.12500000000E+03 0.  0.
</event>
<event>
 4    0  0.2193754E-002  0.1997150E+03  0.7546771E-02  0.1149980E+00
         21   -1    0    0  502  501  0.00000000000E+00  0.00000000000E+00  0.39967069948E+02  0.39967069948E+02  0.00000000000E+00 0.  1.
         21   -1    0    0  501  502 -0.00000000000E+00 -0.00000000000E+00 -0.99797323640E+03  0.99797323640E+03  0.00000000000E+00 0.  1.
         25    1    1    2    0    0 -0.64315585919E+01  0.80869708504E+02 -0.82452082122E+03  0.83787878558E+03  0.12500000000E+03 0.  0.
         25    1    1    2    0    0  0.64315585919E+01 -0.80869708504E+02 -0.13348534522E+03  0.20006152076E+03  0.12500000000E+03 0.  0.
</event>
<event>
 4    0  0.2193754E-002  0.2125375E+03  0.7546771E-02  0.1139572E+00
         21   -1    0    0  502  501  0.00000000000E+00  0.00000000000E+00  0.70349071722E+02  0.70349071722E+02  0.00000000000E+00 0.  1.
         21   -1    0    0  501  502 -0.00000000000E+00 -0.00000000000E+00 -0.64211471145E+03  0.64211471145E+03  0.00000000000E+00 0.  1.
         25    1    1    2    0    0 -0.14639088955E+03 -0.82899494589E+02 -0.22675329714E+03  0.30877933304E+03  0.12500000000E+03 0.  0.
         25    1    1    2    0    0  0.14639088955E+03  0.82899494589E+02 -0.34501234258E+03  0.40368445014E+03  0.12500000000E+03 0.  0.
</event>
<event>
 4    0  0.2193754E-002  0.2426735E+03  0.7546771E-02  0.1118025E+00
         21   -1    0    0  502  501  0.00000000000E+00  0.00000000000E+00  0.30076598131E+04  0.30076598131E+04  0.00000000000E+00 0. -1.
         21   -1    0    0  501  502 -0.00000000000E+00 -0.00000000000E+00 -0.19580142325E+02  0.19580142325E+02  0.00000000000E+00 0. -1.
         25    1    1    2    0    0  0.71369462347E+02  0.18205752535E+03  0.10518149657E+04  0.10771157156E+04  0.12500000000E+03 0.  0.
         25    1    1    2    0    0 -0.71369462347E+02 -0.18205752535E+03  0.19362647051E+04  0.19501242398E+04  0.12500000000E+03 0.  0.
</event>
<event>
 4    0  0.2193754E-002  0.3279455E+03  0.7546771E-02  0.1072050E+00
         21   -1    0    0  502  501  0.00000000000E+00  0.00000000000E+00  0.32521027222E+03  0.32521027222E+03  0.00000000000E+00 0.  1.
         21   -1    0    0  501  502 -0.00000000000E+00 -0.00000000000E+00 -0.33070363455E+03  0.33070363455E+03  0.00000000000E+00 0.  1.
         25    1    1    2    0    0 -0.28706813339E+03 -0.81850974156E+02  0.50316689836E+02  0.32751254091E+03  0.12500000000E+03 0.  0.
         25    1    1    2    0    0  0.28706813339E+03  0.81850974156E+02 -0.55810052162E+02  0.32840136586E+03  0.12500000000E+03 0.  0.
</event>
<event>
 4    0  0.2193754E-002  0.1759858E+03  0.7546771E-02  0.1171746E+00
         21   -1    0    0  502  501  0.00000000000E+00  0.00000000000E+00  0.75916023458E+02  0.75916023458E+02  0.00000000000E+00 0. -1.
         21   -1    0    0  501  502 -0.00000000000E+00 -0.00000000000E+00 -0.40796390034E+03  0.40796390034E+03  0.00000000000E+00 0. -1.
         25    1    1    2    0    0  0.59849326448E+02  0.10608370552E+03 -0.13496805458E+03  0.22062880639E+03  0.12500000000E+03 0.  0.
         25    1    1    2    0    0 -0.59849326448E+02 -0.10608370552E+03 -0.19707982230E+03  0.26325111740E+03  0.12500000000E+03 0.  0.
</event>
<event>
 4    0  0.2193754E-002  0.1812015E+03  0.7546771E-02  0.1166645E+00
         21   -1    0    0  502  501  0.00000000000E+00  0.00000000000E+00  0.48396765759E+03  0.48396765759E+03  0.00000000000E+00 0.  1.
         21   -1    0    0  501  502 -0.00000000000E+00 -0.00000000000E+00 -0.67843350881E+02  0.67843350881E+02  0.00000000000E+00 0.  1.
         25    1    1    2    0    0  0.66878896485E+02  0.82552030519E+02  0.32523025541E+03  0.36426273975E+03  0.12500000000E+03 0.  0.
         25    1    1    2    0    0 -0.66878896485E+02 -0.82552030519E+02  0.90894051299E+02  0.18754826872E+03  0.12500000000E+03 0.  0.
</event>
<event>
 4    0  0.2193754E-002  0.2010101E+03  0.7546771E-02  0.1148890E+00
         21   -1    0    0  502  501  0.00000000000E+00  0.00000000000E+00  0.24725307335E+03  0.24725307335E+03  0.00000000000E+00 0.  1.
         21   -1    0    0  501  502 -0.00000000000E+00 -0.00000000000E+00 -0.16341584181E+03  0.16341584181E+03  0.00000000000E+00 0.  1.
         25    1    1    2    0    0 -0.13763196314E+03 -0.18291506898E+02 -0.33859012051E+02  0.18986460755E+03  0.12500000000E+03 0.  0.
         25    1    1    2    0    0  0.13763196314E+03  0.18291506898E+02  0.11769624359E+03  0.22080430761E+03  0.12500000000E+03 0.  0.
</event>
<event>
 4    0  0.2193754E-002  0.1908813E+03  0.7546771E-02  0.1157669E+00
         21   -1    0    0  502  501  0.00000000000E+00  0.00000000000E+00  0.10286907911E+03  0.10286907911E+03  0.00000000000E+00 0. -1.
         21   -1    0    0  501  502 -0.00000000000E+00 -0.00000000000E+00 -0.35419469877E+03  0.35419469877E+03  0.00000000000E+00 0. -1.
         25    1    1    2    0    0 -0.73861455531E+02  0.11702096056E+03 -0.17446086429E+03  0.25536447089E+03  0.12500000000E+03 0.  0.
         25    1    1    2    0    0  0.73861455531E+02 -0.11702096056E+03 -0.76864755378E+02  0.20169930700E+03  0.12500000000E+03 0.  0.
</event>
<event>
 4    0  0.2193754E-002  0.3737419E+03  0.7546771E-02  0.1053271E+00
         21   -1    0    0  502  501  0.00000000000E+00  0.00000000000E+00  0.89620878265E+03  0.89620878265E+03  0.00000000000E+00 0. -1.
         21   -1    0    0  501  502 -0.00000000000E+00 -0.00000000000E+00 -0.15585988628E+03  0.15585988628E+03  0.00000000000E+00 0. -1.
         25    1    1    2    0    0 -0.32014970650E+03 -0.49482098740E+02  0.56476177104E+03  0.66296694540E+03  0.12500000000E+03 0.  0.
         25    1    1    2    0    0  0.32014970650E+03  0.49482098740E+02  0.17558712534E+03  0.38910172353E+03  0.12500000000E+03 0.  0.
</event>
<event>
 4    0  0.2193754E-002  0.2482060E+03  0.7546771E-02  0.1114444E+00
         21   -1    0    0  502  501  0.00000000000E+00  0.00000000000E+00  0.99490613333E+02  0.99490613333E+02  0.00000000000E+00 0. -1.
         21   -1    0    0  501  502 -0.00000000000E+00 -0.00000000000E+00 -0.61921662240E+03  0.61921662240E+03  0.00000000000E+00 0. -1.
         25    1    1    2    0    0  0.16804061973E+03  0.17319303462E+01 -0.67024515712E+02  0.21990437733E+03  0.12500000000E+03 0.  0.
         25    1    1    2    0    0 -0.16804061973E+03 -0.17319303462E+01 -0.45270149336E+03  0.49880285840E+03  0.12500000000E+03 0.  0.
</event>
<event>
 4    0  0.2193754E-002  0.2185120E+03  0.7546771E-02  0.1134997E+00
         21   -1    0    0  502  501  0.00000000000E+00  0.00000000000E+00  0.39077288378E+03  0.39077288378E+03  0.00000000000E+00 0. -1.
         21   -1    0    0  501  502 -0.00000000000E+00 -0.00000000000E+00 -0.12218737052E+03  0.12218737052E+03  0.00000000000E+00 0. -1.
         25    1    1    2    0    0  0.17215317064E+03 -0.46542256962E+02  0.15527694257E+03  0.26746742744E+03  0.12500000000E+03 0.  0.
         25    1    1    2    0    0 -0.17215317064E+03  0.46542256962E+02  0.11330857069E+03  0.24549282686E+03  0.12500000000E+03 0.  0.
</event>
<event>
 4    0  0.2193754E-002  0.1941128E+03  0.7546771E-02  0.1154803E+00
         21   -1    0    0  502  501  0.00000000000E+00  0.00000000000E+00  0.13544898301E+03  0.13544898301E+03  0.00000000000E+00 0. -1.
         21   -1    0    0  501  502 -0.00000000000E+00 -0.00000000000E+00 -0.27818427089E+03  0.27818427089E+03  0.00000000000E+00 0. -1.
         25    1    1    2    0    0  0.91705189120E+02  0.41825824083E+01 -0.19574417631E+03  0.24973609725E+03  0.12500000000E+03 0.  0.
         25    1    1    2    0    0 -0.91705189120E+02 -0.41825824083E+01  0.53008888432E+02  0.16389715666E+03  0.12500000000E+03 0.  0.
</event>
<event>
 4    0  0.2193754E-002  0.2592392E+03  0.7546771E-02  0.1107601E+00
         21   -1    0    0  502  501  0.00000000000E+00  0.00000000000E+00  0.10551903340E+04  0.10551903340E+04  0.00000000000E+00 0. -1.
         21   -1    0    0  501  502 -0.00000000000E+00 -0.00000000000E+00 -0.63689898742E+02  0.63689898742E+02  0.00000000000E+00 0. -1.
         25    1    1    2    0    0  0.81390832346E+02 -0.87999851568E+02  0.79464363734E+02  0.19054665195E+03  0.12500000000E+03 0.  0.
         25    1    1    2    0    0 -0.81390832346E+02  0.87999851568E+02  0.91203607157E+03  0.92833358084E+03  0.12500000000E+03 0.  0.
</event>
<event>
 4    0  0.2193754E-002  0.2779474E+03  0.7546771E-02  0.1096815E+00
         21   -1    0    0  502  501  0.00000000000E+00  0.00000000000E+00  0.23054032298E+04  0.23054032298E+04  0.00000000000E+00 0. -1.
         21   -1    0    0  501  502 -0.00000000000E+00 -0.00000000000E+00 -0.33510306657E+02  0.33510306657E+02  0.00000000000E+00 0. -1.
         25    1    1    2    0    0  0.22058244720E+03 -0.10829122214E+03  0.98741816815E+03  0.10251844925E+04  0.12500000000E+03 0.  0.
         25    1    1    2    0    0 -0.22058244720E+03  0.10829122214E+03  0.12844747550E+04  0.13137290440E+04  0.12500000000E+03 0.  0.
</event>
<event>
 4    0  0.2193754E-002  0.2534158E+03  0.7546771E-02  0.1111165E+00
         21   -1    0    0  502  501  0.00000000000E+00  0.00000000000E+00  0.14731900379E+03  0.14731900379E+03  0.00000000000E+00 0. -1.
         21   -1    0    0  501  502 -0.00000000000E+00 -0.00000000000E+00 -0.43592198411E+03  0.43592198411E+03  0.00000000000E+00 0. -1.
         25    1    1    2    0    0  0.21405540902E+03 -0.52584900100E+02 -0.14788598419E+03  0.29339419586E+03  0.12500000000E+03 0.  0.
         25    1    1    2    0    0 -0.21405540902E+03  0.52584900100E+02 -0.14071699613E+03  0.28984679203E+03  0.12500000000E+03 0.  0.
</event>
<event>
 4    0  0.2193754E-002  0.2836116E+03  0.7546771E-02  0.1093733E+00
         21   -1    0    0  502  501  0.00000000000E+00  0.00000000000E+00  0.29349196375E+03  0.29349196375E+03  0.00000000000E+00 0.  1.
         21   -1    0    0  501  502 -0.00000000000E+00 -0.00000000000E+00 -0.27406384532E+03  0.27406384532E+03  0.00000000000E+00 0.  1.
         25    1    1    2    0    0  0.21716972242E+03 -0.42711540261E+02  0.13557960482E+03  0.28808643365E+03  0.12500000000E+03 0.  0.
         25    1    1    2    0    0 -0.21716972242E+03  0.42711540261E+02 -0.11615148639E+03  0.27946937542E+03  0.12500000000E+03 0.  0.
</event>
<event>
 4    0  0.2193754E-002  0.3140329E+03  0.7546771E-02  0.1078429E+00
         21   -1    0    0  502  501  0.00000000000E+00  0.00000000000E+00  0.13347677046E+03  0.13347677046E+03  0.00000000000E+00 0.  1.
         21   -1    0    0  501  502 -0.00000000000E+00 -0.00000000000E+00 -0.73883032762E+03  0.73883032762E+03  0.00000000000E+00 0. -1.
         25    1    1    2    0    0  0.15766242493E+03 -0.21514979553E+03 -0.45383378476E+03  0.54105173408E+03  0.12500000000E+03 0.  0.
         25    1    1    2    0    0 -0.15766242493E+03  0.21514979553E+03 -0.15151977240E+03  0.33125536400E+03  0.12500000000E+03 0.  0.
</event>
<event>
 4    0  0.2193754E-002  0.1768503E+03  0.7546771E-02  0.1170887E+00
         21   -1    0    0  502  501  0.00000000000E+00  0.00000000000E+00  0.11154999744E+03  0.11154999744E+03  0.00000000000E+00 0. -1.
         21   -1    0    0  501  502 -0.00000000000E+00 -0.00000000000E+00 -0.28037674199E+03  0.28037674199E+03  0.00000000000E+00 0. -1.
         25    1    1    2    0    0 -0.68511826440E+02 -0.95106517369E+02 -0.13286431825E+03  0.21683414646E+03  0.12500000000E+03 0.  0.
         25    1    1    2    0    0  0.68511826440E+02  0.95106517369E+02 -0.35962426305E+02  0.17509259297E+03  0.12500000000E+03 0.  0.
</event>
<event>
 4    0  0.2193754E-002  0.1891139E+03  0.7546771E-02  0.1159263E+00
         21   -1    0    0  502  501  0.00000000000E+00  0.00000000000E+00  0.56884859747E+03  0.56884859747E+03  0.00000000000E+00 0. -1.
         21   -1    0    0  501  502 -0.00000000000E+00 -0.00000000000E+00 -0.62871000220E+02  0.62871000220E+02  0.00000000000E+00 0. -1.
         25    1    1    2    0    0 -0.60890400989E+02 -0.30223860028E+01  0.38952281839E+02  0.14442664578E+03  0.12500000000E+03 0.  0.
         25    1    1    2    0    0  0.60890400989E+02  0.30223860028E+01  0.46702531541E+03  0.48729295191E+03  0.12500000000E+03 0.  0.
</event>
<event>
 4    0  0.2193754E-002  0.2019754E+03  0.7546771E-02  0.1148083E+00
         21   -1    0    0  502  501  0.00000000000E+00  0.00000000000E+00  0.38649452828E+02  0.38649452828E+02  0.00000000000E+00 0. -1.
         21   -1    0    0  501  502 -0.00000000000E+00 -0.00000000000E+00 -0.10554888727E+04  0.10554888727E+04  0.00000000000E+00 0. -1.
         25    1    1    2    0    0 -0.49928027306E+02  0.10376539200E+03 -0.21283536329E+03  0.27236731880E+03  0.12500000000E+03 0.  0.
         25    1    1    2    0    0  0.49928027306E+02 -0.10376539200E+03 -0.80400405663E+03  0.82177100676E+03  0.12500000000E+03 0.  0.
</event>
<event>
 4    0  0.2193754E-002  0.2721851E+03  0.7546771E-02  0.1100036E+00
         21   -1    0    0  502  501  0.00000000000E+00  0.00000000000E+00  0.20952741811E+04  0.20952741811E+04  0.00000000000E+00 0.  1.
         21   -1    0    0  501  502 -0.00000000000E+00 -0.00000000000E+00 -0.35358002049E+02  0.35358002049E+02  0.00000000000E+00 0.  1.
         25    1    1    2    0    0  0.15494559256E+03 -0.15564887001E+03  0.14257308372E+04  0.14479530820E+04  0.12500000000E+03 0.  0.
         25    1    1    2    0    0 -0.15494559256E+03  0.15564887001E+03  0.63418534182E+03  0.68267910117E+03  0.12500000000E+03 0.  0.
</event>
<event>
 4    0  0.2193754E-002  0.3189903E+03  0.7546771E-02  0.1076115E+00
         21   -1    0    0  502  501  0.00000000000E+00  0.00000000000E+00  0.12397416197E+04  0.12397416197E+04  0.00000000000E+00 0.  1.
         21   -1    0    0  501  502 -0.00000000000E+00 -0.00000000000E+00 -0.82077419517E+02  0.82077419517E+02  0.00000000000E+00 0.  1.
         25    1    1    2    0    0  0.12475206985E+03  0.25574680000E+03  0.42999830512E+03  0.53055918336E+03  0.12500000000E+03 0.  0.
         25    1    1    2    0    0 -0.12475206985E+03 -0.25574680000E+03  0.72766589505E+03  0.79125985584E+03  0.12500000000E+03 0.  0.
</event>
<event>
 4    0  0.2193754E-002  0.1508946E+03  0.7546771E-02  0.1199378E+00
         21   -1    0    0  502  501  0.00000000000E+00  0.00000000000E+00  0.53049650818E+02  0.53049650818E+02  0.00000000000E+00 0.  1.
         21   -1    0    0  501  502 -0.00000000000E+00 -0.00000000000E+00 -0.42920521450E+03  0.42920521450E+03  0.00000000000E+00 0.  1.
         25    1    1    2    0    0  0.62966533787E+02 -0.53258088913E+02 -0.15848360846E+03  0.21804417572E+03  0.12500000000E+03 0.  0.
         25    1    1    2    0    0 -0.62966533787E+02  0.53258088913E+02 -0.21767195522E+03  0.26421068960E+03  0.12500000000E+03 0.  0.
</event>
<event>
 4    0  0.2193754E-002  0.2087150E+03  0.7546771E-02  0.1142588E+00
         21   -1    0    0  502  501  0.00000000000E+00  0.00000000000E+00  0.23549653011E+03  0.23549653011E+03  0.00000000000E+00 0. -1.
         21   -1    0    0  501  502 -0.00000000000E+00 -0.00000000000E+00 -0.18497921540E+03  0.18497921540E+03  0.00000000000E+00 0. -1.
         25    1    1    2    0    0  0.42405309644E+01  0.16042210603E+03  0.72330003440E+02  0.21589317637E+03  0.12500000000E+03 0.  0.
         25    1    1    2    0    0 -0.42405309644E+01 -0.16042210603E+03 -0.21812688727E+02  0.20458256914E+03  0.12500000000E+03 0.  0.
</event>
<event>
 4    0  0.2193754E-002  0.3056972E+03  0.7546771E-02  0.1082427E+00
         21   -1    0    0  502  501  0.00000000000E+00  0.00000000000E+00  0.64310803863E+03  0.64310803863E+03  0.00000000000E+00 0. -1.
         21   -1    0    0  501  502 -0.00000000000E+00 -0.00000000000E+00 -0.14531118443E+03  0.14531118443E+03  0.00000000000E+00 0.  1.
         25    1    1    2    0    0 -0.21990700465E+02  0.20444930848E+03  0.49201289528E+03  0.54770868148E+03  0.12500000000E+03 0.  0.
         25    1    1    2    0    0  0.21990700465E+02 -0.20444930848E+03  0.57839589211E+01  0.24071054158E+03  0.12500000000E+03 0.  0.
</event>
<event>
 4    0  0.2193754E-002  0.2909703E+03  0.7546771E-02  0.1089844E+00
         21   -1    0    0  502  501  0.00000000000E+00  0.00000000000E+00  0.17835366353E+03  0.17835366353E+03  0.00000000000E+00 0. -1.
         21   -1    0    0  501  502 -0.00000000000E+00 -0.00000000000E+00 -0.47469574811E+03  0.47469574811E+03  0.00000000000E+00 0. -1.
         25    1    1    2    0    0 -0.21342325566E+02  0.66737192647E+02  0.13601050368E+03  0.19756822835E+03  0.12500000000E+03 0.  0.
         25    1    1    2    0    0  0.21342325566E+02 -0.66737192647E+02 -0.43235258827E+03  0.45548118328E+03  0.12500000000E+03 0.  0.
</event>
<event>
 4    0  0.2193754E-002  0.1872873E+03  0.7546771E-02  0.1160931E+00
         21   -1    0    0  502  501  0.00000000000E+00  0.00000000000E+00  0.12091272465E+04  0.12091272465E+04  0.00000000000E+00 0.  1.
         21   -1    0    0  501  502 -0.00000000000E+00 -0.00000000000E+00 -0.29009785800E+02  0.29009785800E+02  0.00000000000E+00 0.  1.
         25    1    1    2    0    0 -0.13893146126E+03  0.11041960640E+02  0.57267866769E+03  0.60250288983E+03  0.12500000000E+03 0.  0.
         25    1    1    2    0    0  0.13893146126E+03 -0.11041960640E+02  0.60743879300E+03  0.63563414246E+03  0.12500000000E+03 0.  0.
</event>
<event>
 4    0  0.2193754E-002  0.2434066E+03  0.7546771E-02  0.1117544E+00
         21   -1    0    0  502  501  0.00000000000E+00  0.00000000000E+00  0.23493999105E+03  0.23493999105E+03  0.00000000000E+00 0. -1.
         21   -1    0    0  501  502 -0.00000000000E+00 -0.00000000000E+00 -0.25217842349E+03  0.25217842349E+03  0.00000000000E+00 0. -1.
         25    1    1    2    0    0  0.12504293330E+03  0.13996663620E+02 -0.17542749388E+03  0.24946231653E+03  0.12500000000E+03 0.  0.
         25    1    1    2    0    0 -0.12504293330E+03 -0.13996663620E+02  0.15818906144E+03  0.23765609801E+03  0.12500000000E+03 0.  0.
</event>
<event>
 4    0  0.2193754E-002  0.3013680E+03  0.7546771E-02  0.1084559E+00
         21   -1    0    0  502  501  0.00000000000E+00  0.00000000000E+00  0.62634308759E+03  0.62634308759E+03  0.00000000000E+00 0. -1.
         21   -1    0    0  501  502 -0.00000000000E+00 -0.00000000000E+00 -0.14500469442E+03  0.14500469442E+03  0.00000000000E+00 0.  1.
         25    1    1    2    0    0  0.23943847561E+03  0.93201043096E+02  0.36328756165E+03  0.46219051319E+03  0.12500000000E+03 0.  0.
         25    1    1    2    0    0 -0.23943847561E+03 -0.93201043096E+02  0.11805083152E+03  0.30915726881E+03  0.12500000000E+03 0.  0.
</event>
<event>
 4    0  0.2193754E-002  0.2221572E+03  0.7546771E-02  0.1132285E+00
         21   -1    0    0  502  501  0.00000000000E+00  0.00000000000E+00  0.50741288918E+03  0.50741288918E+03  0.00000000000E+00 0. -1.
         21   -1    0    0  501  502 -0.00000000000E+00 -0.00000000000E+00 -0.97265567631E+02  0.97265567631E+02  0.00000000000E+00 0. -1.
         25    1    1    2    0    0 -0.81772806131E+02  0.12780224675E+03  0.34590537620E+03  0.39786396593E+03  0.12500000000E+03 0.  0.
         25    1    1    2    0    0  0.81772806131E+02 -0.12780224675E+03  0.64241945343E+02  0.20681449088E+03  0.12500000000E+03 0.  0.
</event>
<event>
 4    0  0.2193754E-002  0.3998991E+03  0.7546771E-02  0.1043815E+00
         21   -1    0    0  502  501  0.00000000000E+00  0.00000000000E+00  0.71426770964E+03  0.71426770964E+03  0.00000000000E+00 0.  1.
         21   -1    0    0  501  502 -0.00000000000E+00 -0.00000000000E+00 -0.22389263887E+03  0.22389263887E+03  0.00000000000E+00 0.  1.
         25    1    1    2    0    0  0.71916273520E+02  0.37254962514E+03  0.22390779130E+03  0.45795728250E+03  0.12500000000E+03 0.  0.
         25    1    1    2    0    0 -0.71916273520E+02 -0.37254962514E+03  0.26646727946E+03  0.48020306601E+03  0.12500000000E+03 0.  0.
</event>
<event>
 4    0  0.2193754E-002  0.1586821E+03  0.7546771E-02  0.1190193E+00
         21   -1    0    0  502  501  0.00000000000E+00  0.00000000000E+00  0.58248947222E+02  0.58248947222E+02  0.00000000000E+00 0.  1.
         21   -1    0    0  501  502 -0.00000000000E+00 -0.00000000000E+00 -0.43228265496E+03  0.43228265496E+03  0.00000000000E+00 0.  1.
         25    1    1    2    0    0 -0.85886492755E+02  0.40178786048E+02 -0.15030385639E+03  0.21727188896E+03  0.12500000000E+03 0.  0.
         25    1    1    2    0    0  0.85886492755E+02 -0.40178786048E+02 -0.22372985135E+03  0.27325971322E+03  0.12500000000E+03 0.  0.
</event>
<event>
 4    0  0.2193754E-002  0.3331588E+03  0.7546771E-02  0.1069748E+00
         21   -1    0    0  502  501  0.00000000000E+00  0.00000000000E+00  0.59168570007E+03  0.59168570007E+03  0.00000000000E+00 0.  1.
         21   -1    0    0  501  502 -0.00000000000E+00 -0.00000000000E+00 -0.18759075602E+03  0.18759075602E+03  0.00000000000E+00 0.  1.
         25    1    1    2    0    0 -0.53755417076E+02 -0.29071161988E+03  0.97658562143E+02  0.33550720642E+03  0.12500000000E+03 0.  0.
         25    1    1    2    0    0  0.53755417076E+02  0.29071161988E+03  0.30643638191E+03  0.44376924967E+03  0.12500000000E+03 0.  0.
</event>
<event>
 4    0  0.2193754E-002  0.2667094E+03  0.7546771E-02  0.1103178E+00
         21   -1    0    0  502  501  0.00000000000E+00  0.00000000000E+00  0.31861976269E+03  0.31861976269E+03  0.00000000000E+00 0. -1.
         21   -1    0    0  501  502 -0.00000000000E+00 -0.00000000000E+00 -0.22325648273E+03  0.22325648273E+03  0.00000000000E+00 0. -1.
         25    1    1    2    0    0  0.81895043857E+02  0.14067336401E+03 -0.12535140287E+03  0.24048652302E+03  0.12500000000E+03 0.  0.
         25    1    1    2    0    0 -0.81895043857E+02 -0.14067336401E+03  0.22071468283E+03  0.30138972240E+03  0.12500000000E+03 0.  0.
</event>
<event>
 4    0  0.2193754E-002  0.2865384E+03  0.7546771E-02  0.1092170E+00
         21   -1    0    0  502  501  0.00000000000E+00  0.00000000000E+00  0.19303538239E+03  0.19303538239E+03  0.00000000000E+00 0. -1.
         21   -1    0    0  501  502 -0.00000000000E+00 -0.00000000000E+00 -0.42533280979E+03  0.42533280979E+03  0.00000000000E+00 0. -1.
         25    1    1    2    0    0 -0.24479305868E+03  0.74329241667E+02 -0.15079225321E+03  0.32219835718E+03  0.12500000000E+03 0.  0.
         25    1    1    2    0    0  0.24479305868E+03 -0.74329241667E+02 -0.81505174182E+02  0.29616983500E+03  0.12500000000E+03 0.  0.
</event>
<event>
 4    0  0.2193754E-002  0.2235396E+03  0.7546771E-02  0.1131271E+00
         21   -1    0    0  502  501  0.00000000000E+00  0.00000000000E+00  0.11815548864E+04  0.11815548864E+04  0.00000000000E+00 0.  1.
         21   -1    0    0  501  502 -0.00000000000E+00 -0.00000000000E+00 -0.42291691514E+02  0.42291691514E+02  0.00000000000E+00 0.  1.
         25    1    1    2    0    0 -0.78531847521E+02  0.16483663710E+03  0.65648125505E+03  0.69277052928E+03  0.12500000000E+03 0.  0.
         25    1    1    2    0    0  0.78531847521E+02 -0.16483663710E+03  0.48278193986E+03  0.53107604866E+03  0.12500000000E+03 0.  0.
</event>
<event>
 4    0  0.2193754E-002  0.1521206E+03  0.7546771E-02  0.1197891E+00
         21   -1    0    0  502  501  0.00000000000E+00  0.00000000000E+00  0.83149893175E+02  0.83149893175E+02  0.00000000000E+00 0.  1.
         21   -1    0    0  501  502 -0.00000000000E+00 -0.00000000000E+00 -0.27830064698E+03  0.27830064698E+03  0.00000000000E+00 0.  1.
         25    1    1    2    0    0  0.84216080793E+02 -0.74668243914E+01 -0.12035252692E+03  0.19302288068E+03  0.12500000000E+03 0.  0.
         25    1    1    2    0    0 -0.84216080793E+02  0.74668243914E+01 -0.74798226889E+02  0.16842765948E+03  0.12500000000E+03 0.  0.
</event>
<event>
 4    0  0.2193754E-002  0.3353056E+03  0.7546771E-02  0.1068813E+00
         21   -1    0    0  502  501  0.00000000000E+00  0.00000000000E+00  0.40942834692E+03  0.40942834692E+03  0.00000000000E+00 0.  1.
         21   -1    0    0  501  502 -0.00000000000E+00 -0.00000000000E+00 -0.27460206261E+03  0.27460206261E+03  0.00000000000E+00 0.  1.
         25    1    1    2    0    0  0.23146529308E+03 -0.19203852112E+03 -0.13867620090E+02  0.32599430422E+03  0.12500000000E+03 0.  0.
         25    1    1    2    0    0 -0.23146529308E+03  0.19203852112E+03  0.14869390440E+03  0.35803610530E+03  0.12500000000E+03 0.  0.
</event>
<event>
 4    0  0.2193754E-002  0.3958822E+03  0.7546771E-02  0.1045215E+00
         21   -1    0    0  502  501  0.00000000000E+00  0.00000000000E+00  0.60641279001E+03  0.60641279001E+03  0.00000000000E+00 0.  1.
         21   -1    0    0  501  502 -0.00000000000E+00 -0.00000000000E+00 -0.25844228691E+03  0.25844228691E+03  0.00000000000E+00 0.  1.
         25    1    1    2    0    0  0.56950845832E+02  0.34839516106E+03  0.31418966610E+03  0.48883814640E+03  0.12500000000E+03 0.  0.
         25    1    1    2    0    0 -0.56950845832E+02 -0.34839516106E+03  0.33780836997E+02  0.37601693052E+03  0.12500000000E+03 0.  0.
</event>
<event>
 4    0  0.2193754E-002  0.2155628E+03  0.7546771E-02  0.1137235E+00
         21   -1    0    0  502  501  0.00000000000E+00  0.00000000000E+00  0.24763035568E+03  0.24763035568E+03  0.00000000000E+00 0.  1.
         21   -1    0    0  501  502 -0.00000000000E+00 -0.00000000000E+00 -0.18764786023E+03  0.18764786023E+03  0.00000000000E+00 0.  1.
         25    1    1    2    0    0 -0.47752104931E+02  0.45801809987E+02  0.19423651991E+03  0.24027254315E+03  0.12500000000E+03 0.  0.
         25    1    1    2    0    0  0.47752104931E+02 -0.45801809987E+02 -0.13425402447E+03  0.19500567276E+03  0.12500000000E+03 0.  0.
</event>
<event>
 4    0  0.2193754E-002  0.1892097E+03  0.7546771E-02  0.1159176E+00
         21   -1    0    0  502  501  0.00000000000E+00  0.00000000000E+00  0.12283410319E+03  0.12283410319E+03  0.00000000000E+00 0.  1.
         21   -1    0    0  501  502 -0.00000000000E+00 -0.00000000000E+00 -0.29145249958E+03  0.29145249958E+03  0.00000000000E+00 0.  1.
         25    1    1    2    0    0 -0.26055452637E+02 -0.16029896889E+02  0.67544014947E+02  0.14533766945E+03  0.12500000000E+03 0.  0.
         25    1    1    2    0    0  0.26055452637E+02  0.16029896889E+02 -0.23616241133E+03  0.26894893332E+03  0.12500000000E+03 0.  0.
</event>
<event>
 4    0  0.2193754E-002  0.1460609E+03  0.7546771E-02  0.1205399E+00
         21   -1    0    0  502  501  0.00000000000E+00  0.00000000000E+00  0.34945606568E+03  0.34945606568E+03  0.00000000000E+00 0.  1.
         21   -1    0    0  501  502 -0.00000000000E+00 -0.00000000000E+00 -0.61048514860E+02  0.61048514860E+02  0.00000000000E+00 0.  1.
         25    1    1    2    0    0  0.57484907194E+01 -0.54996373350E+02  0.21655893128E+03  0.25608673715E+03  0.12500000000E+03 0.  0.
         25    1    1    2    0    0 -0.57484907194E+01  0.54996373350E+02  0.71848619538E+02  0.15441784339E+03  0.12500000000E+03 0.  0.
</event>
<event>
 4    0  0.2193754E-002  0.2327317E+03  0.7546771E-02  0.1124732E+00
         21   -1    0    0  502  501  0.00000000000E+00  0.00000000000E+00  0.73772895776E+02  0.73772895776E+02  0.00000000000E+00 0. -1.
         21   -1    0    0  501  502 -0.00000000000E+00 -0.00000000000E+00 -0.73419973319E+03  0.73419973319E+03  0.00000000000E+00 0. -1.
         25    1    1    2    0    0 -0.11217707404E+03  0.15308578973E+03 -0.41735366011E+03  0.47521367043E+03  0.12500000000E+03 0.  0.
         25    1    1    2    0    0  0.11217707404E+03 -0.15308578973E+03 -0.24307317730E+03  0.33275895853E+03  0.12500000000E+03 0.  0.
</event>
<event>
 4    0  0.2193754E-002  0.2016100E+03  0.7546771E-02  0.1148388E+00
         21   -1    0    0  502  501  0.00000000000E+00  0.00000000000E+00  0.46110602340E+02  0.46110602340E+02  0.00000000000E+00 0.  1.
         21   -1    0    0  501  502 -0.00000000000E+00 -0.00000000000E+00 -0.88150168586E+03  0.88150168586E+03  0.00000000000E+00 0.  1.
         25    1    1    2    0    0  0.48121609620E+01  0.12019132611E+03 -0.18137502737E+03  0.25098010343E+03  0.12500000000E+03 0.  0.
         25    1    1    2    0    0 -0.48121609620E+01 -0.12019132611E+03 -0.65401605616E+03  0.67663218477E+03  0.12500000000E+03 0.  0.
</event>
<event>
 4    0  0.2193754E-002  0.3146224E+03  0.7546771E-02  0.1078151E+00
         21   -1    0    0  502  501  0.00000000000E+00  0.00000000000E+00  0.77511663913E+03  0.77511663913E+03  0.00000000000E+00 0.  1.
         21   -1    0    0  501  502 -0.00000000000E+00 -0.00000000000E+00 -0.12770629682E+03  0.12770629682E+03  0.00000000000E+00 0. -1.
         25    1    1    2    0    0 -0.76153832672E+02 -0.24556411341E+03  0.13520246733E+03  0.31623701111E+03  0.12500000000E+03 0.  0.
         25    1    1    2    0    0  0.76153832672E+02  0.24556411341E+03  0.51220787499E+03  0.58658592484E+03  0.12500000000E+03 0.  0.
</event>
<event>
 4    0  0.2193754E-002  0.2716970E+03  0.7546771E-02  0.1100312E+00
         21   -1    0    0  502  501  0.00000000000E+00  0.00000000000E+00  0.13509177438E+03  0.13509177438E+03  0.00000000000E+00 0.  1.
         21   -1    0    0  501  502 -0.00000000000E+00 -0.00000000000E+00 -0.54643766946E+03  0.54643766946E+03  0.00000000000E+00 0.  1.
         25    1    1    2    0    0 -0.16284376104E+03  0.73958190503E+01 -0.42870163070E+03  0.47537656317E+03  0.12500000000E+03 0.  0.
         25    1    1    2    0    0  0.16284376104E+03 -0.73958190503E+01  0.17355735618E+02  0.20615288067E+03  0.12500000000E+03 0.  0.
</event>
<event>
 4    0  0.2193754E-002  0.2425586E+03  0.7546771E-02  0.1118100E+00
         21   -1    0    0  502  501  0.00000000000E+00  0.00000000000E+00  0.65804283757E+02  0.65804283757E+02  0.00000000000E+00 0. -1.
         21   -1    0    0  501  502 -0.00000000000E+00 -0.00000000000E+00 -0.89408557015E+03  0.89408557015E+03  0.00000000000E+00 0. -1.
         25    1    1    2    0    0 -0.10620999905E+03 -0.12856804659E+03 -0.65968278037E+03  0.69182127549E+03  0.12500000000E+03 0.  0.
         25    1    1    2    0    0  0.10620999905E+03  0.12856804659E+03 -0.16859850601E+03  0.26806857841E+03  0.12500000000E+03 0.  0.
</event>
<event>
 4    0  0.2193754E-002  0.2175567E+03  0.7546771E-02  0.1135718E+00
         21   -1    0    0  502  501  0.00000000000E+00  0.00000000000E+00  0.20844375556E+03  0.20844375556E+03  0.00000000000E+00 0. -1.
         21   -1    0    0  501  502 -0.00000000000E+00 -0.00000000000E+00 -0.22706802905E+03  0.22706802905E+03  0.00000000000E+00 0. -1.
         25    1    1    2    0    0 -0.73182837607E+02  0.15557884821E+03 -0.55673086403E+02  0.21973847702E+03  0.12500000000E+03 0.  0.
         25    1    1    2    0    0  0.73182837607E+02 -0.15557884821E+03  0.37048812909E+02  0.21577330759E+03  0.12500000000E+03 0.  0.
</event>
<event>
 4    0  0.2193754E-002  0.2334448E+03  0.7546771E-02  0.1124238E+00
         21   -1    0    0  502  501  0.00000000000E+00  0.00000000000E+00  0.14851040539E+03  0.14851040539E+03  0.00000000000E+00 0.  1.
         21   -1    0    0  501  502 -0.00000000000E+00 -0.00000000000E+00 -0.36695381253E+03  0.36695381253E+03  0.00000000000E+00 0.  1.
         25    1    1    2    0    0  0.16831035205E+03 -0.10255130188E+03 -0.10355815218E+03  0.25533200936E+03  0.12500000000E+03 0.  0.
         25    1    1    2    0    0 -0.16831035205E+03  0.10255130188E+03 -0.11488525495E+03  0.26013220856E+03  0.12500000000E+03 0.  0.
</event>
<event>
 4    0  0.2193754E-002  0.1883343E+03  0.7546771E-02  0.1159972E+00
         21   -1    0    0  502  501  0.00000000000E+00  0.00000000000E+00  0.87721592223E+02  0.87721592223E+02  0.00000000000E+00 0.  1.
         21   -1    0    0  501  502 -0.00000000000E+00 -0.00000000000E+00 -0.40434514523E+03  0.40434514523E+03  0.00000000000E+00 0.  1.
         25    1    1    2    0    0 -0.28447803371E+02  0.35824517452E+01  0.21865737888E+02  0.13009697141E+03  0.12500000000E+03 0.  0.
         25    1    1    2    0    0  0.28447803371E+02 -0.35824517452E+01 -0.33848929089E+03  0.36196976604E+03  0.12500000000E+03 0.  0.
</event>
<event>
 4    0  0.2193754E-002  0.2242034E+03  0.7546771E-02  0.1130787E+00
         21   -1    0    0  502  501  0.00000000000E+00  0.00000000000E+00  0.48410661650E+03  0.48410661650E+03  0.00000000000E+00 0. -1.
         21   -1    0    0  501  502 -0.00000000000E+00 -0.00000000000E+00 -0.10383493655E+03  0.10383493655E+03  0.00000000000E+00 0. -1.
         25    1    1    2    0    0  0.56286689489E+02 -0.55456779914E+02  0.41109390588E+03  0.43688310256E+03  0.12500000000E+03 0.  0.
         25    1    1    2    0    0 -0.56286689489E+02  0.55456779914E+02 -0.30822225936E+02  0.15105845049E+03  0.12500000000E+03 0.  0.
</event>
<event>
 4    0  0.2193754E-002  0.2149788E+03  0.7546771E-02  0.1137683E+00
         21   -1    0    0  502  501  0.00000000000E+00  0.00000000000E+00  0.73322317444E+02  0.73322317444E+02  0.00000000000E+00 0.  1.
         21   -1    0    0  501  502 -0.00000000000E+00 -0.00000000000E+00 -0.63031114762E+03  0.63031114762E+03  0.00000000000E+00 0.  1.
         25    1    1    2    0    0  0.14622359293E+02  0.17269105372E+03 -0.23994543789E+03  0.32130176873E+03  0.12500000000E+03 0.  0.
         25    1    1    2    0    0 -0.14622359293E+02 -0.17269105372E+03 -0.31704339228E+03  0.38233169633E+03  0.12500000000E+03 0.  0.
</event>
<event>
 4    0  0.2193754E-002  0.2088051E+03  0.7546771E-02  0.1142516E+00
         21   -1    0    0  502  501  0.00000000000E+00  0.00000000000E+00  0.63351751723E+03  0.63351751723E+03  0.00000000000E+00 0.  1.
         21   -1    0    0  501  502 -0.00000000000E+00 -0.00000000000E+00 -0.68821432159E+02  0.68821432159E+02  0.00000000000E+00 0.  1.
         25    1    1    2    0    0  0.11726469869E+03 -0.10041865606E+03  0.17414031323E+03  0.26416806153E+03  0.12500000000E+03 0.  0.
         25    1    1    2    0    0 -0.11726469869E+03  0.10041865606E+03  0.39055577185E+03  0.43817088786E+03  0.12500000000E+03 0.  0.
</event>
<event>
 4    0  0.2193754E-002  0.2162821E+03  0.7546771E-02  0.1136686E+00
         21   -1    0    0  502  501  0.00000000000E+00  0.00000000000E+00  0.21566794306E+03  0.21566794306E+03  0.00000000000E+00 0.  1.
         21   -1    0    0  501  502 -0.00000000000E+00 -0.00000000000E+00 -0.21689803909E+03  0.21689803909E+03  0.00000000000E+00 0.  1.
         25    1    1    2    0    0  0.10804219061E+03  0.45463481393E+02 -0.13257357055E+03  0.21665824401E+03  0.12500000000E+03 0.  0.
         25    1    1    2    0    0 -0.10804219061E+03 -0.45463481393E+02  0.13134347451E+03  0.21590773814E+03  0.12500000000E+03 0.  0.
</event>
<event>
 4    0  0.2193754E-002  0.2964421E+03  0.7546771E-02  0.1087033E+00
         21   -1    0    0  502  501  0.00000000000E+00  0.00000000000E+00  0.20820685103E+03  0.20820685103E+03  0.00000000000E+00 0.  1.
         21   -1    0    0  501  502 -0.00000000000E+00 -0.00000000000E+00 -0.42207030503E+03  0.42207030503E+03  0.00000000000E+00 0.  1.
         25    1    1    2    0    0  0.10565214581E+03 -0.22227805440E+03 -0.22183680433E+03  0.35412776951E+03  0.12500000000E+03 0.  0.
         25    1    1    2    0    0 -0.10565214581E+03  0.22227805440E+03  0.79733503272E+01  0.27614938656E+03  0.12500000000E+03 0.  0.
</event>
<event>
 4    0  0.2193754E-002  0.2289055E+03  0.7546771E-02  0.1127412E+00
         21   -1    0    0  502  501  0.00000000000E+00  0.00000000000E+00  0.68934739123E+03  0.68934739123E+03  0.00000000000E+00 0. -1.
         21   -1    0    0  501  502 -0.00000000000E+00 -0.00000000000E+00 -0.76010637141E+02  0.76010637141E+02  0.00000000000E+00 0. -1.
         25    1    1    2    0    0 -0.18065238163E+03 -0.38708695955E+02  0.22078574388E+03  0.31385504749E+03  0.12500000000E+03 0.  0.
         25    1    1    2    0    0  0.18065238163E+03  0.38708695955E+02  0.39255101020E+03  0.45150298088E+03  0.12500000000E+03 0.  0.
</event>
<event>
 4    0  0.2193754E-002  0.1968752E+03  0.7546771E-02  0.1152402E+00
         21   -1    0    0  502  501  0.00000000000E+00  0.00000000000E+00  0.10566640868E+04  0.10566640868E+04  0.00000000000E+00 0. -1.
         21   -1    0    0  501  502 -0.00000000000E+00 -0.00000000000E+00 -0.36681331027E+02  0.36681331027E+02  0.00000000000E+00 0. -1.
         25    1    1    2    0    0 -0.63903459445E+02 -0.13563939890E+03  0.43902679149E+03  0.48046979333E+03  0.12500000000E+03 0.  0.
         25    1    1    2    0    0  0.63903459445E+02  0.13563939890E+03  0.58095596433E+03  0.61287562454E+03  0.12500000000E+03 0.  0.
</event>
<event>
 4    0  0.2193754E-002  0.2420529E+03  0.7546771E-02  0.1118433E+00
         21   -1    0    0  502  501  0.00000000000E+00  0.00000000000E+00  0.12766501882E+04  0.12766501882E+04  0.00000000000E+00 0. -1.
         21   -1    0    0  501  502 -0.00000000000E+00 -0.00000000000E+00 -0.45893236969E+02  0.45893236969E+02  0.00000000000E+00 0. -1.
         25    1    1    2    0    0 -0.17135791792E+02  0.80624826897E+02  0.11349526650E+04  0.11447866831E+04  0.12500000000E+03 0.  0.
         25    1    1    2    0    0  0.17135791792E+02 -0.80624826897E+02  0.95804286178E+02  0.17775674199E+03  0.12500000000E+03 0.  0.
</event>
<event>
 4    0  0.2193754E-002  0.1724640E+03  0.7546771E-02  0.1175302E+00
         21   -1    0    0  502  501  0.00000000000E+00  0.00000000000E+00  0.49834829513E+03  0.49834829513E+03  0.00000000000E+00 0.  1.
         21   -1    0    0  501  502 -0.00000000000E+00 -0.00000000000E+00 -0.59684799348E+02  0.59684799348E+02  0.00000000000E+00 0.  1.
         25    1    1    2    0    0 -0.25737608106E+02 -0.16122171249E+02  0.40518085358E+03  0.42511042446E+03  0.12500000000E+03 0.  0.
         25    1    1    2    0    0  0.25737608106E+02  0.16122171249E+02  0.33482642206E+02  0.13292267002E+03  0.12500000000E+03 0.  0.
</event>
<event>
 4    0  0.2193754E-002  0.2785569E+03  0.7546771E-02  0.1096480E+00
         21   -1    0    0  502  501  0.00000000000E+00  0.00000000000E+00  0.14355705057E+04  0.14355705057E+04  0.00000000000E+00 0. -1.
         21   -1    0    0  501  502 -0.00000000000E+00 -0.00000000000E+00 -0.54050946861E+02  0.54050946861E+02  0.00000000000E+00 0. -1.
         25    1    1    2    0    0  0.54447012514E+02  0.15952293496E+03  0.20095509965E+03  0.29055119347E+03  0.12500000000E+03 0.  0.
         25    1    1    2    0    0 -0.54447012514E+02 -0.15952293496E+03  0.11805644592E+04  0.11990702591E+04  0.12500000000E+03 0.  0.
</event>
<event>
 4    0  0.2193754E-002  0.1543518E+03  0.7546771E-02  0.1195225E+00
         21   -1    0    0  502  501  0.00000000000E+00  0.00000000000E+00  0.93510910239E+02  0.93510910239E+02  0.00000000000E+00 0. -1.
         21   -1    0    0  501  502 -0.00000000000E+00 -0.00000000000E+00 -0.25477756140E+03  0.25477756140E+03  0.00000000000E+00 0. -1.
         25    1    1    2    0    0  0.18334944861E+02 -0.33617585678E+02  0.11944535814E+02  0.13127827012E+03  0.12500000000E+03 0.  0.
         25    1    1    2    0    0 -0.18334944861E+02  0.33617585678E+02 -0.17321118697E+03  0.21701020152E+03  0.12500000000E+03 0.  0.
</event>
<event>
 4    0  0.2193754E-002  0.2035869E+03  0.7546771E-02  0.1146748E+00
         21   -1    0    0  502  501  0.00000000000E+00  0.00000000000E+00  0.81903153744E+02  0.81903153744E+02  0.00000000000E+00 0. -1.
         21   -1    0    0  501  502 -0.00000000000E+00 -0.00000000000E+00 -0.50605673605E+03  0.50605673605E+03  0.00000000000E+00 0. -1.
         25    1    1    2    0    0  0.11693691445E+03  0.10851128453E+03 -0.23999132598E+03  0.31411745793E+03  0.12500000000E+03 0.  0.
         25    1    1    2    0    0 -0.11693691445E+03 -0.10851128453E+03 -0.18416225633E+03  0.27384243186E+03  0.12500000000E+03 0.  0.
</event>
<event>
 4    0  0.2193754E-002  0.1962909E+03  0.7546771E-02  0.1152907E+00
         21   -1    0    0  502  501  0.00000000000E+00  0.00000000000E+00  0.27724819294E+03  0.27724819294E+03  0.00000000000E+00 0.  1.
         21   -1    0    0  501  502 -0.00000000000E+00 -0.00000000000E+00 -0.13897339310E+03  0.13897339310E+03  0.00000000000E+00 0.  1.
         25    1    1    2    0    0 -0.10956834925E+03  0.53311545743E+02  0.16430783646E+03  0.23972778143E+03  0.12500000000E+03 0.  0.
         25    1    1    2    0    0  0.10956834925E+03 -0.53311545743E+02 -0.26033036624E+02  0.17649380460E+03  0.12500000000E+03 0.  0.
</event>
<event>
 4    0  0.2193754E-002  0.2734497E+03  0.7546771E-02  0.1099321E+00
         21   -1    0    0  502  501  0.00000000000E+00  0.00000000000E+00  0.62007361524E+03  0.62007361524E+03  0.00000000000E+00 0. -1.
         21   -1    0    0  501  502 -0.00000000000E+00 -0.00000000000E+00 -0.12059012353E+03  0.12059012353E+03  0.00000000000E+00 0. -1.
         25    1    1    2    0    0  0.38212966854E+02  0.22551143694E+03  0.36169964162E+03  0.44583323090E+03  0.12500000000E+03 0.  0.
         25    1    1    2    0    0 -0.38212966854E+02 -0.22551143694E+03  0.13778385009E+03  0.29483050787E+03  0.12500000000E+03 0.  0.
</event>
<event>
 4    0  0.2193754E-002  0.3454622E+03  0.7546771E-02  0.1064493E+00
         21   -1    0    0  502  501  0.00000000000E+00  0.00000000000E+00  0.29856531510E+03  0.29856531510E+03  0.00000000000E+00 0. -1.
         21   -1    0    0  501  502 -0.00000000000E+00 -0.00000000000E+00 -0.39972543762E+03  0.39972543762E+03  0.00000000000E+00 0.  1.
         25    1    1    2    0    0 -0.88249303271E+02  0.24767366957E+03 -0.23854398798E+03  0.37637537158E+03  0.12500000000E+03 0.  0.
         25    1    1    2    0    0  0.88249303271E+02 -0.24767366957E+03  0.13738386547E+03  0.32191538115E+03  0.12500000000E+03 0.  0.
</event>
<event>
 4    0  0.2193754E-002  0.1996329E+03  0.7546771E-02  0.1150049E+00
         21   -1    0    0  502  501  0.00000000000E+00  0.00000000000E+00  0.10826896520E+04  0.10826896520E+04  0.00000000000E+00 0. -1.
         21   -1    0    0  501  502 -0.00000000000E+00 -0.00000000000E+00 -0.36809545774E+02  0.36809545774E+02  0.00000000000E+00 0. -1.
         25    1    1    2    0    0 -0.81756336057E+02  0.72990231543E+02  0.83285140969E+03  0.84928095646E+03  0.12500000000E+03 0.  0.
         25    1    1    2    0    0  0.81756336057E+02 -0.72990231543E+02  0.21302869650E+03  0.27021824128E+03  0.12500000000E+03 0.  0.
</event>
<event>
 4    0  0.2193754E-002  0.1568038E+03  0.7546771E-02  0.1192353E+00
         21   -1    0    0  502  501  0.00000000000E+00  0.00000000000E+00  0.36873049264E+02  0.36873049264E+02  0.00000000000E+00 0. -1.
         21   -1    0    0  501  502 -0.00000000000E+00 -0.00000000000E+00 -0.66681278809E+03  0.66681278809E+03  0.00000000000E+00 0. -1.
         25    1    1    2    0    0 -0.58825751094E+02 -0.24065788758E+02 -0.15753607411E+03  0.21090814547E+03  0.12500000000E+03 0.  0.
         25    1    1    2    0    0  0.58825751094E+02  0.24065788758E+02 -0.47240366472E+03  0.49277769188E+03  0.12500000000E+03 0.  0.
</event>
<event>
 4    0  0.2193754E-002  0.2649150E+03  0.7546771E-02  0.1104226E+00
         21   -1    0    0  502  501  0.00000000000E+00  0.00000000000E+00  0.52457985559E+03  0.52457985559E+03  0.00000000000E+00 0. -1.
         21   -1    0    0  501  502 -0.00000000000E+00 -0.00000000000E+00 -0.13378315878E+03  0.13378315878E+03  0.00000000000E+00 0. -1.
         25    1    1    2    0    0 -0.14925564131E+02  0.41874590850E+02 -0.89528784817E+02  0.16005204508E+03  0.12500000000E+03 0.  0.
         25    1    1    2    0    0  0.14925564131E+02 -0.41874590850E+02  0.48032548162E+03  0.49831096930E+03  0.12500000000E+03 0.  0.
</event>
<event>
 4    0  0.2193754E-002  0.2233081E+03  0.7546771E-02  0.1131440E+00
         21   -1    0    0  502  501  0.00000000000E+00  0.00000000000E+00  0.12164484925E+03  0.12164484925E+03  0.00000000000E+00 0. -1.
         21   -1    0    0  501  502 -0.00000000000E+00 -0.00000000000E+00 -0.40993522161E+03  0.40993522161E+03  0.00000000000E+00 0. -1.
         25    1    1    2    0    0  0.27829159563E+02 -0.17642851175E+03 -0.86568775166E+02  0.23456477722E+03  0.12500000000E+03 0.  0.
         25    1    1    2    0    0 -0.27829159563E+02  0.17642851175E+03 -0.20172159719E+03  0.29701529364E+03  0.12500000000E+03 0.  0.
</event>
<event>
 4    0  0.2193754E-002  0.2048097E+03  0.7546771E-02  0.1145743E+00
         21   -1    0    0  502  501  0.00000000000E+00  0.00000000000E+00  0.18754937876E+03  0.18754937876E+03  0.00000000000E+00 0. -1.
         21   -1    0    0  501  502 -0.00000000000E+00 -0.00000000000E+00 -0.22365855809E+03  0.22365855809E+03  0.00000000000E+00 0. -1.
         25    1    1    2    0    0 -0.28938618613E+02 -0.12439601447E+03  0.82384448612E+02  0.19678416968E+03  0.12500000000E+03 0.  0.
         25    1    1    2    0    0  0.28938618613E+02  0.12439601447E+03 -0.11849362795E+03  0.21442376717E+03  0.12500000000E+03 0.  0.
</event>
<event>
 4    0  0.2193754E-002  0.2743773E+03  0.7546771E-02  0.1098800E+00
         21   -1    0    0  502  501  0.00000000000E+00  0.00000000000E+00  0.14751171542E+03  0.14751171542E+03  0.00000000000E+00 0. -1.
         21   -1    0    0  501  502 -0.00000000000E+00 -0.00000000000E+00 -0.51035199236E+03  0.51035199236E+03  0.00000000000E+00 0.  1.
         25    1    1    2    0    0  0.18968571541E+03 -0.12641475364E+03 -0.76246848909E+02  0.27092423763E+03  0.12500000000E+03 0.  0.
         25    1    1    2    0    0 -0.18968571541E+03  0.12641475364E+03 -0.28659342803E+03  0.38693947015E+03  0.12500000000E+03 0.  0.
</event>
<event>
 4    0  0.2193754E-002  0.1949335E+03  0.7546771E-02  0.1154085E+00
         21   -1    0    0  502  501  0.00000000000E+00  0.00000000000E+00  0.99200904006E+02  0.99200904006E+02  0.00000000000E+00 0.  1.
         21   -1    0    0  501  502 -0.00000000000E+00 -0.00000000000E+00 -0.38305151604E+03  0.38305151604E+03  0.00000000000E+00 0.  1.
         25    1    1    2    0    0  0.51510000250E+02 -0.14012329471E+03 -0.15341238035E+03  0.24788742665E+03  0.12500000000E+03 0.  0.
         25    1    1    2    0    0 -0.51510000250E+02  0.14012329471E+03 -0.13043823169E+03  0.23436499340E+03  0.12500000000E+03 0.  0.
</event>
<event>
 4    0  0.2193754E-002  0.2548234E+03  0.7546771E-02  0.1110294E+00
         21   -1    0    0  502  501  0.00000000000E+00  0.00000000000E+00  0.19655729770E+03  0.19655729770E+03  0.00000000000E+00 0.  1.
         21   -1    0    0  501  502 -0.00000000000E+00 -0.00000000000E+00 -0.33036149740E+03  0.33036149740E+03  0.00000000000E+00 0.  1.
         25    1    1    2    0    0 -0.38205616861E+02 -0.66558770905E+01 -0.29295785507E+03  0.32086332714E+03  0.12500000000E+03 0.  0.
         25    1    1    2    0    0  0.38205616861E+02  0.66558770905E+01  0.15915365537E+03  0.20605546796E+03  0.12500000000E+03 0.  0.
</event>
<event>
 4    0  0.2193754E-002  0.2701420E+03  0.7546771E-02  0.1101198E+00
         21   -1    0    0  502  501  0.00000000000E+00  0.00000000000E+00  0.48589362489E+02  0.48589362489E+02  0.00000000000E+00 0.  1.
         21   -1    0    0  501  502 -0.00000000000E+00 -0.00000000000E+00 -0.15019069228E+04  0.15019069228E+04  0.00000000000E+00 0.  1.
         25    1    1    2    0    0  0.17027233716E+03  0.15540819258E+03 -0.91280389499E+03  0.94972644790E+03  0.12500000000E+03 0.  0.
         25    1    1    2    0    0 -0.17027233716E+03 -0.15540819258E+03 -0.54051366532E+03  0.60076983740E+03  0.12500000000E+03 0.  0.
</event>
<event>
 4    0  0.2193754E-002  0.1746448E+03  0.7546771E-02  0.1173089E+00
         21   -1    0    0  502  501  0.00000000000E+00  0.00000000000E+00  0.30671675083E+03  0.30671675083E+03  0.00000000000E+00 0. -1.
         21   -1    0    0  501  502 -0.00000000000E+00 -0.00000000000E+00 -0.99442867864E+02  0.99442867864E+02  0.00000000000E+00 0. -1.
         25    1    1    2    0    0  0.74156323146E+02 -0.25506689528E+02 -0.49855662700E+01  0.14764690090E+03  0.12500000000E+03 0.  0.
         25    1    1    2    0    0 -0.74156323146E+02  0.25506689528E+02  0.21225944924E+03  0.25851271780E+03  0.12500000000E+03 0.  0.
</event>
<event>
 4    0  0.2193754E-002  0.2161754E+03  0.7546771E-02  0.1136767E+00
         21   -1    0    0  502  501  0.00000000000E+00  0.00000000000E+00  0.39526919410E+03  0.39526919410E+03  0.00000000000E+00 0. -1.
         21   -1    0    0  501  502 -0.00000000000E+00 -0.00000000000E+00 -0.11822779816E+03  0.11822779816E+03  0.00000000000E+00 0. -1.
         25    1    1    2    0    0 -0.10622468232E+03 -0.11222268158E+03  0.23950329521E+03  0.31123052840E+03  0.12500000000E+03 0.  0.
         25    1    1    2    0    0  0.10622468232E+03  0.11222268158E+03  0.37538100722E+02  0.20226646385E+03  0.12500000000E+03 0.  0.
</event>
<event>
 4    0  0.2193754E-002  0.1481012E+03  0.7546771E-02  0.1202826E+00
         21   -1    0    0  502  501  0.00000000000E+00  0.00000000000E+00  0.13442838650E+04  0.13442838650E+04  0.00000000000E+00 0. -1.
         21   -1    0    0  501  502 -0.00000000000E+00 -0.00000000000E+00 -0.16316464485E+02  0.16316464485E+02  0.00000000000E+00 0. -1.
         25    1    1    2    0    0  0.28043666898E+02  0.74138962991E+02  0.64059441398E+03  0.65747185210E+03  0.12500000000E+03 0.  0.
         25    1    1    2    0    0 -0.28043666898E+02 -0.74138962991E+02  0.68737298654E+03  0.70312847739E+03  0.12500000000E+03 0.  0.
</event>
<event>
 4    0  0.2193754E-002  0.1975066E+03  0.7546771E-02  0.1151860E+00
         21   -1    0    0  502  501  0.00000000000E+00  0.00000000000E+00  0.25800350034E+03  0.25800350034E+03  0.00000000000E+00 0. -1.
         21   -1    0    0  501  502 -0.00000000000E+00 -0.00000000000E+00 -0.15119507880E+03  0.15119507880E+03  0.00000000000E+00 0. -1.
         25    1    1    2    0    0  0.10139396803E+03 -0.79034551047E+01  0.17170080751E+03  0.23547689622E+03  0.12500000000E+03 0.  0.
         25    1    1    2    0    0 -0.10139396803E+03  0.79034551047E+01 -0.64892385975E+02  0.17372168291E+03  0.12500000000E+03 0.  0.
</event>
<event>
 4    0  0.2193754E-002  0.2834359E+03  0.7546771E-02  0.1093827E+00
         21   -1    0    0  502  501  0.00000000000E+00  0.00000000000E+00  0.50693620464E+03  0.50693620464E+03  0.00000000000E+00 0.  1.
         21   -1    0    0  501  502 -0.00000000000E+00 -0.00000000000E+00 -0.15847337970E+03  0.15847337970E+03  0.00000000000E+00 0.  1.
         25    1    1    2    0    0 -0.28164356425E+02  0.21334338645E+03  0.14995929988E+02  0.24931608338E+03  0.12500000000E+03 0.  0.
         25    1    1    2    0    0  0.28164356425E+02 -0.21334338645E+03  0.33346689495E+03  0.41609350096E+03  0.12500000000E+03 0.  0.
</event>
<event>
 4    0  0.2193754E-002  0.2321636E+03  0.7546771E-02  0.1125126E+00
         21   -1    0    0  502  501  0.00000000000E+00  0.00000000000E+00  0.18546863921E+04  0.18546863921E+04  0.00000000000E+00 0. -1.
         21   -1    0    0  501  502 -0.00000000000E+00 -0.00000000000E+00 -0.29061493111E+02  0.29061493111E+02  0.00000000000E+00 0. -1.
         25    1    1    2    0    0 -0.91808241698E+02 -0.38452327087E+02  0.22951462761E+03  0.27965925515E+03  0.12500000000E+03 0.  0.
         25    1    1    2    0    0  0.91808241698E+02  0.38452327087E+02  0.15961102713E+04  0.16040886300E+04  0.12500000000E+03 0.  0.
</event>
<event>
 4    0  0.2193754E-002  0.1995654E+03  0.7546771E-02  0.1150106E+00
         21   -1    0    0  502  501  0.00000000000E+00  0.00000000000E+00  0.11784107665E+04  0.11784107665E+04  0.00000000000E+00 0. -1.
         21   -1    0    0  501  502 -0.00000000000E+00 -0.00000000000E+00 -0.33796658517E+02  0.33796658517E+02  0.00000000000E+00 0. -1.
         25    1    1    2    0    0 -0.14657544613E+03  0.30321557039E+02  0.70107471191E+03  0.72769121879E+03  0.12500000000E+03 0.  0.
         25    1    1    2    0    0  0.14657544613E+03 -0.30321557039E+02  0.44353939610E+03  0.48451620626E+03  0.12500000000E+03 0.  0.
</event>
<event>
 4    0  0.2193754E-002  0.1556366E+03  0.7546771E-02  0.1193713E+00
         21   -1    0    0  502  501  0.00000000000E+00  0.00000000000E+00  0.44030824897E+03  0.44030824897E+03  0.00000000000E+00 0.  1.
         21   -1    0    0  501  502 -0.00000000000E+00 -0.00000000000E+00 -0.55013157123E+02  0.55013157123E+02  0.00000000000E+00 0.  1.
         25    1    1    2    0    0 -0.22260003872E+02  0.75279580632E+02  0.11412129739E+03  0.18657758051E+03  0.12500000000E+03 0.  0.
         25    1    1    2    0    0  0.22260003872E+02 -0.75279580632E+02  0.27117379446E+03  0.30874382559E+03  0.12500000000E+03 0.  0.
</event>
<event>
 4    0  0.2193754E-002  0.2993626E+03  0.7546771E-02  0.1085560E+00
         21   -1    0    0  502  501  0.00000000000E+00  0.00000000000E+00  0.64495961713E+03  0.64495961713E+03  0.00000000000E+00 0.  1.
         21   -1    0    0  501  502 -0.00000000000E+00 -0.00000000000E+00 -0.13895131854E+03  0.13895131854E+03  0.00000000000E+00 0.  1.
         25    1    1    2    0    0 -0.17653496791E+03  0.20673944065E+03  0.24077792450E+03  0.38406353659E+03  0.12500000000E+03 0.  0.
         25    1    1    2    0    0  0.17653496791E+03 -0.20673944065E+03  0.26523037408E+03  0.39984739908E+03  0.12500000000E+03 0.  0.
</event>
<event>
 4    0  0.2193754E-002  0.1915813E+03  0.7546771E-02  0.1157043E+00
         21   -1    0    0  502  501  0.00000000000E+00  0.00000000000E+00  0.23794855557E+03  0.23794855557E+03  0.00000000000E+00 0.  1.
         21   -1    0    0  501  502 -0.00000000000E+00 -0.00000000000E+00 -0.15424927276E+03  0.15424927276E+03  0.00000000000E+00 0.  1.
         25    1    1    2    0    0  0.54007478994E+02 -0.10170128608E+03 -0.48657308448E+02  0.17678374655E+03  0.12500000000E+03 0.  0.
         25    1    1    2    0    0 -0.54007478994E+02  0.10170128608E+03  0.13235659127E+03  0.21541408178E+03  0.12500000000E+03 0.  0.
</event>
<event>
 4    0  0.2193754E-002  0.2723004E+03  0.7546771E-02  0.1099970E+00
         21   -1    0    0  502  501  0.00000000000E+00  0.00000000000E+00  0.21080757860E+04  0.21080757860E+04  0.00000000000E+00 0. -1.
         21   -1    0    0  501  502 -0.00000000000E+00 -0.00000000000E+00 -0.35173075328E+02  0.35173075328E+02  0.00000000000E+00 0. -1.
         25    1    1    2    0    0  0.20936312840E+03  0.12084980349E+03  0.10001866904E+04  0.10365500519E+04  0.12500000000E+03 0.  0.
         25    1    1    2    0    0 -0.20936312840E+03 -0.12084980349E+03  0.10727160203E+04  0.11066988094E+04  0.12500000000E+03 0.  0.
</event>
<event>
 4    0  0.2193754E-002  0.3660374E+03  0.7546771E-02  0.1056219E+00
         21   -1    0    0  502  501  0.00000000000E+00  0.00000000000E+00  0.12910486676E+04  0.12910486676E+04  0.00000000000E+00 0.  1.
         21   -1    0    0  501  502 -0.00000000000E+00 -0.00000000000E+00 -0.10377871330E+03  0.10377871330E+03  0.00000000000E+00 0. -1.
         25    1    1    2    0    0  0.16283473509E+03  0.30065099718E+03  0.52102810816E+03  0.63561109379E+03  0.12500000000E+03 0.  0.
         25    1    1    2    0    0 -0.16283473509E+03 -0.30065099718E+03  0.66624184618E+03  0.75921628714E+03  0.12500000000E+03 0.  0.
</event>
<event>
 4    0  0.2193754E-002  0.1896871E+03  0.7546771E-02  0.1158744E+00
         21   -1    0    0  502  501  0.00000000000E+00  0.00000000000E+00  0.25462069195E+02  0.25462069195E+02  0.00000000000E+00 0.  1.
         21   -1    0    0  501  502 -0.00000000000E+00 -0.00000000000E+00 -0.14131288867E+04  0.14131288867E+04  0.00000000000E+00 0.  1.
         25    1    1    2    0    0  0.50950225853E+01  0.72633364428E+02 -0.11591028227E+04  0.11680949955E+04  0.12500000000E+03 0.  0.
         25    1    1    2    0    0 -0.50950225853E+01 -0.72633364428E+02 -0.22856399487E+03  0.27049596048E+03  0.12500000000E+03 0.  0.
</event>
<event>
 4    0  0.2193754E-002  0.3067335E+03  0.7546771E-02  0.1081922E+00
         21   -1    0    0  502  501  0.00000000000E+00  0.00000000000E+00  0.19358598631E+03  0.19358598631E+03  0.00000000000E+00 0. -1.
         21   -1    0    0  501  502 -0.00000000000E+00 -0.00000000000E+00 -0.48601367114E+03  0.48601367114E+03  0.00000000000E+00 0. -1.
         25    1    1    2    0    0  0.14077621926E+03  0.85389414912E+02 -0.39725041616E+03  0.44781937121E+03  0.12500000000E+03 0.  0.
         25    1    1    2    0    0 -0.14077621926E+03 -0.85389414912E+02  0.10482273133E+03  0.23178028625E+03  0.12500000000E+03 0.  0.
</event>
<event>
 4    0  0.2193754E-002  0.1679761E+03  0.7546771E-02  0.1179975E+00
         21   -1    0    0  502  501  0.00000000000E+00  0.00000000000E+00  0.20125651323E+02  0.20125651323E+02  0.00000000000E+00 0.  1.
         21   -1    0    0  501  502 -0.00000000000E+00 -0.00000000000E+00 -0.14019906050E+04  0.14019906050E+04  0.00000000000E+00 0.  1.
         25    1    1    2    0    0  0.89853061473E+02 -0.43991397878E+02 -0.90603673904E+03  0.92007412105E+03  0.12500000000E+03 0.  0.
         25    1    1    2    0    0 -0.89853061473E+02  0.43991397878E+02 -0.47582821467E+03  0.50204213531E+03  0.12500000000E+03 0.  0.
</event>
<event>
 4    0  0.2193754E-002  0.2146044E+03  0.7546771E-02  0.1137971E+00
         21   -1    0    0  502  501  0.00000000000E+00  0.00000000000E+00  0.81565793831E+03  0.81565793831E+03  0.00000000000E+00 0.  1.
         21   -1    0    0  501  502 -0.00000000000E+00 -0.00000000000E+00 -0.56463669469E+02  0.56463669469E+02  0.00000000000E+00 0.  1.
         25    1    1    2    0    0  0.79147304066E+02 -0.12318846288E+03  0.18693485340E+03  0.26834554690E+03  0.12500000000E+03 0.  0.
         25    1    1    2    0    0 -0.79147304066E+02  0.12318846288E+03  0.57225941544E+03  0.60377606087E+03  0.12500000000E+03 0.  0.
</event>
<event>
 4    0  0.2193754E-002  0.1860428E+03  0.7546771E-02  0.1162080E+00
         21   -1    0    0  502  501  0.00000000000E+00  0.00000000000E+00  0.12165375074E+03  0.12165375074E+03  0.00000000000E+00 0.  1.
         21   -1    0    0  501  502 -0.00000000000E+00 -0.00000000000E+00 -0.28451161963E+03  0.28451161963E+03  0.00000000000E+00 0.  1.
         25    1    1    2    0    0  0.13476612334E+03  0.23606152135E+01 -0.50181469690E+02  0.19055356308E+03  0.12500000000E+03 0.  0.
         25    1    1    2    0    0 -0.13476612334E+03 -0.23606152135E+01 -0.11267639920E+03  0.21561180728E+03  0.12500000000E+03 0.  0.
</event>
<event>
 4    0  0.2193754E-002  0.2780104E+03  0.7546771E-02  0.1096781E+00
         21   -1    0    0  502  501  0.00000000000E+00  0.00000000000E+00  0.60720944266E+03  0.60720944266E+03  0.00000000000E+00 0.  1.
         21   -1    0    0  501  502 -0.00000000000E+00 -0.00000000000E+00 -0.12728683346E+03  0.12728683346E+03  0.00000000000E+00 0.  1.
         25    1    1    2    0    0 -0.49739563455E+02  0.79218866074E+02 -0.63909147664E+02  0.16869804999E+03  0.12500000000E+03 0.  0.
         25    1    1    2    0    0  0.49739563455E+02 -0.79218866074E+02  0.54383175687E+03  0.56579822613E+03  0.12500000000E+03 0.  0.
</event>
<event>
 4    0  0.2193754E-002  0.1595516E+03  0.7546771E-02  0.1189204E+00
         21   -1    0    0  502  501  0.00000000000E+00  0.00000000000E+00  0.85835373012E+02  0.85835373012E+02  0.00000000000E+00 0. -1.
         21   -1    0    0  501  502 -0.00000000000E+00 -0.00000000000E+00 -0.29657585944E+03  0.29657585944E+03  0.00000000000E+00 0. -1.
         25    1    1    2    0    0 -0.15956166472E+02 -0.97372502526E+02 -0.11709345321E+03  0.19766608278E+03  0.12500000000E+03 0.  0.
         25    1    1    2    0    0  0.15956166472E+02  0.97372502526E+02 -0.93647033216E+02  0.18474514967E+03  0.12500000000E+03 0.  0.
</event>
<event>
 4    0  0.2193754E-002  0.2097250E+03  0.7546771E-02  0.1141784E+00
         21   -1    0    0  502  501  0.00000000000E+00  0.00000000000E+00  0.31896435505E+03  0.31896435505E+03  0.00000000000E+00 0.  1.
         21   -1    0    0  501  502 -0.00000000000E+00 -0.00000000000E+00 -0.13789813157E+03  0.13789813157E+03  0.00000000000E+00 0.  1.
         25    1    1    2    0    0 -0.37399539729E+02  0.13514112957E+03 -0.11046933108E+02  0.18817248790E+03  0.12500000000E+03 0.  0.
         25    1    1    2    0    0  0.37399539729E+02 -0.13514112957E+03  0.19211315659E+03  0.26868999871E+03  0.12500000000E+03 0.  0.
</event>
<event>
 4    0  0.2193754E-002  0.1759859E+03  0.7546771E-02  0.1171745E+00
         21   -1    0    0  502  501  0.00000000000E+00  0.00000000000E+00  0.23714097910E+03  0.23714097910E+03  0.00000000000E+00 0.  1.
         21   -1    0    0  501  502 -0.00000000000E+00 -0.00000000000E+00 -0.13060183125E+03  0.13060183125E+03  0.00000000000E+00 0.  1.
         25    1    1    2    0    0  0.99089769756E+02 -0.74201297541E+02  0.58106378914E+02  0.18527268093E+03  0.12500000000E+03 0.  0.
         25    1    1    2    0    0 -0.99089769756E+02  0.74201297541E+02  0.48432768935E+02  0.18247012943E+03  0.12500000000E+03 0.  0.
</event>
<event>
 4    0  0.2193754E-002  0.1778982E+03  0.7546771E-02  0.1169853E+00
         21   -1    0    0  502  501  0.00000000000E+00  0.00000000000E+00  0.59263701264E+03  0.59263701264E+03  0.00000000000E+00 0. -1.
         21   -1    0    0  501  502 -0.00000000000E+00 -0.00000000000E+00 -0.53401584564E+02  0.53401584564E+02  0.00000000000E+00 0. -1.
         25    1    1    2    0    0  0.11579500915E+03  0.50548421565E+02  0.25565546530E+03  0.31136529030E+03  0.12500000000E+03 0.  0.
         25    1    1    2    0    0 -0.11579500915E+03 -0.50548421565E+02  0.28357996278E+03  0.33467330691E+03  0.12500000000E+03 0.  0.
</event>
<event>
 4    0  0.2193754E-002  0.2935256E+03  0.7546771E-02  0.1088523E+00
         21   -1    0    0  502  501  0.00000000000E+00  0.00000000000E+00  0.19316156034E+03  0.19316156034E+03  0.00000000000E+00 0. -1.
         21   -1    0    0  501  502 -0.00000000000E+00 -0.00000000000E+00 -0.44603738157E+03  0.44603738157E+03  0.00000000000E+00 0. -1.
         25    1    1    2    0    0 -0.92454680755E+02  0.17936428316E+03 -0.31443966809E+03  0.39397553089E+03  0.12500000000E+03 0.  0.
         25    1    1    2    0    0  0.92454680755E+02 -0.17936428316E+03  0.61563846867E+02  0.24522341101E+03  0.12500000000E+03 0.  0.
</event>
<event>
 4    0  0.2193754E-002  0.2005234E+03  0.7546771E-02  0.1149298E+00
         21   -1    0    0  502  501  0.00000000000E+00  0.00000000000E+00  0.24784914676E+02  0.24784914676E+02  0.00000000000E+00 0.  1.
         21   -1    0    0  501  502 -0.00000000000E+00 -0.00000000000E+00 -0.16223438531E+04  0.16223438531E+04  0.00000000000E+00 0.  1.
         25    1    1    2    0    0  0.13777016767E+03  0.67142545201E+02 -0.93474240290E+03  0.95543555526E+03  0.12500000000E+03 0.  0.
         25    1    1    2    0    0 -0.13777016767E+03 -0.67142545201E+02 -0.66281653557E+03  0.69169321256E+03  0.12500000000E+03 0.  0.
</event>
<event>
 4    0  0.2193754E-002  0.1732208E+03  0.7546771E-02  0.1174530E+00
         21   -1    0    0  502  501  0.00000000000E+00  0.00000000000E+00  0.23188338627E+03  0.23188338627E+03  0.00000000000E+00 0. -1.
         21   -1    0    0  501  502 -0.00000000000E+00 -0.00000000000E+00 -0.12939892565E+03  0.12939892565E+03  0.00000000000E+00 0. -1.
         25    1    1    2    0    0  0.70319279625E+02  0.20473323232E+02 -0.47780664326E+02  0.15255146651E+03  0.12500000000E+03 0.  0.
         25    1    1    2    0    0 -0.70319279625E+02 -0.20473323232E+02  0.15026512495E+03  0.20873084541E+03  0.12500000000E+03 0.  0.
</event>
<event>
 4    0  0.2193754E-002  0.1768665E+03  0.7546771E-02  0.1170871E+00
         21   -1    0    0  502  501  0.00000000000E+00  0.00000000000E+00  0.47453673696E+03  0.47453673696E+03  0.00000000000E+00 0.  1.
         21   -1    0    0  501  502 -0.00000000000E+00 -0.00000000000E+00 -0.65920631267E+02  0.65920631267E+02  0.00000000000E+00 0.  1.
         25    1    1    2    0    0 -0.29468539180E+02  0.12052662815E+03  0.17959158806E+03  0.25154164942E+03  0.12500000000E+03 0.  0.
         25    1    1    2    0    0  0.29468539180E+02 -0.12052662815E+03  0.22902451764E+03  0.28891571880E+03  0.12500000000E+03 0.  0.
</event>
<event>
 4    0  0.2193754E-002  0.1817523E+03  0.7546771E-02  0.1166118E+00
         21   -1    0    0  502  501  0.00000000000E+00  0.00000000000E+00  0.15929249310E+03  0.15929249310E+03  0.00000000000E+00 0.  1.
         21   -1    0    0  501  502 -0.00000000000E+00 -0.00000000000E+00 -0.20737885934E+03  0.20737885934E+03  0.00000000000E+00 0.  1.
         25    1    1    2    0    0 -0.76559136875E+01 -0.41655250086E+02 -0.15009229473E+03  0.19986612973E+03  0.12500000000E+03 0.  0.
         25    1    1    2    0    0  0.76559136875E+01  0.41655250086E+02  0.10200592849E+03  0.16680522271E+03  0.12500000000E+03 0.  0.
</event>
<event>
 4    0  0.2193754E-002  0.1732404E+03  0.7546771E-02  0.1174510E+00
         21   -1    0    0  502  501  0.00000000000E+00  0.00000000000E+00  0.77721430784E+03  0.77721430784E+03  0.00000000000E+00 0. -1.
         21   -1    0    0  501  502 -0.00000000000E+00 -0.00000000000E+00 -0.38615151937E+02  0.38615151937E+02  0.00000000000E+00 0. -1.
         25    1    1    2    0    0  0.51886533203E+01 -0.11976551687E+03  0.35972134482E+03  0.39924321794E+03  0.12500000000E+03 0.  0.
         25    1    1    2    0    0 -0.51886533203E+01  0.11976551687E+03  0.37887781109E+03  0.41658624184E+03  0.12500000000E+03 0.  0.
</event>
<event>
 4    0  0.2193754E-002  0.2248981E+03  0.7546771E-02  0.1130283E+00
         21   -1    0    0  502  501  0.00000000000E+00  0.00000000000E+00  0.53016446894E+03  0.53016446894E+03  0.00000000000E+00 0. -1.
         21   -1    0    0  501  502 -0.00000000000E+00 -0.00000000000E+00 -0.95402770420E+02  0.95402770420E+02  0.00000000000E+00 0. -1.
         25    1    1    2    0    0  0.69178993301E+02  0.17025614822E+03  0.16958031119E+03  0.27956282132E+03  0.12500000000E+03 0.  0.
         25    1    1    2    0    0 -0.69178993301E+02 -0.17025614822E+03  0.26518138733E+03  0.34600441804E+03  0.12500000000E+03 0.  0.
</event>
<event>
 4    0  0.2193754E-002  0.2009444E+03  0.7546771E-02  0.1148945E+00
         21   -1    0    0  502  501  0.00000000000E+00  0.00000000000E+00  0.20537198735E+03  0.20537198735E+03  0.00000000000E+00 0.  1.
         21   -1    0    0  501  502 -0.00000000000E+00 -0.00000000000E+00 -0.19661229280E+03  0.19661229280E+03  0.00000000000E+00 0.  1.
         25    1    1    2    0    0 -0.68008069321E+02 -0.51904200048E+02 -0.12769133282E+03  0.19811415889E+03  0.12500000000E+03 0.  0.
         25    1    1    2    0    0  0.68008069321E+02  0.51904200048E+02  0.13645102736E+03  0.20387012126E+03  0.12500000000E+03 0.  0.
</event>
<event>
 4    0  0.2193754E-002  0.1515742E+03  0.7546771E-02  0.1198552E+00
         21   -1    0    0  502  501  0.00000000000E+00  0.00000000000E+00  0.10243819213E+03  0.10243819213E+03  0.00000000000E+00 0. -1.
         21   -1    0    0  501  502 -0.00000000000E+00 -0.00000000000E+00 -0.22427906596E+03  0.22427906596E+03  0.00000000000E+00 0. -1.
         25    1    1    2    0    0  0.84058081553E+01  0.49919537624E+02  0.13647839647E+02  0.13555029094E+03  0.12500000000E+03 0.  0.
         25    1    1    2    0    0 -0.84058081553E+01 -0.49919537624E+02 -0.13548871348E+03  0.19116696715E+03  0.12500000000E+03 0.  0.
</event>
<event>
 4    0  0.2193754E-002  0.1899793E+03  0.7546771E-02  0.1158480E+00
         21   -1    0    0  502  501  0.00000000000E+00  0.00000000000E+00  0.64914916923E+03  0.64914916923E+03  0.00000000000E+00 0. -1.
         21   -1    0    0  501  502 -0.00000000000E+00 -0.00000000000E+00 -0.55599143849E+02  0.55599143849E+02  0.00000000000E+00 0. -1.
         25    1    1    2    0    0  0.93979894872E+02  0.58569453577E+02  0.46478100434E+03  0.49387142408E+03  0.12500000000E+03 0.  0.
         25    1    1    2    0    0 -0.93979894872E+02 -0.58569453577E+02  0.12876902104E+03  0.21087688900E+03  0.12500000000E+03 0.  0.
</event>
<event>
 4    0  0.2193754E-002  0.1838805E+03  0.7546771E-02  0.1164099E+00
         21   -1    0    0  502  501  0.00000000000E+00  0.00000000000E+00  0.25664136114E+03  0.25664136114E+03  0.00000000000E+00 0.  1.
         21   -1    0    0  501  502 -0.00000000000E+00 -0.00000000000E+00 -0.13174816517E+03  0.13174816517E+03  0.00000000000E+00 0.  1.
         25    1    1    2    0    0 -0.58856545003E+02 -0.32602366211E+02  0.18587854768E+03  0.23388638622E+03  0.12500000000E+03 0.  0.
         25    1    1    2    0    0  0.58856545003E+02  0.32602366211E+02 -0.60985351708E+02  0.15450314008E+03  0.12500000000E+03 0.  0.
</event>
<event>
 4    0  0.2193754E-002  0.3148787E+03  0.7546771E-02  0.1078031E+00
         21   -1    0    0  502  501  0.00000000000E+00  0.00000000000E+00  0.14045761754E+03  0.14045761754E+03  0.00000000000E+00 0.  1.
         21   -1    0    0  501  502 -0.00000000000E+00 -0.00000000000E+00 -0.70589696319E+03  0.70589696319E+03  0.00000000000E+00 0.  1.
         25    1    1    2    0    0  0.16680276738E+03 -0.23396523854E+03 -0.32437543829E+03  0.45100700772E+03  0.12500000000E+03 0.  0.
         25    1    1    2    0    0 -0.16680276738E+03  0.23396523854E+03 -0.24106390736E+03  0.39534757300E+03  0.12500000000E+03 0.  0.
</event>
<event>
 4    0  0.2193754E-002  0.2359340E+03  0.7546771E-02  0.1122531E+00
         21   -1    0    0  502  501  0.00000000000E+00  0.00000000000E+00  0.20705399927E+03  0.20705399927E+03  0.00000000000E+00 0.  1.
         21   -1    0    0  501  502 -0.00000000000E+00 -0.00000000000E+00 -0.26884230830E+03  0.26884230830E+03  0.00000000000E+00 0.  1.
         25    1    1    2    0    0  0.78298482913E+02 -0.13360654483E+03  0.96909830431E+02  0.22135463962E+03  0.12500000000E+03 0.  0.
         25    1    1    2    0    0 -0.78298482913E+02  0.13360654483E+03 -0.15869813947E+03  0.25454166794E+03  0.12500000000E+03 0.  0.
</event>
<event>
 4    0  0.2193754E-002  0.3039419E+03  0.7546771E-02  0.1083287E+00
         21   -1    0    0  502  501  0.00000000000E+00  0.00000000000E+00  0.71591331024E+03  0.71591331024E+03  0.00000000000E+00 0.  1.
         21   -1    0    0  501  502 -0.00000000000E+00 -0.00000000000E+00 -0.12903888740E+03  0.12903888740E+03  0.00000000000E+00 0.  1.
         25    1    1    2    0    0  0.18616514333E+03  0.16022257181E+03  0.47158881821E+03  0.54621401169E+03  0.12500000000E+03 0.  0.
         25    1    1    2    0    0 -0.18616514333E+03 -0.16022257181E+03  0.11528560463E+03  0.29873818595E+03  0.12500000000E+03 0.  0.
</event>
<event>
 4    0  0.2193754E-002  0.2267147E+03  0.7546771E-02  0.1128974E+00
         21   -1    0    0  502  501  0.00000000000E+00  0.00000000000E+00  0.53770718689E+03  0.53770718689E+03  0.00000000000E+00 0. -1.
         21   -1    0    0  501  502 -0.00000000000E+00 -0.00000000000E+00 -0.95590197032E+02  0.95590197032E+02  0.00000000000E+00 0. -1.
         25    1    1    2    0    0  0.37064791000E+02  0.10182304302E+03  0.45373416052E+01  0.16549114264E+03  0.12500000000E+03 0.  0.
         25    1    1    2    0    0 -0.37064791000E+02 -0.10182304302E+03  0.43757964825E+03  0.46780624129E+03  0.12500000000E+03 0.  0.
</event>
<event>
 4    0  0.2193754E-002  0.2578183E+03  0.7546771E-02  0.1108461E+00
         21   -1    0    0  502  501  0.00000000000E+00  0.00000000000E+00  0.56685550394E+03  0.56685550394E+03  0.00000000000E+00 0.  1.
         21   -1    0    0  501  502 -0.00000000000E+00 -0.00000000000E+00 -0.11726137999E+03  0.11726137999E+03  0.00000000000E+00 0.  1.
         25    1    1    2    0    0 -0.63698071283E+02  0.21026715215E+03  0.15746518801E+03  0.29780867179E+03  0.12500000000E+03 0.  0.
         25    1    1    2    0    0  0.63698071283E+02 -0.21026715215E+03  0.29212893594E+03  0.38630821214E+03  0.12500000000E+03 0.  0.
</event>
<event>
 4    0  0.2193754E-002  0.2783990E+03  0.7546771E-02  0.1096567E+00
         21   -1    0    0  502  501  0.00000000000E+00  0.00000000000E+00  0.22448672032E+03  0.22448672032E+03  0.00000000000E+00 0.  1.
         21   -1    0    0  501  502 -0.00000000000E+00 -0.00000000000E+00 -0.34525878027E+03  0.34525878027E+03  0.00000000000E+00 0.  1.
         25    1    1    2    0    0  0.70518795416E+02  0.14478938500E+03 -0.25438404761E+03  0.32599556775E+03  0.12500000000E+03 0.  0.
         25    1    1    2    0    0 -0.70518795416E+02 -0.14478938500E+03  0.13361198766E+03  0.24374993284E+03  0.12500000000E+03 0.  0.
</event>
<event>
 4    0  0.2193754E-002  0.1709329E+03  0.7546771E-02  0.1176878E+00
         21   -1    0    0  502  501  0.00000000000E+00  0.00000000000E+00  0.18924987657E+03  0.18924987657E+03  0.00000000000E+00 0.  1.
         21   -1    0    0  501  502 -0.00000000000E+00 -0.00000000000E+00 -0.15438872589E+03  0.15438872589E+03  0.00000000000E+00 0.  1.
         25    1    1    2    0    0  0.57221078468E+02  0.86440530501E+02  0.71062963442E+02  0.17726015319E+03  0.12500000000E+03 0.  0.
         25    1    1    2    0    0 -0.57221078468E+02 -0.86440530501E+02 -0.36201812769E+02  0.16637844927E+03  0.12500000000E+03 0.  0.
</event>
<event>
 4    0  0.2193754E-002  0.1799716E+03  0.7546771E-02  0.1167831E+00
         21   -1    0    0  502  501  0.00000000000E+00  0.00000000000E+00  0.10408896099E+04  0.10408896099E+04  0.00000000000E+00 0.  1.
         21   -1    0    0  501  502 -0.00000000000E+00 -0.00000000000E+00 -0.31117387243E+02  0.31117387243E+02  0.00000000000E+00 0.  1.
         25    1    1    2    0    0  0.63100110892E+01 -0.10451863289E+03  0.27805227962E+03  0.32233837976E+03  0.12500000000E+03 0.  0.
         25    1    1    2    0    0 -0.63100110892E+01  0.10451863289E+03  0.73171994305E+03  0.74966861740E+03  0.12500000000E+03 0.  0.
</event>
<event>
 4    0  0.2193754E-002  0.2357439E+03  0.7546771E-02  0.1122661E+00
         21   -1    0    0  502  501  0.00000000000E+00  0.00000000000E+00  0.16726753891E+04  0.16726753891E+04  0.00000000000E+00 0. -1.
         21   -1    0    0  501  502 -0.00000000000E+00 -0.00000000000E+00 -0.33225326287E+02  0.33225326287E+02  0.00000000000E+00 0. -1.
         25    1    1    2    0    0  0.10404846907E+03 -0.25971397548E+02  0.14299939995E+04  0.14394472676E+04  0.12500000000E+03 0.  0.
         25    1    1    2    0    0 -0.10404846907E+03  0.25971397548E+02  0.20945606326E+03  0.26645344780E+03  0.12500000000E+03 0.  0.
</event>
<event>
 4    0  0.2193754E-002  0.1673841E+03  0.7546771E-02  0.1180604E+00
         21   -1    0    0  502  501  0.00000000000E+00  0.00000000000E+00  0.68212854677E+02  0.68212854677E+02  0.00000000000E+00 0.  1.
         21   -1    0    0  501  502 -0.00000000000E+00 -0.00000000000E+00 -0.41073521654E+03  0.41073521654E+03  0.00000000000E+00 0.  1.
         25    1    1    2    0    0 -0.78632828639E+02 -0.64723390356E+02 -0.23556542943E+03  0.28546157454E+03  0.12500000000E+03 0.  0.
         25    1    1    2    0    0  0.78632828639E+02  0.64723390356E+02 -0.10695693243E+03  0.19348649667E+03  0.12500000000E+03 0.  0.
</event>
<event>
 4    0  0.2193754E-002  0.2049013E+03  0.7546771E-02  0.1145668E+00
         21   -1    0    0  502  501  0.00000000000E+00  0.00000000000E+00  0.36138612939E+03  0.36138612939E+03  0.00000000000E+00 0. -1.
         21   -1    0    0  501  502 -0.00000000000E+00 -0.00000000000E+00 -0.11617640847E+03  0.11617640847E+03  0.00000000000E+00 0. -1.
         25    1    1    2    0    0 -0.43190331028E+02  0.15450979912E+03  0.93567820949E+02  0.22387188264E+03  0.12500000000E+03 0.  0.
         25    1    1    2    0    0  0.43190331028E+02 -0.15450979912E+03  0.15164189997E+03  0.25369065522E+03  0.12500000000E+03 0.  0.
</event>
<event>
 4    0  0.2193754E-002  0.2421723E+03  0.7546771E-02  0.1118354E+00
         21   -1    0    0  502  501  0.00000000000E+00  0.00000000000E+00  0.55449117592E+03  0.55449117592E+03  0.00000000000E+00 0.  1.
         21   -1    0    0  501  502 -0.00000000000E+00 -0.00000000000E+00 -0.10576803542E+03  0.10576803542E+03  0.00000000000E+00 0.  1.
         25    1    1    2    0    0  0.94446320465E+02 -0.18082403720E+03  0.27545893184E+03  0.36485622238E+03  0.12500000000E+03 0.  0.
         25    1    1    2    0    0 -0.94446320465E+02  0.18082403720E+03  0.17326420866E+03  0.29540298895E+03  0.12500000000E+03 0.  0.
</event>
<event>
 4    0  0.2193754E-002  0.3493141E+03  0.7546771E-02  0.1062897E+00
         21   -1    0    0  502  501  0.00000000000E+00  0.00000000000E+00  0.76881732894E+03  0.76881732894E+03  0.00000000000E+00 0. -1.
         21   -1    0    0  501  502 -0.00000000000E+00 -0.00000000000E+00 -0.15871172978E+03  0.15871172978E+03  0.00000000000E+00 0.  1.
         25    1    1    2    0    0 -0.12849547060E+02 -0.27297178462E+03  0.54149494885E+03  0.61929030808E+03  0.12500000000E+03 0.  0.
         25    1    1    2    0    0  0.12849547060E+02  0.27297178462E+03  0.68610650315E+02  0.30823875064E+03  0.12500000000E+03 0.  0.
</event>
<event>
 4    0  0.2193754E-002  0.2609046E+03  0.7546771E-02  0.1106601E+00
         21   -1    0    0  502  501  0.00000000000E+00  0.00000000000E+00  0.28735548578E+03  0.28735548578E+03  0.00000000000E+00 0.  1.
         21   -1    0    0  501  502 -0.00000000000E+00 -0.00000000000E+00 -0.23688851501E+03  0.23688851501E+03  0.00000000000E+00 0.  1.
         25    1    1    2    0    0  0.19588618857E+03  0.11847292708E+03  0.31506093091E+02  0.26272584042E+03  0.12500000000E+03 0.  0.
         25    1    1    2    0    0 -0.19588618857E+03 -0.11847292708E+03  0.18960877673E+02  0.26151816037E+03  0.12500000000E+03 0.  0.
</event>
<event>
 4    0  0.2193754E-002  0.1802193E+03  0.7546771E-02  0.1167591E+00
         21   -1    0    0  502  501  0.00000000000E+00  0.00000000000E+00  0.39455347514E+03  0.39455347514E+03  0.00000000000E+00 0.  1.
         21   -1    0    0  501  502 -0.00000000000E+00 -0.00000000000E+00 -0.82318373567E+02  0.82318373567E+02  0.00000000000E+00 0.  1.
         25    1    1    2    0    0 -0.24163380210E+02  0.12747193706E+03  0.16218573777E+03  0.24240911125E+03  0.12500000000E+03 0.  0.
         25    1    1    2    0    0  0.24163380210E+02 -0.12747193706E+03  0.15004936381E+03  0.23446273746E+03  0.12500000000E+03 0.  0.
</event>
<event>
 4    0  0.2193754E-002  0.1907809E+03  0.7546771E-02  0.1157759E+00
         21   -1    0    0  502  501  0.00000000000E+00  0.00000000000E+00  0.89544336140E+02  0.89544336140E+02  0.00000000000E+00 0. -1.
         21   -1    0    0  501  502 -0.00000000000E+00 -0.00000000000E+00 -0.40647281107E+03  0.40647281107E+03  0.00000000000E+00 0. -1.
         25    1    1    2    0    0 -0.85893948640E+01  0.31258436848E+02  0.24094040343E+02  0.13136358079E+03  0.12500000000E+03 0.  0.
         25    1    1    2    0    0  0.85893948640E+01 -0.31258436848E+02 -0.34102251528E+03  0.36465356642E+03  0.12500000000E+03 0.  0.
</event>
<event>
 4    0  0.2193754E-002  0.2322410E+03  0.7546771E-02  0.1125072E+00
         21   -1    0    0  502  501  0.00000000000E+00  0.00000000000E+00  0.23942275840E+03  0.23942275840E+03  0.00000000000E+00 0.  1.
         21   -1    0    0  501  502 -0.00000000000E+00 -0.00000000000E+00 -0.22527457494E+03  0.22527457494E+03  0.00000000000E+00 0.  1.
         25    1    1    2    0    0 -0.48439623963E+02 -0.18620455594E+03  0.43039705248E+02  0.23344367639E+03  0.12500000000E+03 0.  0.
         25    1    1    2    0    0  0.48439623963E+02  0.18620455594E+03 -0.28891521793E+02  0.23125365695E+03  0.12500000000E+03 0.  0.
</event>
<event>
 4    0  0.2193754E-002  0.2009663E+03  0.7546771E-02  0.1148926E+00
         21   -1    0    0  502  501  0.00000000000E+00  0.00000000000E+00  0.12216049238E+04  0.12216049238E+04  0.00000000000E+00 0.  1.
         21   -1    0    0  501  502 -0.00000000000E+00 -0.00000000000E+00 -0.33060978692E+02  0.33060978692E+02  0.00000000000E+00 0.  1.
         25    1    1    2    0    0  0.13827376084E+03  0.59459003295E+02  0.45096961703E+03  0.49158275142E+03  0.12500000000E+03 0.  0.
         25    1    1    2    0    0 -0.13827376084E+03 -0.59459003295E+02  0.73757432808E+03  0.76308315108E+03  0.12500000000E+03 0.  0.
</event>
<event>
 4    0  0.2193754E-002  0.3718449E+03  0.7546771E-02  0.1053990E+00
         21   -1    0    0  502  501  0.00000000000E+00  0.00000000000E+00  0.41638098681E+03  0.41638098681E+03  0.00000000000E+00 0.  1.
         21   -1    0    0  501  502 -0.00000000000E+00 -0.00000000000E+00 -0.33207236818E+03  0.33207236818E+03  0.00000000000E+00 0.  1.
         25    1    1    2    0    0  0.21279213803E+03 -0.27756354064E+03  0.60202590504E+02  0.37625970420E+03  0.12500000000E+03 0.  0.
         25    1    1    2    0    0 -0.21279213803E+03  0.27756354064E+03  0.24106028133E+02  0.37219365079E+03  0.12500000000E+03 0.  0.
</event>
<event>
 4    0  0.2193754E-002  0.1916819E+03  0.7546771E-02  0.1156953E+00
         21   -1    0    0  502  501  0.00000000000E+00  0.00000000000E+00  0.16300914618E+03  0.16300914618E+03  0.00000000000E+00 0.  1.
         21   -1    0    0  501  502 -0.00000000000E+00 -0.00000000000E+00 -0.22539807643E+03  0.22539807643E+03  0.00000000000E+00 0.  1.
         25    1    1    2    0    0 -0.34585191720E+02  0.13874765520E+03 -0.57417407598E+02  0.19841574031E+03  0.12500000000E+03 0.  0.
         25    1    1    2    0    0  0.34585191720E+02 -0.13874765520E+03 -0.49715226516E+01  0.18999148230E+03  0.12500000000E+03 0.  0.
</event>
<event>
 4    0  0.2193754E-002  0.2389280E+03  0.7546771E-02  0.1120509E+00
         21   -1    0    0  502  501  0.00000000000E+00  0.00000000000E+00  0.10990988234E+04  0.10990988234E+04  0.00000000000E+00 0.  1.
         21   -1    0    0  501  502 -0.00000000000E+00 -0.00000000000E+00 -0.51939437961E+02  0.51939437961E+02  0.00000000000E+00 0.  1.
         25    1    1    2    0    0 -0.35264836875E+02  0.19813008636E+03  0.59830686429E+03  0.64350232610E+03  0.12500000000E+03 0.  0.
         25    1    1    2    0    0  0.35264836875E+02 -0.19813008636E+03  0.44885252118E+03  0.50753593529E+03  0.12500000000E+03 0.  0.
</event>
<event>
 4    0  0.2193754E-002  0.2384773E+03  0.7546771E-02  0.1120811E+00
         21   -1    0    0  502  501  0.00000000000E+00  0.00000000000E+00  0.74573144341E+02  0.74573144341E+02  0.00000000000E+00 0. -1.
         21   -1    0    0  501  502 -0.00000000000E+00 -0.00000000000E+00 -0.76262593682E+03  0.76262593682E+03  0.00000000000E+00 0.  1.
         25    1    1    2    0    0 -0.16780467872E+02  0.19486622197E+03 -0.44003971375E+03  0.49750816902E+03  0.12500000000E+03 0.  0.
         25    1    1    2    0    0  0.16780467872E+02 -0.19486622197E+03 -0.24801307873E+03  0.33969091214E+03  0.12500000000E+03 0.  0.
</event>
<event>
 4    0  0.2193754E-002  0.1869451E+03  0.7546771E-02  0.1161246E+00
         21   -1    0    0  502  501  0.00000000000E+00  0.00000000000E+00  0.64744218930E+03  0.64744218930E+03  0.00000000000E+00 0. -1.
         21   -1    0    0  501  502 -0.00000000000E+00 -0.00000000000E+00 -0.53979274006E+02  0.53979274006E+02  0.00000000000E+00 0. -1.
         25    1    1    2    0    0 -0.18462706922E+02  0.12023809931E+03  0.42293249160E+03  0.45748766598E+03  0.12500000000E+03 0.  0.
         25    1    1    2    0    0  0.18462706922E+02 -0.12023809931E+03  0.17053042369E+03  0.24393379732E+03  0.12500000000E+03 0.  0.
</event>
<event>
 4    0  0.2193754E-002  0.2063165E+03  0.7546771E-02  0.1144517E+00
         21   -1    0    0  502  501  0.00000000000E+00  0.00000000000E+00  0.13827263988E+03  0.13827263988E+03  0.00000000000E+00 0. -1.
         21   -1    0    0  501  502 -0.00000000000E+00 -0.00000000000E+00 -0.30784482498E+03  0.30784482498E+03  0.00000000000E+00 0. -1.
         25    1    1    2    0    0  0.10102074232E+03  0.12342254363E+03 -0.42868740328E+02  0.20712567092E+03  0.12500000000E+03 0.  0.
         25    1    1    2    0    0 -0.10102074232E+03 -0.12342254363E+03 -0.12670344478E+03  0.23899179395E+03  0.12500000000E+03 0.  0.
</event>
<event>
 4    0  0.2193754E-002  0.2816741E+03  0.7546771E-02  0.1094778E+00
         21   -1    0    0  502  501  0.00000000000E+00  0.00000000000E+00  0.20948035381E+03  0.20948035381E+03  0.00000000000E+00 0. -1.
         21   -1    0    0  501  502 -0.00000000000E+00 -0.00000000000E+00 -0.37874809814E+03  0.37874809814E+03  0.00000000000E+00 0. -1.
         25    1    1    2    0    0  0.11406023587E+03  0.21764780832E+03 -0.24334088908E+02  0.27676245004E+03  0.12500000000E+03 0.  0.
         25    1    1    2    0    0 -0.11406023587E+03 -0.21764780832E+03 -0.14493365542E+03  0.31146600191E+03  0.12500000000E+03 0.  0.
</event>
<event>
 4    0  0.2193754E-002  0.2286530E+03  0.7546771E-02  0.1127591E+00
         21   -1    0    0  502  501  0.00000000000E+00  0.00000000000E+00  0.42706871004E+03  0.42706871004E+03  0.00000000000E+00 0. -1.
         21   -1    0    0  501  502 -0.00000000000E+00 -0.00000000000E+00 -0.12242098603E+03  0.12242098603E+03  0.00000000000E+00 0. -1.
         25    1    1    2    0    0  0.16492530414E+03  0.98464533706E+01  0.36075320371E+02  0.21029440632E+03  0.12500000000E+03 0.  0.
         25    1    1    2    0    0 -0.16492530414E+03 -0.98464533706E+01  0.26857240364E+03  0.33919528975E+03  0.12500000000E+03 0.  0.
</event>
<event>
 4    0  0.2193754E-002  0.1861851E+03  0.7546771E-02  0.1161948E+00
         21   -1    0    0  502  501  0.00000000000E+00  0.00000000000E+00  0.12694932255E+03  0.12694932255E+03  0.00000000000E+00 0. -1.
         21   -1    0    0  501  502 -0.00000000000E+00 -0.00000000000E+00 -0.27306081253E+03  0.27306081253E+03  0.00000000000E+00 0. -1.
         25    1    1    2    0    0  0.10918498079E+03  0.44552717887E+02  0.39115641494E+01  0.17189125934E+03  0.12500000000E+03 0.  0.
         25    1    1    2    0    0 -0.10918498079E+03 -0.44552717887E+02 -0.15002305413E+03  0.22811887575E+03  0.12500000000E+03 0.  0.
</event>
<event>
 4    0  0.2193754E-002  0.3098351E+03  0.7546771E-02  0.1080425E+00
         21   -1    0    0  502  501  0.00000000000E+00  0.00000000000E+00  0.32371364910E+03  0.32371364910E+03  0.00000000000E+00 0. -1.
         21   -1    0    0  501  502 -0.00000000000E+00 -0.00000000000E+00 -0.29655154148E+03  0.29655154148E+03  0.00000000000E+00 0. -1.
         25    1    1    2    0    0 -0.26893585501E+03 -0.62109910020E+02  0.78362952902E+02  0.31296946723E+03  0.12500000000E+03 0.  0.
         25    1    1    2    0    0  0.26893585501E+03  0.62109910020E+02 -0.51200845283E+02  0.30729572335E+03  0.12500000000E+03 0.  0.
</event>
<event>
 4    0  0.2193754E-002  0.1912865E+03  0.7546771E-02  0.1157306E+00
         21   -1    0    0  502  501  0.00000000000E+00  0.00000000000E+00  0.36095785491E+03  0.36095785491E+03  0.00000000000E+00 0.  1.
         21   -1    0    0  501  502 -0.00000000000E+00 -0.00000000000E+00 -0.10137060882E+03  0.10137060882E+03  0.00000000000E+00 0.  1.
         25    1    1    2    0    0 -0.95295342690E+02 -0.92654161143E+02  0.60377261235E+02  0.19218847413E+03  0.12500000000E+03 0.  0.
         25    1    1    2    0    0  0.95295342690E+02  0.92654161143E+02  0.19920998485E+03  0.27013998960E+03  0.12500000000E+03 0.  0.
</event>
<event>
 4    0  0.2193754E-002  0.2317925E+03  0.7546771E-02  0.1125384E+00
         21   -1    0    0  502  501  0.00000000000E+00  0.00000000000E+00  0.20562016424E+03  0.20562016424E+03  0.00000000000E+00 0.  1.
         21   -1    0    0  501  502 -0.00000000000E+00 -0.00000000000E+00 -0.26129625763E+03  0.26129625763E+03  0.00000000000E+00 0.  1.
         25    1    1    2    0    0  0.19509969812E+03 -0.36214331803E+01 -0.22724910566E+02  0.23284850986E+03  0.12500000000E+03 0.  0.
         25    1    1    2    0    0 -0.19509969812E+03  0.36214331803E+01 -0.32951182818E+02  0.23406791201E+03  0.12500000000E+03 0.  0.
</event>
<event>
 4    0  0.2193754E-002  0.2290752E+03  0.7546771E-02  0.1127292E+00
         21   -1    0    0  502  501  0.00000000000E+00  0.00000000000E+00  0.60272970703E+02  0.60272970703E+02  0.00000000000E+00 0.  1.
         21   -1    0    0  501  502 -0.00000000000E+00 -0.00000000000E+00 -0.87062951477E+03  0.87062951477E+03  0.00000000000E+00 0. -1.
         25    1    1    2    0    0 -0.18990971046E+03  0.21103605128E+02 -0.36774731059E+03  0.43286735234E+03  0.12500000000E+03 0.  0.
         25    1    1    2    0    0  0.18990971046E+03 -0.21103605128E+02 -0.44260923347E+03  0.49803513313E+03  0.12500000000E+03 0.  0.
</event>
<event>
 4    0  0.2193754E-002  0.1831450E+03  0.7546771E-02  0.1164794E+00
         21   -1    0    0  502  501  0.00000000000E+00  0.00000000000E+00  0.24512628417E+02  0.24512628417E+02  0.00000000000E+00 0. -1.
         21   -1    0    0  501  502 -0.00000000000E+00 -0.00000000000E+00 -0.13683599371E+04  0.13683599371E+04  0.00000000000E+00 0. -1.
         25    1    1    2    0    0 -0.87252457582E+02 -0.89169534120E+02 -0.48746962493E+03  0.51847452435E+03  0.12500000000E+03 0.  0.
         25    1    1    2    0    0  0.87252457582E+02  0.89169534120E+02 -0.85637768371E+03  0.87439804113E+03  0.12500000000E+03 0.  0.
</event>
<event>
 4    0  0.2193754E-002  0.3515275E+03  0.7546771E-02  0.1061990E+00
         21   -1    0    0  502  501  0.00000000000E+00  0.00000000000E+00  0.18776504399E+04  0.18776504399E+04  0.00000000000E+00 0.  1.
         21   -1    0    0  501  502 -0.00000000000E+00 -0.00000000000E+00 -0.65811804657E+02  0.65811804657E+02  0.00000000000E+00 0.  1.
         25    1    1    2    0    0  0.31863203572E+03  0.95248385222E+01  0.11258421998E+04  0.11767594298E+04  0.12500000000E+03 0.  0.
         25    1    1    2    0    0 -0.31863203572E+03 -0.95248385222E+01  0.68599643543E+03  0.76670281476E+03  0.12500000000E+03 0.  0.
</event>
<event>
 4    0  0.2193754E-002  0.1790803E+03  0.7546771E-02  0.1168696E+00
         21   -1    0    0  502  501  0.00000000000E+00  0.00000000000E+00  0.33130761492E+03  0.33130761492E+03  0.00000000000E+00 0.  1.
         21   -1    0    0  501  502 -0.00000000000E+00 -0.00000000000E+00 -0.96797539203E+02  0.96797539203E+02  0.00000000000E+00 0.  1.
         25    1    1    2    0    0  0.26005879653E+02  0.11905291973E+03  0.16498967818E+03  0.24020095208E+03  0.12500000000E+03 0.  0.
         25    1    1    2    0    0 -0.26005879653E+02 -0.11905291973E+03  0.69520397529E+02  0.18790420204E+03  0.12500000000E+03 0.  0.
</event>
<event>
 4    0  0.2193754E-002  0.1792934E+03  0.7546771E-02  0.1168489E+00
         21   -1    0    0  502  501  0.00000000000E+00  0.00000000000E+00  0.19646278553E+03  0.19646278553E+03  0.00000000000E+00 0.  1.
         21   -1    0    0  501  502 -0.00000000000E+00 -0.00000000000E+00 -0.16362449568E+03  0.16362449568E+03  0.00000000000E+00 0.  1.
         25    1    1    2    0    0 -0.41019017446E+02 -0.10484166191E+03  0.78701171455E+02  0.18572347254E+03  0.12500000000E+03 0.  0.
         25    1    1    2    0    0  0.41019017446E+02  0.10484166191E+03 -0.45862881607E+02  0.17436380867E+03  0.12500000000E+03 0.  0.
</event>
<event>
 4    0  0.2193754E-002  0.1839941E+03  0.7546771E-02  0.1163993E+00
         21   -1    0    0  502  501  0.00000000000E+00  0.00000000000E+00  0.52063755893E+03  0.52063755893E+03  0.00000000000E+00 0. -1.
         21   -1    0    0  501  502 -0.00000000000E+00 -0.00000000000E+00 -0.65023817128E+02  0.65023817128E+02  0.00000000000E+00 0.  1.
         25    1    1    2    0    0 -0.25084534716E+02 -0.12849912052E+03  0.28029292558E+03  0.33366207754E+03  0.12500000000E+03 0.  0.
         25    1    1    2    0    0  0.25084534716E+02  0.12849912052E+03  0.17532081622E+03  0.25199929852E+03  0.12500000000E+03 0.  0.
</event>
<event>
 4    0  0.2193754E-002  0.2540271E+03  0.7546771E-02  0.1110786E+00
         21   -1    0    0  502  501  0.00000000000E+00  0.00000000000E+00  0.13118695239E+04  0.13118695239E+04  0.00000000000E+00 0.  1.
         21   -1    0    0  501  502 -0.00000000000E+00 -0.00000000000E+00 -0.49189156628E+02  0.49189156628E+02  0.00000000000E+00 0.  1.
         25    1    1    2    0    0  0.21025486508E+03  0.66032292814E-01  0.44772573985E+03  0.51018668228E+03  0.12500000000E+03 0.  0.
         25    1    1    2    0    0 -0.21025486508E+03 -0.66032292814E-01  0.81495462745E+03  0.85087199827E+03  0.12500000000E+03 0.  0.
</event>
<event>
 4    0  0.2193754E-002  0.2106337E+03  0.7546771E-02  0.1141065E+00
         21   -1    0    0  502  501  0.00000000000E+00  0.00000000000E+00  0.11452007135E+04  0.11452007135E+04  0.00000000000E+00 0.  1.
         21   -1    0    0  501  502 -0.00000000000E+00 -0.00000000000E+00 -0.38741289659E+02  0.38741289659E+02  0.00000000000E+00 0.  1.
         25    1    1    2    0    0 -0.56945972464E+02  0.15713966628E+03  0.63300996336E+03  0.66653006850E+03  0.12500000000E+03 0.  0.
         25    1    1    2    0    0  0.56945972464E+02 -0.15713966628E+03  0.47344946047E+03  0.51741193465E+03  0.12500000000E+03 0.  0.
</event>
<event>
 4    0  0.2193754E-002  0.2058739E+03  0.7546771E-02  0.1144876E+00
         21   -1    0    0  502  501  0.00000000000E+00  0.00000000000E+00  0.12043259907E+03  0.12043259907E+03  0.00000000000E+00 0.  1.
         21   -1    0    0  501  502 -0.00000000000E+00 -0.00000000000E+00 -0.35193193679E+03  0.35193193679E+03  0.00000000000E+00 0.  1.
         25    1    1    2    0    0 -0.16117315620E+03 -0.24307519797E+02 -0.13162262348E+03  0.24396138385E+03  0.12500000000E+03 0.  0.
         25    1    1    2    0    0  0.16117315620E+03  0.24307519797E+02 -0.99876714243E+02  0.22840315201E+03  0.12500000000E+03 0.  0.
</event>
<event>
 4    0  0.2193754E-002  0.2409389E+03  0.7546771E-02  0.1119169E+00
         21   -1    0    0  502  501  0.00000000000E+00  0.00000000000E+00  0.74651675524E+02  0.74651675524E+02  0.00000000000E+00 0.  1.
         21   -1    0    0  501  502 -0.00000000000E+00 -0.00000000000E+00 -0.77763243084E+03  0.77763243084E+03  0.00000000000E+00 0.  1.
         25    1    1    2    0    0  0.11810778390E+03 -0.16873728280E+03 -0.34759741859E+03  0.42293106370E+03  0.12500000000E+03 0.  0.
         25    1    1    2    0    0 -0.11810778390E+03  0.16873728280E+03 -0.35538333672E+03  0.42935304267E+03  0.12500000000E+03 0.  0.
</event>
<event>
 4    0  0.2193754E-002  0.3246348E+03  0.7546771E-02  0.1073536E+00
         21   -1    0    0  502  501  0.00000000000E+00  0.00000000000E+00  0.21796180707E+03  0.21796180707E+03  0.00000000000E+00 0.  1.
         21   -1    0    0  501  502 -0.00000000000E+00 -0.00000000000E+00 -0.48351490902E+03  0.48351490902E+03  0.00000000000E+00 0.  1.
         25    1    1    2    0    0  0.71181658781E+01  0.11852844905E+03  0.16441075672E+03  0.23823425120E+03  0.12500000000E+03 0.  0.
         25    1    1    2    0    0 -0.71181658781E+01 -0.11852844905E+03 -0.42996385867E+03  0.46324246489E+03  0.12500000000E+03 0.  0.
</event>
<event>
 4    0  0.2193754E-002  0.3987148E+03  0.7546771E-02  0.1044226E+00
         21   -1    0    0  502  501  0.00000000000E+00  0.00000000000E+00  0.56771741042E+03  0.56771741042E+03  0.00000000000E+00 0. -1.
         21   -1    0    0  501  502 -0.00000000000E+00 -0.00000000000E+00 -0.28002217338E+03  0.28002217338E+03  0.00000000000E+00 0. -1.
         25    1    1    2    0    0 -0.16348946120E+03 -0.31447153137E+03  0.28539167310E+03  0.47190523947E+03  0.12500000000E+03 0.  0.
         25    1    1    2    0    0  0.16348946120E+03  0.31447153137E+03  0.23035639416E+01  0.37583434432E+03  0.12500000000E+03 0.  0.
</event>
<event>
 4    0  0.2193754E-002  0.1761137E+03  0.7546771E-02  0.1171618E+00
         21   -1    0    0  502  501  0.00000000000E+00  0.00000000000E+00  0.77480206464E+02  0.77480206464E+02  0.00000000000E+00 0. -1.
         21   -1    0    0  501  502 -0.00000000000E+00 -0.00000000000E+00 -0.40030905261E+03  0.40030905261E+03  0.00000000000E+00 0. -1.
         25    1    1    2    0    0  0.20586470863E+02 -0.45426886860E+02 -0.31550253473E+03  0.34300765917E+03  0.12500000000E+03 0.  0.
         25    1    1    2    0    0 -0.20586470863E+02  0.45426886860E+02 -0.73263114170E+01  0.13478159990E+03  0.12500000000E+03 0.  0.
</event>
<event>
 4    0  0.2193754E-002  0.1609338E+03  0.7546771E-02  0.1187646E+00
         21   -1    0    0  502  501  0.00000000000E+00  0.00000000000E+00  0.18111413039E+04  0.18111413039E+04  0.00000000000E+00 0. -1.
         21   -1    0    0  501  502 -0.00000000000E+00 -0.00000000000E+00 -0.14300209968E+02  0.14300209968E+02  0.00000000000E+00 0. -1.
         25    1    1    2    0    0 -0.84777670074E+02 -0.49439211363E+02  0.10422565512E+04  0.10543031857E+04  0.12500000000E+03 0.  0.
         25    1    1    2    0    0  0.84777670074E+02  0.49439211363E+02  0.75458454273E+03  0.77113832811E+03  0.12500000000E+03 0.  0.
</event>
<event>
 4    0  0.2193754E-002  0.2190871E+03  0.7546771E-02  0.1134565E+00
         21   -1    0    0  502  501  0.00000000000E+00  0.00000000000E+00  0.29652270858E+03  0.29652270858E+03  0.00000000000E+00 0.  1.
         21   -1    0    0  501  502 -0.00000000000E+00 -0.00000000000E+00 -0.16187344498E+03  0.16187344498E+03  0.00000000000E+00 0.  1.
         25    1    1    2    0    0  0.44936999488E+02 -0.25447451073E+02  0.24763694253E+03  0.28216300607E+03  0.12500000000E+03 0.  0.
         25    1    1    2    0    0 -0.44936999488E+02  0.25447451073E+02 -0.11298767892E+03  0.17623314750E+03  0.12500000000E+03 0.  0.
</event>
<event>
 4    0  0.2193754E-002  0.2658270E+03  0.7546771E-02  0.1103692E+00
         21   -1    0    0  502  501  0.00000000000E+00  0.00000000000E+00  0.15387493745E+03  0.15387493745E+03  0.00000000000E+00 0.  1.
         21   -1    0    0  501  502 -0.00000000000E+00 -0.00000000000E+00 -0.45922994740E+03  0.45922994740E+03  0.00000000000E+00 0.  1.
         25    1    1    2    0    0 -0.33493763459E+02 -0.21598437967E+03 -0.54364706911E+02  0.25758805448E+03  0.12500000000E+03 0.  0.
         25    1    1    2    0    0  0.33493763459E+02  0.21598437967E+03 -0.25099030304E+03  0.35551683036E+03  0.12500000000E+03 0.  0.
</event>
<event>
 4    0  0.2193754E-002  0.1800415E+03  0.7546771E-02  0.1167763E+00
         21   -1    0    0  502  501  0.00000000000E+00  0.00000000000E+00  0.11404823601E+03  0.11404823601E+03  0.00000000000E+00 0. -1.
         21   -1    0    0  501  502 -0.00000000000E+00 -0.00000000000E+00 -0.28422140741E+03  0.28422140741E+03  0.00000000000E+00 0. -1.
         25    1    1    2    0    0 -0.10914456084E+03  0.24514006097E+02 -0.15741645441E+03  0.23004002212E+03  0.12500000000E+03 0.  0.
         25    1    1    2    0    0  0.10914456084E+03 -0.24514006097E+02 -0.12756716996E+02  0.16822962131E+03  0.12500000000E+03 0.  0.
</event>
<event>
 4    0  0.2193754E-002  0.2082458E+03  0.7546771E-02  0.1142963E+00
         21   -1    0    0  502  501  0.00000000000E+00  0.00000000000E+00  0.81465524220E+03  0.81465524220E+03  0.00000000000E+00 0.  1.
         21   -1    0    0  501  502 -0.00000000000E+00 -0.00000000000E+00 -0.53232705070E+02  0.53232705070E+02  0.00000000000E+00 0.  1.
         25    1    1    2    0    0 -0.12932723893E+03  0.72960028306E+01  0.59889028459E+03  0.62535856863E+03  0.12500000000E+03 0.  0.
         25    1    1    2    0    0  0.12932723893E+03 -0.72960028306E+01  0.16253225255E+03  0.24252937864E+03  0.12500000000E+03 0.  0.
</event>
<event>
 4    0  0.2193754E-002  0.2370599E+03  0.7546771E-02  0.1121767E+00
         21   -1    0    0  502  501  0.00000000000E+00  0.00000000000E+00  0.83328604210E+03  0.83328604210E+03  0.00000000000E+00 0. -1.
         21   -1    0    0  501  502 -0.00000000000E+00 -0.00000000000E+00 -0.67440722394E+02  0.67440722394E+02  0.00000000000E+00 0. -1.
         25    1    1    2    0    0  0.26891499425E+02  0.11124930959E+03  0.68034176551E+02  0.18262861442E+03  0.12500000000E+03 0.  0.
         25    1    1    2    0    0 -0.26891499425E+02 -0.11124930959E+03  0.69781114316E+03  0.71809815007E+03  0.12500000000E+03 0.  0.
</event>
<event>
 4    0  0.2193754E-002  0.2085006E+03  0.7546771E-02  0.1142759E+00
         21   -1    0    0  502  501  0.00000000000E+00  0.00000000000E+00  0.39173655943E+02  0.39173655943E+02  0.00000000000E+00 0.  1.
         21   -1    0    0  501  502 -0.00000000000E+00 -0.00000000000E+00 -0.11097379997E+04  0.11097379997E+04  0.00000000000E+00 0.  1.
         25    1    1    2    0    0 -0.96482902124E+01  0.14313334739E+03 -0.77015588160E+03  0.79331288064E+03  0.12500000000E+03 0.  0.
         25    1    1    2    0    0  0.96482902124E+01 -0.14313334739E+03 -0.30040846214E+03  0.35559877498E+03  0.12500000000E+03 0.  0.
</event>
<event>
 4    0  0.2193754E-002  0.1314684E+03  0.7546771E-02  0.1225293E+00
         21   -1    0    0  502  501  0.00000000000E+00  0.00000000000E+00  0.82598250109E+03  0.82598250109E+03  0.00000000000E+00 0. -1.
         21   -1    0    0  501  502 -0.00000000000E+00 -0.00000000000E+00 -0.20925303865E+02  0.20925303865E+02  0.00000000000E+00 0. -1.
         25    1    1    2    0    0  0.37157819111E+02 -0.16378707842E+02  0.41269847469E+03  0.43312122623E+03  0.12500000000E+03 0.  0.
         25    1    1    2    0    0 -0.37157819111E+02  0.16378707842E+02  0.39235872253E+03  0.41378657873E+03  0.12500000000E+03 0.  0.
</event>
<event>
 4    0  0.2193754E-002  0.2052553E+03  0.7546771E-02  0.1145379E+00
         21   -1    0    0  502  501  0.00000000000E+00  0.00000000000E+00  0.17019769450E+02  0.17019769450E+02  0.00000000000E+00 0. -1.
         21   -1    0    0  501  502 -0.00000000000E+00 -0.00000000000E+00 -0.24753423161E+04  0.24753423161E+04  0.00000000000E+00 0. -1.
         25    1    1    2    0    0 -0.12080539233E+03  0.53628018248E+02 -0.18062559989E+04  0.18153940732E+04  0.12500000000E+03 0.  0.
         25    1    1    2    0    0  0.12080539233E+03 -0.53628018248E+02 -0.65206654772E+03  0.67696801241E+03  0.12500000000E+03 0.  0.
</event>
<event>
 4    0  0.2193754E-002  0.2517776E+03  0.7546771E-02  0.1112187E+00
         21   -1    0    0  502  501  0.00000000000E+00  0.00000000000E+00  0.12963817061E+03  0.12963817061E+03  0.00000000000E+00 0. -1.
         21   -1    0    0  501  502 -0.00000000000E+00 -0.00000000000E+00 -0.48899144284E+03  0.48899144284E+03  0.00000000000E+00 0. -1.
         25    1    1    2    0    0  0.21531395943E+03  0.23486410879E+02 -0.14374901038E+03  0.28844495247E+03  0.12500000000E+03 0.  0.
         25    1    1    2    0    0 -0.21531395943E+03 -0.23486410879E+02 -0.21560426185E+03  0.33018466098E+03  0.12500000000E+03 0.  0.
</event>
<event>
 4    0  0.2193754E-002  0.1779375E+03  0.7546771E-02  0.1169814E+00
         21   -1    0    0  502  501  0.00000000000E+00  0.00000000000E+00  0.37426430745E+03  0.37426430745E+03  0.00000000000E+00 0. -1.
         21   -1    0    0  501  502 -0.00000000000E+00 -0.00000000000E+00 -0.84597320634E+02  0.84597320634E+02  0.00000000000E+00 0. -1.
         25    1    1    2    0    0 -0.74648867976E+02  0.15374690125E+01  0.12950026508E+02  0.14617633354E+03  0.12500000000E+03 0.  0.
         25    1    1    2    0    0  0.74648867976E+02 -0.15374690125E+01  0.27671696031E+03  0.31268529454E+03  0.12500000000E+03 0.  0.
</event>
<event>
 4    0  0.2193754E-002  0.2259638E+03  0.7546771E-02  0.1129513E+00
         21   -1    0    0  502  501  0.00000000000E+00  0.00000000000E+00  0.11009436673E+03  0.11009436673E+03  0.00000000000E+00 0.  1.
         21   -1    0    0  501  502 -0.00000000000E+00 -0.00000000000E+00 -0.46378083619E+03  0.46378083619E+03  0.00000000000E+00 0.  1.
         25    1    1    2    0    0 -0.17650008096E+03  0.16900365603E+02 -0.96564159427E+02  0.23746060267E+03  0.12500000000E+03 0.  0.
         25    1    1    2    0    0  0.17650008096E+03 -0.16900365603E+02 -0.25712231003E+03  0.33641460024E+03  0.12500000000E+03 0.  0.
</event>
<event>
 4    0  0.2193754E-002  0.2291506E+03  0.7546771E-02  0.1127239E+00
         21   -1    0    0  502  501  0.00000000000E+00  0.00000000000E+00  0.78257516808E+03  0.78257516808E+03  0.00000000000E+00 0.  1.
         21   -1    0    0  501  502 -0.00000000000E+00 -0.00000000000E+00 -0.67098974863E+02  0.67098974863E+02  0.00000000000E+00 0.  1.
         25    1    1    2    0    0  0.24979096973E+02  0.15977998154E+03  0.16568138119E+03  0.26311388762E+03  0.12500000000E+03 0.  0.
         25    1    1    2    0    0 -0.24979096973E+02 -0.15977998154E+03  0.54979481202E+03  0.58656025532E+03  0.12500000000E+03 0.  0.
</event>
<event>
 4    0  0.2193754E-002  0.2523393E+03  0.7546771E-02  0.1111835E+00
         21   -1    0    0  502  501  0.00000000000E+00  0.00000000000E+00  0.19875399923E+03  0.19875399923E+03  0.00000000000E+00 0.  1.
         21   -1    0    0  501  502 -0.00000000000E+00 -0.00000000000E+00 -0.32037151861E+03  0.32037151861E+03  0.00000000000E+00 0.  1.
         25    1    1    2    0    0 -0.49502641488E+01 -0.95100760848E+02  0.14228030913E+03  0.21198430648E+03  0.12500000000E+03 0.  0.
         25    1    1    2    0    0  0.49502641488E+01  0.95100760848E+02 -0.26389782850E+03  0.30714121136E+03  0.12500000000E+03 0.  0.
</event>
<event>
 4    0  0.2193754E-002  0.2205791E+03  0.7546771E-02  0.1133452E+00
         21   -1    0    0  502  501  0.00000000000E+00  0.00000000000E+00  0.23416621384E+03  0.23416621384E+03  0.00000000000E+00 0.  1.
         21   -1    0    0  501  502 -0.00000000000E+00 -0.00000000000E+00 -0.20778040969E+03  0.20778040969E+03  0.00000000000E+00 0.  1.
         25    1    1    2    0    0  0.58929421999E+02 -0.16568776616E+03 -0.32769794874E+02  0.21822917332E+03  0.12500000000E+03 0.  0.
         25    1    1    2    0    0 -0.58929421999E+02  0.16568776616E+03  0.59155599017E+02  0.22371745021E+03  0.12500000000E+03 0.  0.
</event>
<event>
 4    0  0.2193754E-002  0.2048581E+03  0.7546771E-02  0.1145704E+00
         21   -1    0    0  502  501  0.00000000000E+00  0.00000000000E+00  0.21936924982E+03  0.21936924982E+03  0.00000000000E+00 0. -1.
         21   -1    0    0  501  502 -0.00000000000E+00 -0.00000000000E+00 -0.19130682993E+03  0.19130682993E+03  0.00000000000E+00 0. -1.
         25    1    1    2    0    0 -0.12310780315E+03  0.58165446631E+02  0.10257324082E+03  0.21138831593E+03  0.12500000000E+03 0.  0.
         25    1    1    2    0    0  0.12310780315E+03 -0.58165446631E+02 -0.74510820926E+02  0.19928776383E+03  0.12500000000E+03 0.  0.
</event>
<event>
 4    0  0.2193754E-002  0.1973488E+03  0.7546771E-02  0.1151995E+00
         21   -1    0    0  502  501  0.00000000000E+00  0.00000000000E+00  0.61610384768E+02  0.61610384768E+02  0.00000000000E+00 0. -1.
         21   -1    0    0  501  502 -0.00000000000E+00 -0.00000000000E+00 -0.63214291667E+03  0.63214291667E+03  0.00000000000E+00 0. -1.
         25    1    1    2    0    0  0.76864004431E+02 -0.30145618130E+02 -0.51107708429E+03  0.53258015318E+03  0.12500000000E+03 0.  0.
         25    1    1    2    0    0 -0.76864004431E+02  0.30145618130E+02 -0.59455447608E+02  0.16117314826E+03  0.12500000000E+03 0.  0.
</event>
<event>
 4    0  0.2193754E-002  0.1639312E+03  0.7546771E-02  0.1184329E+00
         21   -1    0    0  502  501  0.00000000000E+00  0.00000000000E+00  0.33221759843E+03  0.33221759843E+03  0.00000000000E+00 0. -1.
         21   -1    0    0  501  502 -0.00000000000E+00 -0.00000000000E+00 -0.80891059234E+02  0.80891059234E+02  0.00000000000E+00 0. -1.
         25    1    1    2    0    0  0.58176649341E+02 -0.88439733109E+02  0.13386052947E+03  0.21154136775E+03  0.12500000000E+03 0.  0.
         25    1    1    2    0    0 -0.58176649341E+02  0.88439733109E+02  0.11746600972E+03  0.20156728991E+03  0.12500000000E+03 0.  0.
</event>
<event>
 4    0  0.2193754E-002  0.2218523E+03  0.7546771E-02  0.1132510E+00
         21   -1    0    0  502  501  0.00000000000E+00  0.00000000000E+00  0.77747891371E+03  0.77747891371E+03  0.00000000000E+00 0.  1.
         21   -1    0    0  501  502 -0.00000000000E+00 -0.00000000000E+00 -0.63305192806E+02  0.63305192806E+02  0.00000000000E+00 0.  1.
         25    1    1    2    0    0 -0.46117920713E+02  0.16726265356E+03  0.24514553199E+03  0.32530753102E+03  0.12500000000E+03 0.  0.
         25    1    1    2    0    0  0.46117920713E+02 -0.16726265356E+03  0.46902818892E+03  0.51547657550E+03  0.12500000000E+03 0.  0.
</event>
<event>
 4    0  0.2193754E-002  0.2053303E+03  0.7546771E-02  0.1145318E+00
         21   -1    0    0  502  501  0.00000000000E+00  0.00000000000E+00  0.40927517534E+03  0.40927517534E+03  0.00000000000E+00 0. -1.
         21   -1    0    0  501  502 -0.00000000000E+00 -0.00000000000E+00 -0.10301263372E+03  0.10301263372E+03  0.00000000000E+00 0. -1.
         25    1    1    2    0    0  0.12320744871E+03 -0.95929127239E+02  0.21101509476E+03  0.29074876283E+03  0.12500000000E+03 0.  0.
         25    1    1    2    0    0 -0.12320744871E+03  0.95929127239E+02  0.95247446864E+02  0.22153904623E+03  0.12500000000E+03 0.  0.
</event>
<event>
 4    0  0.2193754E-002  0.1714421E+03  0.7546771E-02  0.1176352E+00
         21   -1    0    0  502  501  0.00000000000E+00  0.00000000000E+00  0.24484375205E+04  0.24484375205E+04  0.00000000000E+00 0.  1.
         21   -1    0    0  501  502 -0.00000000000E+00 -0.00000000000E+00 -0.12004550543E+02  0.12004550543E+02  0.00000000000E+00 0.  1.
         25    1    1    2    0    0  0.10098352815E+03  0.27116243045E+02  0.83618564202E+03  0.85191806620E+03  0.12500000000E+03 0.  0.
         25    1    1    2    0    0 -0.10098352815E+03 -0.27116243045E+02  0.16002473279E+04  0.16085240048E+04  0.12500000000E+03 0.  0.
</event>
<event>
 4    0  0.2193754E-002  0.2178899E+03  0.7546771E-02  0.1135466E+00
         21   -1    0    0  502  501  0.00000000000E+00  0.00000000000E+00  0.28175770125E+03  0.28175770125E+03  0.00000000000E+00 0.  1.
         21   -1    0    0  501  502 -0.00000000000E+00 -0.00000000000E+00 -0.16849937132E+03  0.16849937132E+03  0.00000000000E+00 0.  1.
         25    1    1    2    0    0 -0.13919476789E+03  0.10990934638E+03  0.77183465658E+02  0.23029879548E+03  0.12500000000E+03 0.  0.
         25    1    1    2    0    0  0.13919476789E+03 -0.10990934638E+03  0.36074864265E+02  0.21995827709E+03  0.12500000000E+03 0.  0.
</event>
<event>
 4    0  0.2193754E-002  0.2000057E+03  0.7546771E-02  0.1149734E+00
         21   -1    0    0  502  501  0.00000000000E+00  0.00000000000E+00  0.82182829660E+03  0.82182829660E+03  0.00000000000E+00 0. -1.
         21   -1    0    0  501  502 -0.00000000000E+00 -0.00000000000E+00 -0.48674734599E+02  0.48674734599E+02  0.00000000000E+00 0. -1.
         25    1    1    2    0    0 -0.14147358159E+03  0.63395219864E+02  0.34624100468E+03  0.39942654082E+03  0.12500000000E+03 0.  0.
         25    1    1    2    0    0  0.14147358159E+03 -0.63395219864E+02  0.42691255733E+03  0.47107649039E+03  0.12500000000E+03 0.  0.
</event>
<event>
 4    0  0.2193754E-002  0.1768400E+03  0.7546771E-02  0.1170897E+00
         21   -1    0    0  502  501  0.00000000000E+00  0.00000000000E+00  0.20435844765E+02  0.20435844765E+02  0.00000000000E+00 0.  1.
         21   -1    0    0  501  502 -0.00000000000E+00 -0.00000000000E+00 -0.15302705889E+04  0.15302705889E+04  0.00000000000E+00 0.  1.
         25    1    1    2    0    0 -0.12258795858E+03  0.31639263096E+01 -0.64666801192E+03  0.66995696552E+03  0.12500000000E+03 0.  0.
         25    1    1    2    0    0  0.12258795858E+03 -0.31639263096E+01 -0.86316673222E+03  0.88074946815E+03  0.12500000000E+03 0.  0.
</event>
<event>
 4    0  0.2193754E-002  0.1998231E+03  0.7546771E-02  0.1149888E+00
         21   -1    0    0  502  501  0.00000000000E+00  0.00000000000E+00  0.75568366766E+02  0.75568366766E+02  0.00000000000E+00 0. -1.
         21   -1    0    0  501  502 -0.00000000000E+00 -0.00000000000E+00 -0.52838583957E+03  0.52838583957E+03  0.00000000000E+00 0. -1.
         25    1    1    2    0    0 -0.89830936563E+01 -0.15551886469E+03 -0.21716162607E+03  0.29504403922E+03  0.12500000000E+03 0.  0.
         25    1    1    2    0    0  0.89830936563E+01  0.15551886469E+03 -0.23565584674E+03  0.30891016711E+03  0.12500000000E+03 0.  0.
</event>
<event>
 4    0  0.2193754E-002  0.1528666E+03  0.7546771E-02  0.1196994E+00
         21   -1    0    0  502  501  0.00000000000E+00  0.00000000000E+00  0.24270017187E+03  0.24270017187E+03  0.00000000000E+00 0. -1.
         21   -1    0    0  501  502 -0.00000000000E+00 -0.00000000000E+00 -0.96284233006E+02  0.96284233006E+02  0.00000000000E+00 0. -1.
         25    1    1    2    0    0  0.57699330691E+01  0.24377845540E+02 -0.20320477759E+02  0.12909490035E+03  0.12500000000E+03 0.  0.
         25    1    1    2    0    0 -0.57699330691E+01 -0.24377845540E+02  0.16673641662E+03  0.20988950452E+03  0.12500000000E+03 0.  0.
</event>
<event>
 4    0  0.2193754E-002  0.2273685E+03  0.7546771E-02  0.1128506E+00
         21   -1    0    0  502  501  0.00000000000E+00  0.00000000000E+00  0.14406114706E+03  0.14406114706E+03  0.00000000000E+00 0. -1.
         21   -1    0    0  501  502 -0.00000000000E+00 -0.00000000000E+00 -0.35885058054E+03  0.35885058054E+03  0.00000000000E+00 0. -1.
         25    1    1    2    0    0  0.15631469017E+03 -0.82939819761E+02 -0.31107869445E+02  0.21887438316E+03  0.12500000000E+03 0.  0.
         25    1    1    2    0    0 -0.15631469017E+03  0.82939819761E+02 -0.18368156403E+03  0.28403734443E+03  0.12500000000E+03 0.  0.
</event>
<event>
 4    0  0.2193754E-002  0.3550645E+03  0.7546771E-02  0.1060555E+00
         21   -1    0    0  502  501  0.00000000000E+00  0.00000000000E+00  0.84544465276E+03  0.84544465276E+03  0.00000000000E+00 0. -1.
         21   -1    0    0  501  502 -0.00000000000E+00 -0.00000000000E+00 -0.14911777745E+03  0.14911777745E+03  0.00000000000E+00 0. -1.
         25    1    1    2    0    0 -0.38470304955E+02  0.32834637015E+03  0.30057556246E+03  0.46396333034E+03  0.12500000000E+03 0.  0.
         25    1    1    2    0    0  0.38470304955E+02 -0.32834637015E+03  0.39575131285E+03  0.53059909987E+03  0.12500000000E+03 0.  0.
</event>
<event>
 4    0  0.2193754E-002  0.2262214E+03  0.7546771E-02  0.1129328E+00
         21   -1    0    0  502  501  0.00000000000E+00  0.00000000000E+00  0.83007841344E+03  0.83007841344E+03  0.00000000000E+00 0.  1.
         21   -1    0    0  501  502 -0.00000000000E+00 -0.00000000000E+00 -0.61652142940E+02  0.61652142940E+02  0.00000000000E+00 0.  1.
         25    1    1    2    0    0  0.13130831572E+03  0.13418785700E+03  0.41851278695E+03  0.47542213620E+03  0.12500000000E+03 0.  0.
         25    1    1    2    0    0 -0.13130831572E+03 -0.13418785700E+03  0.34991348354E+03  0.41630842018E+03  0.12500000000E+03 0.  0.
</event>
<event>
 4    0  0.2193754E-002  0.2439512E+03  0.7546771E-02  0.1117188E+00
         21   -1    0    0  502  501  0.00000000000E+00  0.00000000000E+00  0.62506472506E+03  0.62506472506E+03  0.00000000000E+00 0.  1.
         21   -1    0    0  501  502 -0.00000000000E+00 -0.00000000000E+00 -0.95209607673E+02  0.95209607673E+02  0.00000000000E+00 0.  1.
         25    1    1    2    0    0  0.15482449707E+03 -0.12926239741E+03  0.18131586767E+03  0.29862993177E+03  0.12500000000E+03 0.  0.
         25    1    1    2    0    0 -0.15482449707E+03  0.12926239741E+03  0.34853924971E+03  0.42164440096E+03  0.12500000000E+03 0.  0.
</event>
<event>
 4    0  0.2193754E-002  0.1721817E+03  0.7546771E-02  0.1175592E+00
         21   -1    0    0  502  501  0.00000000000E+00  0.00000000000E+00  0.26255519418E+03  0.26255519418E+03  0.00000000000E+00 0. -1.
         21   -1    0    0  501  502 -0.00000000000E+00 -0.00000000000E+00 -0.11291547245E+03  0.11291547245E+03  0.00000000000E+00 0. -1.
         25    1    1    2    0    0 -0.95121085504E+02 -0.14590206173E+02 -0.41031093325E+00  0.15775317233E+03  0.12500000000E+03 0.  0.
         25    1    1    2    0    0  0.95121085504E+02  0.14590206173E+02  0.15005003266E+03  0.21771749430E+03  0.12500000000E+03 0.  0.
</event>
<event>
 4    0  0.2193754E-002  0.2302700E+03  0.7546771E-02  0.1126450E+00
         21   -1    0    0  502  501  0.00000000000E+00  0.00000000000E+00  0.54159091494E+03  0.54159091494E+03  0.00000000000E+00 0. -1.
         21   -1    0    0  501  502 -0.00000000000E+00 -0.00000000000E+00 -0.97904667817E+02  0.97904667817E+02  0.00000000000E+00 0. -1.
         25    1    1    2    0    0 -0.15084844463E+03  0.10473984641E+03  0.13768122813E+03  0.26135571403E+03  0.12500000000E+03 0.  0.
         25    1    1    2    0    0  0.15084844463E+03 -0.10473984641E+03  0.30600501899E+03  0.37813986873E+03  0.12500000000E+03 0.  0.
</event>
<event>
 4    0  0.2193754E-002  0.2320601E+03  0.7546771E-02  0.1125198E+00
         21   -1    0    0  502  501  0.00000000000E+00  0.00000000000E+00  0.39531278477E+03  0.39531278477E+03  0.00000000000E+00 0.  1.
         21   -1    0    0  501  502 -0.00000000000E+00 -0.00000000000E+00 -0.13622600152E+03  0.13622600152E+03  0.00000000000E+00 0.  1.
         25    1    1    2    0    0  0.45378831922E+02  0.84534354917E+02 -0.65560121591E+02  0.17067051617E+03  0.12500000000E+03 0.  0.
         25    1    1    2    0    0 -0.45378831922E+02 -0.84534354917E+02  0.32464690485E+03  0.36086827012E+03  0.12500000000E+03 0.  0.
</event>
<event>
 4    0  0.2193754E-002  0.3040454E+03  0.7546771E-02  0.1083236E+00
         21   -1    0    0  502  501  0.00000000000E+00  0.00000000000E+00  0.25560661832E+04  0.25560661832E+04  0.00000000000E+00 0. -1.
         21   -1    0    0  501  502 -0.00000000000E+00 -0.00000000000E+00 -0.36166354831E+02  0.36166354831E+02  0.00000000000E+00 0. -1.
         25    1    1    2    0    0 -0.17542840772E+03 -0.55898177504E+02  0.37680971280E+03  0.43761888915E+03  0.12500000000E+03 0.  0.
         25    1    1    2    0    0  0.17542840772E+03  0.55898177504E+02  0.21430901155E+04  0.21546136488E+04  0.12500000000E+03 0.  0.
</event>
<event>
 4    0  0.2193754E-002  0.2265003E+03  0.7546771E-02  0.1129128E+00
         21   -1    0    0  502  501  0.00000000000E+00  0.00000000000E+00  0.91754350011E+03  0.91754350011E+03  0.00000000000E+00 0. -1.
         21   -1    0    0  501  502 -0.00000000000E+00 -0.00000000000E+00 -0.55912755461E+02  0.55912755461E+02  0.00000000000E+00 0. -1.
         25    1    1    2    0    0  0.10000962556E+03 -0.19222254529E+02  0.88970462458E+02  0.18415255487E+03  0.12500000000E+03 0.  0.
         25    1    1    2    0    0 -0.10000962556E+03  0.19222254529E+02  0.77266028219E+03  0.78930370071E+03  0.12500000000E+03 0.  0.
</event>
<event>
 4    0  0.2193754E-002  0.1810288E+03  0.7546771E-02  0.1166811E+00
         21   -1    0    0  502  501  0.00000000000E+00  0.00000000000E+00  0.37943614995E+02  0.37943614995E+02  0.00000000000E+00 0.  1.
         21   -1    0    0  501  502 -0.00000000000E+00 -0.00000000000E+00 -0.86368719427E+03  0.86368719427E+03  0.00000000000E+00 0.  1.
         25    1    1    2    0    0  0.60068817833E+01  0.94477182472E+02 -0.63816308507E+03  0.65714469014E+03  0.12500000000E+03 0.  0.
         25    1    1    2    0    0 -0.60068817833E+01 -0.94477182472E+02 -0.18758049420E+03  0.24448611912E+03  0.12500000000E+03 0.  0.
</event>
<event>
 4    0  0.2193754E-002  0.1896085E+03  0.7546771E-02  0.1158815E+00
         21   -1    0    0  502  501  0.00000000000E+00  0.00000000000E+00  0.79984854742E+02  0.79984854742E+02  0.00000000000E+00 0. -1.
         21   -1    0    0  501  502 -0.00000000000E+00 -0.00000000000E+00 -0.44947754185E+03  0.44947754185E+03  0.00000000000E+00 0. -1.
         25    1    1    2    0    0  0.11993158023E+03  0.46208053889E+02 -0.98592533900E+02  0.20460756565E+03  0.12500000000E+03 0.  0.
         25    1    1    2    0    0 -0.11993158023E+03 -0.46208053889E+02 -0.27090015321E+03  0.32485483094E+03  0.12500000000E+03 0.  0.
</event>
<event>
 4    0  0.2193754E-002  0.2499600E+03  0.7546771E-02  0.1113330E+00
         21   -1    0    0  502  501  0.00000000000E+00  0.00000000000E+00  0.24209483613E+03  0.24209483613E+03  0.00000000000E+00 0. -1.
         21   -1    0    0  501  502 -0.00000000000E+00 -0.00000000000E+00 -0.25808064503E+03  0.25808064503E+03  0.00000000000E+00 0. -1.
         25    1    1    2    0    0  0.19703475796E+03 -0.43051022397E+02  0.70653284881E+02  0.24757417684E+03  0.12500000000E+03 0.  0.
         25    1    1    2    0    0 -0.19703475796E+03  0.43051022397E+02 -0.86639093788E+02  0.25260130432E+03  0.12500000000E+03 0.  0.
</event>
<event>
 4    0  0.2193754E-002  0.1890741E+03  0.7546771E-02  0.1159299E+00
         21   -1    0    0  502  501  0.00000000000E+00  0.00000000000E+00  0.72297690015E+02  0.72297690015E+02  0.00000000000E+00 0.  1.
         21   -1    0    0  501  502 -0.00000000000E+00 -0.00000000000E+00 -0.49446980899E+03  0.49446980899E+03  0.00000000000E+00 0.  1.
         25    1    1    2    0    0 -0.48074949602E+02  0.30605385826E+02 -0.16380061081E+02  0.13835171420E+03  0.12500000000E+03 0.  0.
         25    1    1    2    0    0  0.48074949602E+02 -0.30605385826E+02 -0.40579205790E+03  0.42841578481E+03  0.12500000000E+03 0.  0.
</event>
<event>
 4    0  0.2193754E-002  0.1746193E+03  0.7546771E-02  0.1173115E+00
         21   -1    0    0  502  501  0.00000000000E+00  0.00000000000E+00  0.43938029409E+02  0.43938029409E+02  0.00000000000E+00 0.  1.
         21   -1    0    0  501  502 -0.00000000000E+00 -0.00000000000E+00 -0.69397490320E+03  0.69397490320E+03  0.00000000000E+00 0.  1.
         25    1    1    2    0    0 -0.11965605934E+01  0.11121639572E+03 -0.43058771311E+03  0.46195378245E+03  0.12500000000E+03 0.  0.
         25    1    1    2    0    0  0.11965605934E+01 -0.11121639572E+03 -0.21944916068E+03  0.27595915016E+03  0.12500000000E+03 0.  0.
</event>
<event>
 4    0  0.2193754E-002  0.1459804E+03  0.7546771E-02  0.1205501E+00
         21   -1    0    0  502  501  0.00000000000E+00  0.00000000000E+00  0.16764492363E+02  0.16764492363E+02  0.00000000000E+00 0. -1.
         21   -1    0    0  501  502 -0.00000000000E+00 -0.00000000000E+00 -0.12711562048E+04  0.12711562048E+04  0.00000000000E+00 0. -1.
         25    1    1    2    0    0 -0.71482409596E+01 -0.72665283916E+02 -0.54420428618E+03  0.56312933322E+03  0.12500000000E+03 0.  0.
         25    1    1    2    0    0  0.71482409596E+01  0.72665283916E+02 -0.71018742625E+03  0.72479136394E+03  0.12500000000E+03 0.  0.
</event>
<event>
 4    0  0.2193754E-002  0.1710613E+03  0.7546771E-02  0.1176746E+00
         21   -1    0    0  502  501  0.00000000000E+00  0.00000000000E+00  0.49147157543E+03  0.49147157543E+03  0.00000000000E+00 0. -1.
         21   -1    0    0  501  502 -0.00000000000E+00 -0.00000000000E+00 -0.59539500881E+02  0.59539500881E+02  0.00000000000E+00 0. -1.
         25    1    1    2    0    0 -0.42345382754E+02 -0.37566461187E+02  0.51462647071E+02  0.14655297503E+03  0.12500000000E+03 0.  0.
         25    1    1    2    0    0  0.42345382754E+02  0.37566461187E+02  0.38046942748E+03  0.40445810128E+03  0.12500000000E+03 0.  0.
</event>
<event>
 4    0  0.2193754E-002  0.3979633E+03  0.7546771E-02  0.1044487E+00
         21   -1    0    0  502  501  0.00000000000E+00  0.00000000000E+00  0.33875609637E+03  0.33875609637E+03  0.00000000000E+00 0. -1.
         21   -1    0    0  501  502 -0.00000000000E+00 -0.00000000000E+00 -0.46751863205E+03  0.46751863205E+03  0.00000000000E+00 0.  1.
         25    1    1    2    0    0 -0.96281374323E+02  0.27834141776E+03  0.17535089084E+03  0.36485200123E+03  0.12500000000E+03 0.  0.
         25    1    1    2    0    0  0.96281374323E+02 -0.27834141776E+03 -0.30411342653E+03  0.44142272719E+03  0.12500000000E+03 0.  0.
</event>
<event>
 4    0  0.2193754E-002  0.1865236E+03  0.7546771E-02  0.1161635E+00
         21   -1    0    0  502  501  0.00000000000E+00  0.00000000000E+00  0.24458050435E+02  0.24458050435E+02  0.00000000000E+00 0.  1.
         21   -1    0    0  501  502 -0.00000000000E+00 -0.00000000000E+00 -0.14224779045E+04  0.14224779045E+04  0.00000000000E+00 0.  1.
         25    1    1    2    0    0  0.20447790544E+02  0.12719078020E+03 -0.89565745400E+03  0.91346750440E+03  0.12500000000E+03 0.  0.
         25    1    1    2    0    0 -0.20447790544E+02 -0.12719078020E+03 -0.50236240003E+03  0.53346845049E+03  0.12500000000E+03 0.  0.
</event>
<event>
 4    0  0.2193754E-002  0.2338281E+03  0.7546771E-02  0.1123974E+00
         21   -1    0    0  502  501  0.00000000000E+00  0.00000000000E+00  0.49925685258E+02  0.49925685258E+02  0.00000000000E+00 0.  1.
         21   -1    0    0  501  502 -0.00000000000E+00 -0.00000000000E+00 -0.10951389592E+04  0.10951389592E+04  0.00000000000E+00 0.  1.
         25    1    1    2    0    0 -0.11007078939E+03 -0.14516024661E+03 -0.33511523106E+03  0.40139045075E+03  0.12500000000E+03 0.  0.
         25    1    1    2    0    0  0.11007078939E+03  0.14516024661E+03 -0.71009804290E+03  0.74367419372E+03  0.12500000000E+03 0.  0.
</event>
<event>
 4    0  0.2193754E-002  0.3819884E+03  0.7546771E-02  0.1050201E+00
         21   -1    0    0  502  501  0.00000000000E+00  0.00000000000E+00  0.38094465193E+03  0.38094465193E+03  0.00000000000E+00 0.  1.
         21   -1    0    0  501  502 -0.00000000000E+00 -0.00000000000E+00 -0.38303500857E+03  0.38303500857E+03  0.00000000000E+00 0. -1.
         25    1    1    2    0    0  0.35054382591E+03  0.48801281324E+02  0.69860651603E+02  0.38179582185E+03  0.12500000000E+03 0.  0.
         25    1    1    2    0    0 -0.35054382591E+03 -0.48801281324E+02 -0.71951008249E+02  0.38218383865E+03  0.12500000000E+03 0.  0.
</event>
<event>
 4    0  0.2193754E-002  0.2735196E+03  0.7546771E-02  0.1099282E+00
         21   -1    0    0  502  501  0.00000000000E+00  0.00000000000E+00  0.92350804795E+02  0.92350804795E+02  0.00000000000E+00 0. -1.
         21   -1    0    0  501  502 -0.00000000000E+00 -0.00000000000E+00 -0.81009522913E+03  0.81009522913E+03  0.00000000000E+00 0. -1.
         25    1    1    2    0    0 -0.20223333931E+03  0.12395257925E+03 -0.26964566669E+03  0.38025826881E+03  0.12500000000E+03 0.  0.
         25    1    1    2    0    0  0.20223333931E+03 -0.12395257925E+03 -0.44809875765E+03  0.52218776512E+03  0.12500000000E+03 0.  0.
</event>
<event>
 4    0  0.2193754E-002  0.2096269E+03  0.7546771E-02  0.1141862E+00
         21   -1    0    0  502  501  0.00000000000E+00  0.00000000000E+00  0.20895612945E+04  0.20895612945E+04  0.00000000000E+00 0.  1.
         21   -1    0    0  501  502 -0.00000000000E+00 -0.00000000000E+00 -0.21029977604E+02  0.21029977604E+02  0.00000000000E+00 0.  1.
         25    1    1    2    0    0 -0.35118486584E+02  0.15689080770E+03  0.78405243668E+03  0.81006867432E+03  0.12500000000E+03 0.  0.
         25    1    1    2    0    0  0.35118486584E+02 -0.15689080770E+03  0.12844788802E+04  0.13005225977E+04  0.12500000000E+03 0.  0.
</event>
<event>
 4    0  0.2193754E-002  0.2004807E+03  0.7546771E-02  0.1149334E+00
         21   -1    0    0  502  501  0.00000000000E+00  0.00000000000E+00  0.59354286180E+02  0.59354286180E+02  0.00000000000E+00 0.  1.
         21   -1    0    0  501  502 -0.00000000000E+00 -0.00000000000E+00 -0.67716284947E+03  0.67716284947E+03  0.00000000000E+00 0.  1.
         25    1    1    2    0    0  0.95141765408E+02 -0.84377048658E+02 -0.47721757869E+03  0.50944387255E+03  0.12500000000E+03 0.  0.
         25    1    1    2    0    0 -0.95141765408E+02  0.84377048658E+02 -0.14059098460E+03  0.22707326310E+03  0.12500000000E+03 0.  0.
</event>
<event>
 4    0  0.2193754E-002  0.2589578E+03  0.7546771E-02  0.1107771E+00
         21   -1    0    0  502  501  0.00000000000E+00  0.00000000000E+00  0.37799131451E+03  0.37799131451E+03  0.00000000000E+00 0.  1.
         21   -1    0    0  501  502 -0.00000000000E+00 -0.00000000000E+00 -0.17740919664E+03  0.17740919664E+03  0.00000000000E+00 0.  1.
         25    1    1    2    0    0 -0.71308253974E+02 -0.21272183691E+03  0.13583655558E+03  0.29053746198E+03  0.12500000000E+03 0.  0.
         25    1    1    2    0    0  0.71308253974E+02  0.21272183691E+03  0.64745562293E+02  0.26486304918E+03  0.12500000000E+03 0.  0.
</event>
<event>
 4    0  0.2193754E-002  0.2600687E+03  0.7546771E-02  0.1107102E+00
         21   -1    0    0  502  501  0.00000000000E+00  0.00000000000E+00  0.16222547639E+03  0.16222547639E+03  0.00000000000E+00 0.  1.
         21   -1    0    0  501  502 -0.00000000000E+00 -0.00000000000E+00 -0.41692405295E+03  0.41692405295E+03  0.00000000000E+00 0.  1.
         25    1    1    2    0    0  0.13851730456E+02 -0.15654515662E+03 -0.31136419684E+03  0.37050090360E+03  0.12500000000E+03 0.  0.
         25    1    1    2    0    0 -0.13851730456E+02  0.15654515662E+03  0.56665620279E+02  0.20864862573E+03  0.12500000000E+03 0.  0.
</event>
<event>
 4    0  0.2193754E-002  0.2823413E+03  0.7546771E-02  0.1094417E+00
         21   -1    0    0  502  501  0.00000000000E+00  0.00000000000E+00  0.25360232888E+03  0.25360232888E+03  0.00000000000E+00 0.  1.
         21   -1    0    0  501  502 -0.00000000000E+00 -0.00000000000E+00 -0.31433697742E+03  0.31433697742E+03  0.00000000000E+00 0.  1.
         25    1    1    2    0    0 -0.16914455755E+03 -0.72350910624E+02  0.14455253371E+03  0.26526396404E+03  0.12500000000E+03 0.  0.
         25    1    1    2    0    0  0.16914455755E+03  0.72350910624E+02 -0.20528718225E+03  0.30267534226E+03  0.12500000000E+03 0.  0.
</event>
<event>
 4    0  0.2193754E-002  0.1895822E+03  0.7546771E-02  0.1158839E+00
         21   -1    0    0  502  501  0.00000000000E+00  0.00000000000E+00  0.16126868285E+04  0.16126868285E+04  0.00000000000E+00 0.  1.
         21   -1    0    0  501  502 -0.00000000000E+00 -0.00000000000E+00 -0.22286658227E+02  0.22286658227E+02  0.00000000000E+00 0.  1.
         25    1    1    2    0    0  0.10490583215E+03  0.77704358883E+02  0.54849992088E+03  0.57751221996E+03  0.12500000000E+03 0.  0.
         25    1    1    2    0    0 -0.10490583215E+03 -0.77704358883E+02  0.10419002494E+04  0.10574612667E+04  0.12500000000E+03 0.  0.
</event>
<event>
 4    0  0.2193754E-002  0.1980533E+03  0.7546771E-02  0.1151392E+00
         21   -1    0    0  502  501  0.00000000000E+00  0.00000000000E+00  0.25029184829E+03  0.25029184829E+03  0.00000000000E+00 0. -1.
         21   -1    0    0  501  502 -0.00000000000E+00 -0.00000000000E+00 -0.15671754697E+03  0.15671754697E+03  0.00000000000E+00 0. -1.
         25    1    1    2    0    0 -0.22625883537E+02  0.10224726354E+03 -0.68706310966E+02  0.17695194453E+03  0.12500000000E+03 0.  0.
         25    1    1    2    0    0  0.22625883537E+02 -0.10224726354E+03  0.16228061228E+03  0.23005745072E+03  0.12500000000E+03 0.  0.
</event>
<event>
 4    0  0.2193754E-002  0.1743939E+03  0.7546771E-02  0.1173342E+00
         21   -1    0    0  502  501  0.00000000000E+00  0.00000000000E+00  0.23065908993E+02  0.23065908993E+02  0.00000000000E+00 0.  1.
         21   -1    0    0  501  502 -0.00000000000E+00 -0.00000000000E+00 -0.13185367313E+04  0.13185367313E+04  0.00000000000E+00 0.  1.
         25    1    1    2    0    0  0.11080590897E+03  0.49162972152E+02 -0.61058141341E+03  0.63492488508E+03  0.12500000000E+03 0.  0.
         25    1    1    2    0    0 -0.11080590897E+03 -0.49162972152E+02 -0.68488940892E+03  0.70667775523E+03  0.12500000000E+03 0.  0.
</event>
<event>
 4    0  0.2193754E-002  0.2246594E+03  0.7546771E-02  0.1130456E+00
         21   -1    0    0  502  501  0.00000000000E+00  0.00000000000E+00  0.32638320426E+03  0.32638320426E+03  0.00000000000E+00 0. -1.
         21   -1    0    0  501  502 -0.00000000000E+00 -0.00000000000E+00 -0.15463978479E+03  0.15463978479E+03  0.00000000000E+00 0. -1.
         25    1    1    2    0    0  0.12000211018E+02  0.81459496267E+02  0.26522554183E+03  0.30454760323E+03  0.12500000000E+03 0.  0.
         25    1    1    2    0    0 -0.12000211018E+02 -0.81459496267E+02 -0.93482122369E+02  0.17647538582E+03  0.12500000000E+03 0.  0.
</event>
<event>
 4    0  0.2193754E-002  0.2195632E+03  0.7546771E-02  0.1134209E+00
         21   -1    0    0  502  501  0.00000000000E+00  0.00000000000E+00  0.24828225838E+03  0.24828225838E+03  0.00000000000E+00 0.  1.
         21   -1    0    0  501  502 -0.00000000000E+00 -0.00000000000E+00 -0.19416610322E+03  0.19416610322E+03  0.00000000000E+00 0.  1.
         25    1    1    2    0    0  0.58347548706E+02 -0.13360862417E+03 -0.80176835044E+02  0.20810820688E+03  0.12500000000E+03 0.  0.
         25    1    1    2    0    0 -0.58347548706E+02  0.13360862417E+03  0.13429299020E+03  0.23434015471E+03  0.12500000000E+03 0.  0.
</event>
<event>
 4    0  0.2193754E-002  0.1747896E+03  0.7546771E-02  0.1172943E+00
         21   -1    0    0  502  501  0.00000000000E+00  0.00000000000E+00  0.50083542881E+03  0.50083542881E+03  0.00000000000E+00 0. -1.
         21   -1    0    0  501  502 -0.00000000000E+00 -0.00000000000E+00 -0.61000878537E+02  0.61000878537E+02  0.00000000000E+00 0. -1.
         25    1    1    2    0    0  0.10092983322E+03 -0.68047912061E+02  0.23670068658E+03  0.29405707711E+03  0.12500000000E+03 0.  0.
         25    1    1    2    0    0 -0.10092983322E+03  0.68047912061E+02  0.20313386369E+03  0.26777923024E+03  0.12500000000E+03 0.  0.
</event>
<event>
 4    0  0.2193754E-002  0.2608078E+03  0.7546771E-02  0.1106659E+00
         21   -1    0    0  502  501  0.00000000000E+00  0.00000000000E+00  0.10114629610E+04  0.10114629610E+04  0.00000000000E+00 0. -1.
         21   -1    0    0  501  502 -0.00000000000E+00 -0.00000000000E+00 -0.67249836982E+02  0.67249836982E+02  0.00000000000E+00 0. -1.
         25    1    1    2    0    0 -0.18568687833E+03  0.13108615969E+03  0.41613527112E+03  0.49036390764E+03  0.12500000000E+03 0.  0.
         25    1    1    2    0    0  0.18568687833E+03 -0.13108615969E+03  0.52807785292E+03  0.58834889037E+03  0.12500000000E+03 0.  0.
</event>
<event>
 4    0  0.2193754E-002  0.2272492E+03  0.7546771E-02  0.1128591E+00
         21   -1    0    0  502  501  0.00000000000E+00  0.00000000000E+00  0.44656492734E+03  0.44656492734E+03  0.00000000000E+00 0. -1.
         21   -1    0    0  501  502 -0.00000000000E+00 -0.00000000000E+00 -0.11564317524E+03  0.11564317524E+03  0.00000000000E+00 0. -1.
         25    1    1    2    0    0 -0.83978669001E+01 -0.17187710905E+03  0.26445779912E+03  0.33937470780E+03  0.12500000000E+03 0.  0.
         25    1    1    2    0    0  0.83978669001E+01  0.17187710905E+03  0.66463952977E+02  0.22283339478E+03  0.12500000000E+03 0.  0.
</event>
<event>
 4    0  0.2193754E-002  0.1753070E+03  0.7546771E-02  0.1172424E+00
         21   -1    0    0  502  501  0.00000000000E+00  0.00000000000E+00  0.14747996542E+03  0.14747996542E+03  0.00000000000E+00 0. -1.
         21   -1    0    0  501  502 -0.00000000000E+00 -0.00000000000E+00 -0.20838449746E+03  0.20838449746E+03  0.00000000000E+00 0. -1.
         25    1    1    2    0    0  0.10220771617E+03  0.68238128783E+02 -0.32647762011E+02  0.17830798027E+03  0.12500000000E+03 0.  0.
         25    1    1    2    0    0 -0.10220771617E+03 -0.68238128783E+02 -0.28256770022E+02  0.17755648261E+03  0.12500000000E+03 0.  0.
</event>
<event>
 4    0  0.2193754E-002  0.3358130E+03  0.7546771E-02  0.1068593E+00
         21   -1    0    0  502  501  0.00000000000E+00  0.00000000000E+00  0.73173655264E+03  0.73173655264E+03  0.00000000000E+00 0.  1.
         21   -1    0    0  501  502 -0.00000000000E+00 -0.00000000000E+00 -0.15411331874E+03  0.15411331874E+03  0.00000000000E+00 0.  1.
         25    1    1    2    0    0  0.12165013414E+03 -0.24373427699E+03  0.89041176020E+02  0.31266353152E+03  0.12500000000E+03 0.  0.
         25    1    1    2    0    0 -0.12165013414E+03  0.24373427699E+03  0.48858205788E+03  0.57318633986E+03  0.12500000000E+03 0.  0.
</event>
<event>
 4    0  0.2193754E-002  0.1554385E+03  0.7546771E-02  0.1193945E+00
         21   -1    0    0  502  501  0.00000000000E+00  0.00000000000E+00  0.12038436343E+02  0.12038436343E+02  0.00000000000E+00 0. -1.
         21   -1    0    0  501  502 -0.00000000000E+00 -0.00000000000E+00 -0.20069985591E+04  0.20069985591E+04  0.00000000000E+00 0. -1.
         25    1    1    2    0    0  0.46779495209E+02 -0.72663981600E+02 -0.12097020095E+04  0.12192097142E+04  0.12500000000E+03 0.  0.
         25    1    1    2    0    0 -0.46779495209E+02  0.72663981600E+02 -0.78525811322E+03  0.79982728121E+03  0.12500000000E+03 0.  0.
</event>
<event>
 4    0  0.2193754E-002  0.2768080E+03  0.7546771E-02  0.1097445E+00
         21   -1    0    0  502  501  0.00000000000E+00  0.00000000000E+00  0.15423677666E+03  0.15423677666E+03  0.00000000000E+00 0.  1.
         21   -1    0    0  501  502 -0.00000000000E+00 -0.00000000000E+00 -0.49678584861E+03  0.49678584861E+03  0.00000000000E+00 0.  1.
         25    1    1    2    0    0 -0.24211141230E+03 -0.48349076456E+02 -0.16364638511E+03  0.32149760267E+03  0.12500000000E+03 0.  0.
         25    1    1    2    0    0  0.24211141230E+03  0.48349076456E+02 -0.17890268684E+03  0.32952502260E+03  0.12500000000E+03 0.  0.
</event>
<event>
 4    0  0.2193754E-002  0.2107612E+03  0.7546771E-02  0.1140965E+00
         21   -1    0    0  502  501  0.00000000000E+00  0.00000000000E+00  0.19918143450E+03  0.19918143450E+03  0.00000000000E+00 0.  1.
         21   -1    0    0  501  502 -0.00000000000E+00 -0.00000000000E+00 -0.22301419029E+03  0.22301419029E+03  0.00000000000E+00 0.  1.
         25    1    1    2    0    0 -0.14714055839E+03 -0.46041455779E+02  0.59084965614E+02  0.20708981804E+03  0.12500000000E+03 0.  0.
         25    1    1    2    0    0  0.14714055839E+03  0.46041455779E+02 -0.82917721404E+02  0.21510580675E+03  0.12500000000E+03 0.  0.
</event>
<event>
 4    0  0.2193754E-002  0.1758377E+03  0.7546771E-02  0.1171893E+00
         21   -1    0    0  502  501  0.00000000000E+00  0.00000000000E+00  0.68269816772E+03  0.68269816772E+03  0.00000000000E+00 0.  1.
         21   -1    0    0  501  502 -0.00000000000E+00 -0.00000000000E+00 -0.45289263790E+02  0.45289263790E+02  0.00000000000E+00 0.  1.
         25    1    1    2    0    0 -0.12031034685E+02  0.66933151342E+02  0.10488565659E+03  0.17677893964E+03  0.12500000000E+03 0.  0.
         25    1    1    2    0    0  0.12031034685E+02 -0.66933151342E+02  0.53252324734E+03  0.55120849187E+03  0.12500000000E+03 0.  0.
</event>
<event>
 4    0  0.2193754E-002  0.3441753E+03  0.7546771E-02  0.1065031E+00
         21   -1    0    0  502  501  0.00000000000E+00  0.00000000000E+00  0.20803007178E+04  0.20803007178E+04  0.00000000000E+00 0. -1.
         21   -1    0    0  501  502 -0.00000000000E+00 -0.00000000000E+00 -0.56942080504E+02  0.56942080504E+02  0.00000000000E+00 0. -1.
         25    1    1    2    0    0  0.74893237423E+01 -0.22014485790E+03  0.17352671422E+04  0.17536524465E+04  0.12500000000E+03 0.  0.
         25    1    1    2    0    0 -0.74893237423E+01  0.22014485790E+03  0.28809149511E+03  0.38359035178E+03  0.12500000000E+03 0.  0.
</event>
<event>
 4    0  0.2193754E-002  0.2480319E+03  0.7546771E-02  0.1114555E+00
         21   -1    0    0  502  501  0.00000000000E+00  0.00000000000E+00  0.28011688798E+02  0.28011688798E+02  0.00000000000E+00 0.  1.
         21   -1    0    0  501  502 -0.00000000000E+00 -0.00000000000E+00 -0.21962196013E+04  0.21962196013E+04  0.00000000000E+00 0.  1.
         25    1    1    2    0    0  0.10488465951E+03 -0.30122362519E+02 -0.19107065032E+04  0.19178979352E+04  0.12500000000E+03 0.  0.
         25    1    1    2    0    0 -0.10488465951E+03  0.30122362519E+02 -0.25750140932E+03  0.30633335491E+03  0.12500000000E+03 0.  0.
</event>
<event>
 4    0  0.2193754E-002  0.1663744E+03  0.7546771E-02  0.1181682E+00
         21   -1    0    0  502  501  0.00000000000E+00  0.00000000000E+00  0.13710067124E+04  0.13710067124E+04  0.00000000000E+00 0.  1.
         21   -1    0    0  501  502 -0.00000000000E+00 -0.00000000000E+00 -0.20189856533E+02  0.20189856533E+02  0.00000000000E+00 0.  1.
         25    1    1    2    0    0 -0.32743571571E+02 -0.10416982921E+03  0.62738529203E+03  0.64896902812E+03  0.12500000000E+03 0.  0.
         25    1    1    2    0    0  0.32743571571E+02  0.10416982921E+03  0.72343156385E+03  0.74222754083E+03  0.12500000000E+03 0.  0.
</event>
<event>
 4    0  0.2193754E-002  0.3873410E+03  0.7546771E-02  0.1048253E+00
         21   -1    0    0  502  501  0.00000000000E+00  0.00000000000E+00  0.44474308902E+03  0.44474308902E+03  0.00000000000E+00 0.  1.
         21   -1    0    0  501  502 -0.00000000000E+00 -0.00000000000E+00 -0.33734768665E+03  0.33734768665E+03  0.00000000000E+00 0.  1.
         25    1    1    2    0    0 -0.31525404003E+03 -0.16270599659E+03  0.14704659224E+03  0.40386390204E+03  0.12500000000E+03 0.  0.
         25    1    1    2    0    0  0.31525404003E+03  0.16270599659E+03 -0.39651189870E+02  0.37822687364E+03  0.12500000000E+03 0.  0.
</event>
<event>
 4    0  0.2193754E-002  0.2206357E+03  0.7546771E-02  0.1133410E+00
         21   -1    0    0  502  501  0.00000000000E+00  0.00000000000E+00  0.12515095458E+03  0.12515095458E+03  0.00000000000E+00 0. -1.
         21   -1    0    0  501  502 -0.00000000000E+00 -0.00000000000E+00 -0.38897101045E+03  0.38897101045E+03  0.00000000000E+00 0. -1.
         25    1    1    2    0    0  0.29814886609E+02  0.97822092602E+02  0.43230193137E+02  0.16718833351E+03  0.12500000000E+03 0.  0.
         25    1    1    2    0    0 -0.29814886609E+02 -0.97822092602E+02 -0.30705024900E+03  0.34693363152E+03  0.12500000000E+03 0.  0.
</event>
<event>
 4    0  0.2193754E-002  0.1520181E+03  0.7546771E-02  0.1198015E+00
         21   -1    0    0  502  501  0.00000000000E+00  0.00000000000E+00  0.13330966795E+02  0.13330966795E+02  0.00000000000E+00 0. -1.
         21   -1    0    0  501  502 -0.00000000000E+00 -0.00000000000E+00 -0.17335199446E+04  0.17335199446E+04  0.00000000000E+00 0. -1.
         25    1    1    2    0    0  0.79995683801E+02  0.62682698804E+01 -0.10459069732E+04  0.10564019109E+04  0.12500000000E+03 0.  0.
         25    1    1    2    0    0 -0.79995683801E+02 -0.62682698804E+01 -0.67428200457E+03  0.69044900052E+03  0.12500000000E+03 0.  0.
</event>
<event>
 4    0  0.2193754E-002  0.2029902E+03  0.7546771E-02  0.1147240E+00
         21   -1    0    0  502  501  0.00000000000E+00  0.00000000000E+00  0.12933780992E+03  0.12933780992E+03  0.00000000000E+00 0.  1.
         21   -1    0    0  501  502 -0.00000000000E+00 -0.00000000000E+00 -0.31858438822E+03  0.31858438822E+03  0.00000000000E+00 0.  1.
         25    1    1    2    0    0 -0.11959530077E+03 -0.39104927527E+02  0.14307426776E+02  0.17793800545E+03  0.12500000000E+03 0.  0.
         25    1    1    2    0    0  0.11959530077E+03  0.39104927527E+02 -0.20355400507E+03  0.26998419269E+03  0.12500000000E+03 0.  0.
</event>
<event>
 4    0  0.2193754E-002  0.2491606E+03  0.7546771E-02  0.1113836E+00
         21   -1    0    0  502  501  0.00000000000E+00  0.00000000000E+00  0.59126057153E+03  0.59126057153E+03  0.00000000000E+00 0. -1.
         21   -1    0    0  501  502 -0.00000000000E+00 -0.00000000000E+00 -0.10499769853E+03  0.10499769853E+03  0.00000000000E+00 0. -1.
         25    1    1    2    0    0  0.10957500864E+02 -0.19556249934E+03  0.11745073460E+03  0.26035443731E+03  0.12500000000E+03 0.  0.
         25    1    1    2    0    0 -0.10957500864E+02  0.19556249934E+03  0.36881213839E+03  0.43590383274E+03  0.12500000000E+03 0.  0.
</event>
<event>
 4    0  0.2193754E-002  0.3276556E+03  0.7546771E-02  0.1072179E+00
         21   -1    0    0  502  501  0.00000000000E+00  0.00000000000E+00  0.35174936034E+03  0.35174936034E+03  0.00000000000E+00 0.  1.
         21   -1    0    0  501  502 -0.00000000000E+00 -0.00000000000E+00 -0.30521219859E+03  0.30521219859E+03  0.00000000000E+00 0.  1.
         25    1    1    2    0    0 -0.19641237435E+03  0.93555325108E+02 -0.18798176165E+03  0.31351644673E+03  0.12500000000E+03 0.  0.
         25    1    1    2    0    0  0.19641237435E+03 -0.93555325108E+02  0.23451892341E+03  0.34344511220E+03  0.12500000000E+03 0.  0.
</event>
<event>
 4    0  0.2193754E-002  0.1654054E+03  0.7546771E-02  0.1182726E+00
         21   -1    0    0  502  501  0.00000000000E+00  0.00000000000E+00  0.13012440561E+04  0.13012440561E+04  0.00000000000E+00 0.  1.
         21   -1    0    0  501  502 -0.00000000000E+00 -0.00000000000E+00 -0.21025228011E+02  0.21025228011E+02  0.00000000000E+00 0.  1.
         25    1    1    2    0    0 -0.18921649671E+02  0.65867336455E+02  0.30479914400E+03  0.33648782002E+03  0.12500000000E+03 0.  0.
         25    1    1    2    0    0  0.18921649671E+02 -0.65867336455E+02  0.97541968406E+03  0.98578146407E+03  0.12500000000E+03 0.  0.
</event>
<event>
 4    0  0.2193754E-002  0.2323874E+03  0.7546771E-02  0.1124971E+00
         21   -1    0    0  502  501  0.00000000000E+00  0.00000000000E+00  0.54776185261E+03  0.54776185261E+03  0.00000000000E+00 0.  1.
         21   -1    0    0  501  502 -0.00000000000E+00 -0.00000000000E+00 -0.98590095806E+02  0.98590095806E+02  0.00000000000E+00 0.  1.
         25    1    1    2    0    0  0.27894825380E+02 -0.43505827772E+02  0.48737621182E+03  0.50579783529E+03  0.12500000000E+03 0.  0.
         25    1    1    2    0    0 -0.27894825380E+02  0.43505827772E+02 -0.38204455020E+02  0.14055411313E+03  0.12500000000E+03 0.  0.
</event>
<event>
 4    0  0.2193754E-002  0.2000585E+03  0.7546771E-02  0.1149690E+00
         21   -1    0    0  502  501  0.00000000000E+00  0.00000000000E+00  0.53942645228E+02  0.53942645228E+02  0.00000000000E+00 0.  1.
         21   -1    0    0  501  502 -0.00000000000E+00 -0.00000000000E+00 -0.74196187980E+03  0.74196187980E+03  0.00000000000E+00 0.  1.
         25    1    1    2    0    0 -0.68051748711E+02  0.13773877200E+03 -0.28790992516E+03  0.34945691411E+03  0.12500000000E+03 0.  0.
         25    1    1    2    0    0  0.68051748711E+02 -0.13773877200E+03 -0.40010930942E+03  0.44644761092E+03  0.12500000000E+03 0.  0.
</event>
<event>
 4    0  0.2193754E-002  0.1935145E+03  0.7546771E-02  0.1155329E+00
         21   -1    0    0  502  501  0.00000000000E+00  0.00000000000E+00  0.78644890306E+02  0.78644890306E+02  0.00000000000E+00 0.  1.
         21   -1    0    0  501  502 -0.00000000000E+00 -0.00000000000E+00 -0.47616409803E+03  0.47616409803E+03  0.00000000000E+00 0.  1.
         25    1    1    2    0    0  0.14515323959E+03 -0.25911712227E+02 -0.21174004719E+03  0.28670494830E+03  0.12500000000E+03 0.  0.
         25    1    1    2    0    0 -0.14515323959E+03  0.25911712227E+02 -0.18577916053E+03  0.26810404003E+03  0.12500000000E+03 0.  0.
</event>
<event>
 4    0  0.2193754E-002  0.2025075E+03  0.7546771E-02  0.1147641E+00
         21   -1    0    0  502  501  0.00000000000E+00  0.00000000000E+00  0.49547836933E+02  0.49547836933E+02  0.00000000000E+00 0. -1.
         21   -1    0    0  501  502 -0.00000000000E+00 -0.00000000000E+00 -0.82767037814E+03  0.82767037814E+03  0.00000000000E+00 0. -1.
         25    1    1    2    0    0  0.85212025717E+02 -0.13175962364E+03 -0.32925015407E+03  0.38555460275E+03  0.12500000000E+03 0.  0.
         25    1    1    2    0    0 -0.85212025717E+02  0.13175962364E+03 -0.44887238714E+03  0.49166361232E+03  0.12500000000E+03 0.  0.
</event>
<event>
 4    0  0.2193754E-002  0.3583029E+03  0.7546771E-02  0.1059258E+00
         21   -1    0    0  502  501  0.00000000000E+00  0.00000000000E+00  0.16753073630E+03  0.16753073630E+03  0.00000000000E+00 0.  1.
         21   -1    0    0  501  502 -0.00000000000E+00 -0.00000000000E+00 -0.76631279704E+03  0.76631279704E+03  0.00000000000E+00 0. -1.
         25    1    1    2    0    0 -0.11847212506E+03  0.27423013603E+03 -0.99545116114E+02  0.33878022680E+03  0.12500000000E+03 0.  0.
         25    1    1    2    0    0  0.11847212506E+03 -0.27423013603E+03 -0.49923694462E+03  0.59506330655E+03  0.12500000000E+03 0.  0.
</event>
<event>
 4    0  0.2193754E-002  0.3215335E+03  0.7546771E-02  0.1074946E+00
         21   -1    0    0  502  501  0.00000000000E+00  0.00000000000E+00  0.22067101377E+03  0.22067101377E+03  0.00000000000E+00 0. -1.
         21   -1    0    0  501  502 -0.00000000000E+00 -0.00000000000E+00 -0.46849725280E+03  0.46849725280E+03  0.00000000000E+00 0. -1.
         25    1    1    2    0    0 -0.29160750987E+03 -0.31996039008E+02 -0.79725210239E+02  0.32869407581E+03  0.12500000000E+03 0.  0.
         25    1    1    2    0    0  0.29160750987E+03  0.31996039008E+02 -0.16810102879E+03  0.36047419076E+03  0.12500000000E+03 0.  0.
</event>
<event>
 4    0  0.2193754E-002  0.1709394E+03  0.7546771E-02  0.1176872E+00
         21   -1    0    0  502  501  0.00000000000E+00  0.00000000000E+00  0.49964643867E+02  0.49964643867E+02  0.00000000000E+00 0. -1.
         21   -1    0    0  501  502 -0.00000000000E+00 -0.00000000000E+00 -0.58481944881E+03  0.58481944881E+03  0.00000000000E+00 0. -1.
         25    1    1    2    0    0 -0.10264588956E+03 -0.31172285630E+02 -0.18259590286E+03  0.24591493199E+03  0.12500000000E+03 0.  0.
         25    1    1    2    0    0  0.10264588956E+03  0.31172285630E+02 -0.35225890209E+03  0.38886916069E+03  0.12500000000E+03 0.  0.
</event>
<event>
 4    0  0.2193754E-002  0.2604381E+03  0.7546771E-02  0.1106880E+00
         21   -1    0    0  502  501  0.00000000000E+00  0.00000000000E+00  0.87883364502E+02  0.87883364502E+02  0.00000000000E+00 0.  1.
         21   -1    0    0  501  502 -0.00000000000E+00 -0.00000000000E+00 -0.77179557308E+03  0.77179557308E+03  0.00000000000E+00 0.  1.
         25    1    1    2    0    0 -0.15844107316E+03 -0.16277099174E+03 -0.30135970776E+03  0.39754325913E+03  0.12500000000E+03 0.  0.
         25    1    1    2    0    0  0.15844107316E+03  0.16277099174E+03 -0.38255250082E+03  0.46213567846E+03  0.12500000000E+03 0.  0.
</event>
<event>
 4    0  0.2193754E-002  0.2017347E+03  0.7546771E-02  0.1148284E+00
         21   -1    0    0  502  501  0.00000000000E+00  0.00000000000E+00  0.12332316325E+03  0.12332316325E+03  0.00000000000E+00 0.  1.
         21   -1    0    0  501  502 -0.00000000000E+00 -0.00000000000E+00 -0.33000212759E+03  0.33000212759E+03  0.00000000000E+00 0.  1.
         25    1    1    2    0    0  0.12195153813E+03  0.10059183535E+03 -0.11345229464E+03  0.23127325429E+03  0.12500000000E+03 0.  0.
         25    1    1    2    0    0 -0.12195153813E+03 -0.10059183535E+03 -0.93226669702E+02  0.22205203655E+03  0.12500000000E+03 0.  0.
</event>
<event>
 4    0  0.2193754E-002  0.2050278E+03  0.7546771E-02  0.1145565E+00
         21   -1    0    0  502  501  0.00000000000E+00  0.00000000000E+00  0.52984700402E+02  0.52984700402E+02  0.00000000000E+00 0. -1.
         21   -1    0    0  501  502 -0.00000000000E+00 -0.00000000000E+00 -0.79336826228E+03  0.79336826228E+03  0.00000000000E+00 0. -1.
         25    1    1    2    0    0  0.73147469203E+00 -0.19505056143E+02 -0.37187919552E+02  0.13186706803E+03  0.12500000000E+03 0.  0.
         25    1    1    2    0    0 -0.73147469203E+00  0.19505056143E+02 -0.70319564233E+03  0.71448589465E+03  0.12500000000E+03 0.  0.
</event>
<event>
 4    0  0.2193754E-002  0.2303364E+03  0.7546771E-02  0.1126403E+00
         21   -1    0    0  502  501  0.00000000000E+00  0.00000000000E+00  0.53287365338E+03  0.53287365338E+03  0.00000000000E+00 0.  1.
         21   -1    0    0  501  502 -0.00000000000E+00 -0.00000000000E+00 -0.99563658524E+02  0.99563658524E+02  0.00000000000E+00 0.  1.
         25    1    1    2    0    0  0.39082556191E+02  0.73343351959E+02  0.45650496617E+03  0.48055018220E+03  0.12500000000E+03 0.  0.
         25    1    1    2    0    0 -0.39082556191E+02 -0.73343351959E+02 -0.23194971315E+02  0.15188712970E+03  0.12500000000E+03 0.  0.
</event>
<event>
 4    0  0.2193754E-002  0.2350367E+03  0.7546771E-02  0.1123144E+00
         21   -1    0    0  502  501  0.00000000000E+00  0.00000000000E+00  0.19512162514E+04  0.19512162514E+04  0.00000000000E+00 0. -1.
         21   -1    0    0  501  502 -0.00000000000E+00 -0.00000000000E+00 -0.28311700729E+02  0.28311700729E+02  0.00000000000E+00 0. -1.
         25    1    1    2    0    0 -0.73145637593E+02  0.66917794223E+02  0.23463750935E+03  0.28373938090E+03  0.12500000000E+03 0.  0.
         25    1    1    2    0    0  0.73145637593E+02 -0.66917794223E+02  0.16882670414E+04  0.16957885713E+04  0.12500000000E+03 0.  0.
</event>
<event>
 4    0  0.2193754E-002  0.1756499E+03  0.7546771E-02  0.1172081E+00
         21   -1    0    0  502  501  0.00000000000E+00  0.00000000000E+00  0.44241801039E+03  0.44241801039E+03  0.00000000000E+00 0.  1.
         21   -1    0    0  501  502 -0.00000000000E+00 -0.00000000000E+00 -0.69736968294E+02  0.69736968294E+02  0.00000000000E+00 0.  1.
         25    1    1    2    0    0  0.42103473543E+02 -0.11258962661E+03  0.22702478639E+03  0.28568230631E+03  0.12500000000E+03 0.  0.
         25    1    1    2    0    0 -0.42103473543E+02  0.11258962661E+03  0.14565625570E+03  0.22647267237E+03  0.12500000000E+03 0.  0.
</event>
<event>
 4    0  0.2193754E-002  0.3181780E+03  0.7546771E-02  0.1076491E+00
         21   -1    0    0  502  501  0.00000000000E+00  0.00000000000E+00  0.12156899638E+04  0.12156899638E+04  0.00000000000E+00 0. -1.
         21   -1    0    0  501  502 -0.00000000000E+00 -0.00000000000E+00 -0.83275560161E+02  0.83275560161E+02  0.00000000000E+00 0.  1.
         25    1    1    2    0    0  0.26324813838E+03 -0.12752870082E+03  0.58051214289E+03  0.66195354817E+03  0.12500000000E+03 0.  0.
         25    1    1    2    0    0 -0.26324813838E+03  0.12752870082E+03  0.55190226079E+03  0.63701197583E+03  0.12500000000E+03 0.  0.
</event>
<event>
 4    0  0.2193754E-002  0.1773469E+03  0.7546771E-02  0.1170396E+00
         21   -1    0    0  502  501  0.00000000000E+00  0.00000000000E+00  0.19040297921E+03  0.19040297921E+03  0.00000000000E+00 0.  1.
         21   -1    0    0  501  502 -0.00000000000E+00 -0.00000000000E+00 -0.16518602699E+03  0.16518602699E+03  0.00000000000E+00 0.  1.
         25    1    1    2    0    0  0.43128316234E+02 -0.87586240820E+02  0.92152998706E+02  0.18343548297E+03  0.12500000000E+03 0.  0.
         25    1    1    2    0    0 -0.43128316234E+02  0.87586240820E+02 -0.66936046483E+02  0.17215352323E+03  0.12500000000E+03 0.  0.
</event>
<event>
 4    0  0.2193754E-002  0.1625657E+03  0.7546771E-02  0.1185830E+00
         21   -1    0    0  502  501  0.00000000000E+00  0.00000000000E+00  0.48364855705E+03  0.48364855705E+03  0.00000000000E+00 0. -1.
         21   -1    0    0  501  502 -0.00000000000E+00 -0.00000000000E+00 -0.54642139275E+02  0.54642139275E+02  0.00000000000E+00 0. -1.
         25    1    1    2    0    0 -0.34592392972E+02  0.70231860684E+02  0.10132140795E+03  0.17894182188E+03  0.12500000000E+03 0.  0.
         25    1    1    2    0    0  0.34592392972E+02 -0.70231860684E+02  0.32768500983E+03  0.35934887445E+03  0.12500000000E+03 0.  0.
</event>
<event>
 4    0  0.2193754E-002  0.2056580E+03  0.7546771E-02  0.1145051E+00
         21   -1    0    0  502  501  0.00000000000E+00  0.00000000000E+00  0.53586488441E+03  0.53586488441E+03  0.00000000000E+00 0.  1.
         21   -1    0    0  501  502 -0.00000000000E+00 -0.00000000000E+00 -0.78928845100E+02  0.78928845100E+02  0.00000000000E+00 0.  1.
         25    1    1    2    0    0  0.62219555665E+02 -0.13099641492E+03  0.34070853904E+03  0.39081791464E+03  0.12500000000E+03 0.  0.
         25    1    1    2    0    0 -0.62219555665E+02  0.13099641492E+03  0.11622750027E+03  0.22397581487E+03  0.12500000000E+03 0.  0.
</event>
<event>
 4    0  0.2193754E-002  0.2029623E+03  0.7546771E-02  0.1147263E+00
         21   -1    0    0  502  501  0.00000000000E+00  0.00000000000E+00  0.17436413926E+03  0.17436413926E+03  0.00000000000E+00 0.  1.
         21   -1    0    0  501  502 -0.00000000000E+00 -0.00000000000E+00 -0.23625099392E+03  0.23625099392E+03  0.00000000000E+00 0.  1.
         25    1    1    2    0    0  0.18356472626E+02  0.34687200735E+02  0.12585916305E+03  0.18167468427E+03  0.12500000000E+03 0.  0.
         25    1    1    2    0    0 -0.18356472626E+02 -0.34687200735E+02 -0.18774601770E+03  0.22894044891E+03  0.12500000000E+03 0.  0.
</event>
<event>
 4    0  0.2193754E-002  0.1488423E+03  0.7546771E-02  0.1201903E+00
         21   -1    0    0  502  501  0.00000000000E+00  0.00000000000E+00  0.17382883665E+02  0.17382883665E+02  0.00000000000E+00 0. -1.
         21   -1    0    0  501  502 -0.00000000000E+00 -0.00000000000E+00 -0.12744735895E+04  0.12744735895E+04  0.00000000000E+00 0. -1.
         25    1    1    2    0    0  0.32144805941E+02 -0.47748184879E+02 -0.87464201538E+03  0.88540207408E+03  0.12500000000E+03 0.  0.
         25    1    1    2    0    0 -0.32144805941E+02  0.47748184879E+02 -0.38244869043E+03  0.40645439907E+03  0.12500000000E+03 0.  0.
</event>
<event>
 4    0  0.2193754E-002  0.2246798E+03  0.7546771E-02  0.1130441E+00
         21   -1    0    0  502  501  0.00000000000E+00  0.00000000000E+00  0.22446688129E+03  0.22446688129E+03  0.00000000000E+00 0. -1.
         21   -1    0    0  501  502 -0.00000000000E+00 -0.00000000000E+00 -0.22489301528E+03  0.22489301528E+03  0.00000000000E+00 0. -1.
         25    1    1    2    0    0  0.11017097803E+03 -0.13778516576E+03 -0.61316592398E+02  0.22473789357E+03  0.12500000000E+03 0.  0.
         25    1    1    2    0    0 -0.11017097803E+03  0.13778516576E+03  0.60890458415E+02  0.22462200300E+03  0.12500000000E+03 0.  0.
</event>
<event>
 4    0  0.2193754E-002  0.1776091E+03  0.7546771E-02  0.1170137E+00
         21   -1    0    0  502  501  0.00000000000E+00  0.00000000000E+00  0.21590386084E+03  0.21590386084E+03  0.00000000000E+00 0. -1.
         21   -1    0    0  501  502 -0.00000000000E+00 -0.00000000000E+00 -0.14610658428E+03  0.14610658428E+03  0.00000000000E+00 0. -1.
         25    1    1    2    0    0 -0.10615873749E+03  0.26201632034E+02  0.99061004503E+02  0.19337602147E+03  0.12500000000E+03 0.  0.
         25    1    1    2    0    0  0.10615873749E+03 -0.26201632034E+02 -0.29263727941E+02  0.16863442365E+03  0.12500000000E+03 0.  0.
</event>
<event>
 4    0  0.2193754E-002  0.1988135E+03  0.7546771E-02  0.1150744E+00
         21   -1    0    0  502  501  0.00000000000E+00  0.00000000000E+00  0.64608215446E+02  0.64608215446E+02  0.00000000000E+00 0.  1.
         21   -1    0    0  501  502 -0.00000000000E+00 -0.00000000000E+00 -0.61179200423E+03  0.61179200423E+03  0.00000000000E+00 0.  1.
         25    1    1    2    0    0  0.57360238789E+02  0.13847402249E+03 -0.33806617281E+03  0.39035751446E+03  0.12500000000E+03 0.  0.
         25    1    1    2    0    0 -0.57360238789E+02 -0.13847402249E+03 -0.20911761598E+03  0.28604270522E+03  0.12500000000E+03 0.  0.
</event>
<event>
 4    0  0.2193754E-002  0.1730679E+03  0.7546771E-02  0.1174686E+00
         21   -1    0    0  502  501  0.00000000000E+00  0.00000000000E+00  0.15141493329E+03  0.15141493329E+03  0.00000000000E+00 0.  1.
         21   -1    0    0  501  502 -0.00000000000E+00 -0.00000000000E+00 -0.19781743543E+03  0.19781743543E+03  0.00000000000E+00 0.  1.
         25    1    1    2    0    0  0.78729190255E+02  0.66727504470E+02  0.37976723550E+02  0.16648746734E+03  0.12500000000E+03 0.  0.
         25    1    1    2    0    0 -0.78729190255E+02 -0.66727504470E+02 -0.84379225691E+02  0.18274490138E+03  0.12500000000E+03 0.  0.
</event>
<event>
 4    0  0.2193754E-002  0.1782844E+03  0.7546771E-02  0.1169474E+00
         21   -1    0    0  502  501  0.00000000000E+00  0.00000000000E+00  0.11503998549E+04  0.11503998549E+04  0.00000000000E+00 0. -1.
         21   -1    0    0  501  502 -0.00000000000E+00 -0.00000000000E+00 -0.27629798969E+02  0.27629798969E+02  0.00000000000E+00 0. -1.
         25    1    1    2    0    0 -0.95897789302E+02  0.27664875208E+02  0.82149634642E+03  0.83692471495E+03  0.12500000000E+03 0.  0.
         25    1    1    2    0    0  0.95897789302E+02 -0.27664875208E+02  0.30127370952E+03  0.34110493893E+03  0.12500000000E+03 0.  0.
</event>
<event>
 4    0  0.2193754E-002  0.2208729E+03  0.7546771E-02  0.1133234E+00
         21   -1    0    0  502  501  0.00000000000E+00  0.00000000000E+00  0.22549151461E+03  0.22549151461E+03  0.00000000000E+00 0. -1.
         21   -1    0    0  501  502 -0.00000000000E+00 -0.00000000000E+00 -0.21634884649E+03  0.21634884649E+03  0.00000000000E+00 0. -1.
         25    1    1    2    0    0 -0.12836824733E+02 -0.18151625893E+03 -0.22779609608E+01  0.22077845327E+03  0.12500000000E+03 0.  0.
         25    1    1    2    0    0  0.12836824733E+02  0.18151625893E+03  0.11420629074E+02  0.22106190783E+03  0.12500000000E+03 0.  0.
</event>
<event>
 4    0  0.2193754E-002  0.4286793E+03  0.7546771E-02  0.1034278E+00
         21   -1    0    0  502  501  0.00000000000E+00  0.00000000000E+00  0.32441676041E+03  0.32441676041E+03  0.00000000000E+00 0. -1.
         21   -1    0    0  501  502 -0.00000000000E+00 -0.00000000000E+00 -0.56645019358E+03  0.56645019358E+03  0.00000000000E+00 0.  1.
         25    1    1    2    0    0 -0.18673563605E+03  0.29706931267E+03 -0.34148991655E+03  0.50533230394E+03  0.12500000000E+03 0.  0.
         25    1    1    2    0    0  0.18673563605E+03 -0.29706931267E+03  0.99456483381E+02  0.38553465005E+03  0.12500000000E+03 0.  0.
</event>
<event>
 4    0  0.2193754E-002  0.6289904E+03  0.7546771E-02  0.9847021E-01
         21   -1    0    0  502  501  0.00000000000E+00  0.00000000000E+00  0.28353737999E+03  0.28353737999E+03  0.00000000000E+00 0.  1.
         21   -1    0    0  501  502 -0.00000000000E+00 -0.00000000000E+00 -0.13953323381E+04  0.13953323381E+04  0.00000000000E+00 0.  1.
         25    1    1    2    0    0  0.54510528890E+03 -0.27698345111E+02 -0.93828736020E+03  0.10926642415E+04  0.12500000000E+03 0.  0.
         25    1    1    2    0    0 -0.54510528890E+03  0.27698345111E+02 -0.17350759795E+03  0.58620547665E+03  0.12500000000E+03 0.  0.
</event>
<event>
 4    0  0.2193754E-002  0.2006455E+03  0.7546771E-02  0.1149196E+00
         21   -1    0    0  502  501  0.00000000000E+00  0.00000000000E+00  0.40206568215E+03  0.40206568215E+03  0.00000000000E+00 0. -1.
         21   -1    0    0  501  502 -0.00000000000E+00 -0.00000000000E+00 -0.10012941009E+03  0.10012941009E+03  0.00000000000E+00 0. -1.
         25    1    1    2    0    0  0.72838824763E+02 -0.13826365399E+03  0.13277828520E+03  0.24016120717E+03  0.12500000000E+03 0.  0.
         25    1    1    2    0    0 -0.72838824763E+02  0.13826365399E+03  0.16915798685E+03  0.26203388507E+03  0.12500000000E+03 0.  0.
</event>
<event>
 4    0  0.2193754E-002  0.2273850E+03  0.7546771E-02  0.1128494E+00
         21   -1    0    0  502  501  0.00000000000E+00  0.00000000000E+00  0.50372192823E+02  0.50372192823E+02  0.00000000000E+00 0.  1.
         21   -1    0    0  501  502 -0.00000000000E+00 -0.00000000000E+00 -0.10264377376E+04  0.10264377376E+04  0.00000000000E+00 0.  1.
         25    1    1    2    0    0 -0.12295006819E+03  0.14391385895E+03 -0.52554609585E+03  0.57240861011E+03  0.12500000000E+03 0.  0.
         25    1    1    2    0    0  0.12295006819E+03 -0.14391385895E+03 -0.45051944892E+03  0.50440132030E+03  0.12500000000E+03 0.  0.
</event>
<event>
 4    0  0.2193754E-002  0.2043841E+03  0.7546771E-02  0.1146092E+00
         21   -1    0    0  502  501  0.00000000000E+00  0.00000000000E+00  0.12753074303E+04  0.12753074303E+04  0.00000000000E+00 0.  1.
         21   -1    0    0  501  502 -0.00000000000E+00 -0.00000000000E+00 -0.32755120303E+02  0.32755120303E+02  0.00000000000E+00 0.  1.
         25    1    1    2    0    0 -0.11527586040E+02  0.11199732311E+03  0.24986028193E+03  0.30121660995E+03  0.12500000000E+03 0.  0.
         25    1    1    2    0    0  0.11527586040E+02 -0.11199732311E+03  0.99269202803E+03  0.10068459406E+04  0.12500000000E+03 0.  0.
</event>
<event>
 4    0  0.2193754E-002  0.2577156E+03  0.7546771E-02  0.1108524E+00
         21   -1    0    0  502  501  0.00000000000E+00  0.00000000000E+00  0.44946383393E+03  0.44946383393E+03  0.00000000000E+00 0.  1.
         21   -1    0    0  501  502 -0.00000000000E+00 -0.00000000000E+00 -0.14777011799E+03  0.14777011799E+03  0.00000000000E+00 0.  1.
         25    1    1    2    0    0  0.19416130777E+03 -0.98523703706E+02  0.83414561388E+02  0.26455344012E+03  0.12500000000E+03 0.  0.
         25    1    1    2    0    0 -0.19416130777E+03  0.98523703706E+02  0.21827915455E+03  0.33268051181E+03  0.12500000000E+03 0.  0.
</event>
<event>
 4    0  0.2193754E-002  0.2017558E+03  0.7546771E-02  0.1148266E+00
         21   -1    0    0  502  501  0.00000000000E+00  0.00000000000E+00  0.10026860647E+03  0.10026860647E+03  0.00000000000E+00 0. -1.
         21   -1    0    0  501  502 -0.00000000000E+00 -0.00000000000E+00 -0.40596367890E+03  0.40596367890E+03  0.00000000000E+00 0. -1.
         25    1    1    2    0    0  0.63105782401E+02 -0.13002825132E+03 -0.23406294237E+03  0.30215914169E+03  0.12500000000E+03 0.  0.
         25    1    1    2    0    0 -0.63105782401E+02  0.13002825132E+03 -0.71632130063E+02  0.20407314368E+03  0.12500000000E+03 0.  0.
</event>
<event>
 4    0  0.2193754E-002  0.1906623E+03  0.7546771E-02  0.1157865E+00
         21   -1    0    0  502  501  0.00000000000E+00  0.00000000000E+00  0.17144413473E+04  0.17144413473E+04  0.00000000000E+00 0.  1.
         21   -1    0    0  501  502 -0.00000000000E+00 -0.00000000000E+00 -0.21203477448E+02  0.21203477448E+02  0.00000000000E+00 0.  1.
         25    1    1    2    0    0  0.58730001800E+02  0.76994598360E+02  0.13315264353E+04  0.13408821832E+04  0.12500000000E+03 0.  0.
         25    1    1    2    0    0 -0.58730001800E+02 -0.76994598360E+02  0.36171143459E+03  0.39476264159E+03  0.12500000000E+03 0.  0.
</event>
<event>
 4    0  0.2193754E-002  0.1932778E+03  0.7546771E-02  0.1155538E+00
         21   -1    0    0  502  501  0.00000000000E+00  0.00000000000E+00  0.32613771630E+03  0.32613771630E+03  0.00000000000E+00 0. -1.
         21   -1    0    0  501  502 -0.00000000000E+00 -0.00000000000E+00 -0.11454151514E+03  0.11454151514E+03  0.00000000000E+00 0. -1.
         25    1    1    2    0    0 -0.12147769328E+03 -0.80040262638E+02  0.78627577870E+02  0.20729343841E+03  0.12500000000E+03 0.  0.
         25    1    1    2    0    0  0.12147769328E+03  0.80040262638E+02  0.13296862329E+03  0.23338579303E+03  0.12500000000E+03 0.  0.
</event>
<event>
 4    0  0.2193754E-002  0.1692012E+03  0.7546771E-02  0.1178683E+00
         21   -1    0    0  502  501  0.00000000000E+00  0.00000000000E+00  0.13881435024E+04  0.13881435024E+04  0.00000000000E+00 0.  1.
         21   -1    0    0  501  502 -0.00000000000E+00 -0.00000000000E+00 -0.20623980628E+02  0.20623980628E+02  0.00000000000E+00 0.  1.
         25    1    1    2    0    0 -0.22920022299E+02 -0.75836256704E+02  0.34230331752E+03  0.37292496087E+03  0.12500000000E+03 0.  0.
         25    1    1    2    0    0  0.22920022299E+02  0.75836256704E+02  0.10252162042E+04  0.10358425221E+04  0.12500000000E+03 0.  0.
</event>
<event>
 4    0  0.2193754E-002  0.2261909E+03  0.7546771E-02  0.1129350E+00
         21   -1    0    0  502  501  0.00000000000E+00  0.00000000000E+00  0.17732947909E+03  0.17732947909E+03  0.00000000000E+00 0. -1.
         21   -1    0    0  501  502 -0.00000000000E+00 -0.00000000000E+00 -0.28851562698E+03  0.28851562698E+03  0.00000000000E+00 0. -1.
         25    1    1    2    0    0 -0.17795355739E+03  0.11650794021E+02  0.73329540689E+01  0.21790360668E+03  0.12500000000E+03 0.  0.
         25    1    1    2    0    0  0.17795355739E+03 -0.11650794021E+02 -0.11851910196E+03  0.24794149939E+03  0.12500000000E+03 0.  0.
</event>
<event>
 4    0  0.2193754E-002  0.1839595E+03  0.7546771E-02  0.1164025E+00
         21   -1    0    0  502  501  0.00000000000E+00  0.00000000000E+00  0.21657746496E+02  0.21657746496E+02  0.00000000000E+00 0.  1.
         21   -1    0    0  501  502 -0.00000000000E+00 -0.00000000000E+00 -0.15625395597E+04  0.15625395597E+04  0.00000000000E+00 0.  1.
         25    1    1    2    0    0 -0.13015613280E+02 -0.33063157792E+02 -0.13310845560E+04  0.13374130528E+04  0.12500000000E+03 0.  0.
         25    1    1    2    0    0  0.13015613280E+02  0.33063157792E+02 -0.20979725721E+03  0.24678425340E+03  0.12500000000E+03 0.  0.
</event>
<event>
 4    0  0.2193754E-002  0.2394471E+03  0.7546771E-02  0.1120162E+00
         21   -1    0    0  502  501  0.00000000000E+00  0.00000000000E+00  0.28127226427E+03  0.28127226427E+03  0.00000000000E+00 0.  1.
         21   -1    0    0  501  502 -0.00000000000E+00 -0.00000000000E+00 -0.20384134116E+03  0.20384134116E+03  0.00000000000E+00 0.  1.
         25    1    1    2    0    0  0.18787070592E+03 -0.79528827933E+02  0.29122578262E+02  0.24102564424E+03  0.12500000000E+03 0.  0.
         25    1    1    2    0    0 -0.18787070592E+03  0.79528827933E+02  0.48308344844E+02  0.24408796119E+03  0.12500000000E+03 0.  0.
</event>
<event>
 4    0  0.2193754E-002  0.2826057E+03  0.7546771E-02  0.1094274E+00
         21   -1    0    0  502  501  0.00000000000E+00  0.00000000000E+00  0.11110178634E+04  0.11110178634E+04  0.00000000000E+00 0. -1.
         21   -1    0    0  501  502 -0.00000000000E+00 -0.00000000000E+00 -0.71885407205E+02  0.71885407205E+02  0.00000000000E+00 0. -1.
         25    1    1    2    0    0  0.30774227067E+02 -0.24771432067E+03  0.61154540185E+03  0.67225160188E+03  0.12500000000E+03 0.  0.
         25    1    1    2    0    0 -0.30774227067E+02  0.24771432067E+03  0.42758705433E+03  0.51065166870E+03  0.12500000000E+03 0.  0.
</event>
<event>
 4    0  0.2193754E-002  0.4152761E+03  0.7546771E-02  0.1038615E+00
         21   -1    0    0  502  501  0.00000000000E+00  0.00000000000E+00  0.35375455646E+03  0.35375455646E+03  0.00000000000E+00 0.  1.
         21   -1    0    0  501  502 -0.00000000000E+00 -0.00000000000E+00 -0.48749683847E+03  0.48749683847E+03  0.00000000000E+00 0.  1.
         25    1    1    2    0    0  0.30727250381E+03  0.16872208239E+03  0.11974587134E+03  0.39095729484E+03  0.12500000000E+03 0.  0.
         25    1    1    2    0    0 -0.30727250381E+03 -0.16872208239E+03 -0.25348815336E+03  0.45029410009E+03  0.12500000000E+03 0.  0.
</event>
<event>
 4    0  0.2193754E-002  0.2999255E+03  0.7546771E-02  0.1085278E+00
         21   -1    0    0  502  501  0.00000000000E+00  0.00000000000E+00  0.23415181977E+03  0.23415181977E+03  0.00000000000E+00 0. -1.
         21   -1    0    0  501  502 -0.00000000000E+00 -0.00000000000E+00 -0.38417504157E+03  0.38417504157E+03  0.00000000000E+00 0.  1.
         25    1    1    2    0    0 -0.74101495021E+02 -0.21856752044E+03 -0.22462869967E+03  0.34546468021E+03  0.12500000000E+03 0.  0.
         25    1    1    2    0    0  0.74101495021E+02  0.21856752044E+03  0.74605477872E+02  0.27286218112E+03  0.12500000000E+03 0.  0.
</event>
<event>
 4    0  0.2193754E-002  0.1893596E+03  0.7546771E-02  0.1159040E+00
         21   -1    0    0  502  501  0.00000000000E+00  0.00000000000E+00  0.92891248112E+03  0.92891248112E+03  0.00000000000E+00 0. -1.
         21   -1    0    0  501  502 -0.00000000000E+00 -0.00000000000E+00 -0.38601128323E+02  0.38601128323E+02  0.00000000000E+00 0. -1.
         25    1    1    2    0    0 -0.90545618378E+02 -0.89127655582E+02  0.28177831205E+03  0.33341605411E+03  0.12500000000E+03 0.  0.
         25    1    1    2    0    0  0.90545618378E+02  0.89127655582E+02  0.60853304074E+03  0.63409755533E+03  0.12500000000E+03 0.  0.
</event>
<event>
 4    0  0.2193754E-002  0.2709480E+03  0.7546771E-02  0.1100738E+00
         21   -1    0    0  502  501  0.00000000000E+00  0.00000000000E+00  0.13369965162E+03  0.13369965162E+03  0.00000000000E+00 0.  1.
         21   -1    0    0  501  502 -0.00000000000E+00 -0.00000000000E+00 -0.54908762105E+03  0.54908762105E+03  0.00000000000E+00 0.  1.
         25    1    1    2    0    0 -0.21779971244E+03 -0.40550036222E+00 -0.33588554886E+03  0.41938166520E+03  0.12500000000E+03 0.  0.
         25    1    1    2    0    0  0.21779971244E+03  0.40550036222E+00 -0.79502420563E+02  0.26340560747E+03  0.12500000000E+03 0.  0.
</event>
<event>
 4    0  0.2193754E-002  0.2349564E+03  0.7546771E-02  0.1123199E+00
         21   -1    0    0  502  501  0.00000000000E+00  0.00000000000E+00  0.44329873889E+03  0.44329873889E+03  0.00000000000E+00 0. -1.
         21   -1    0    0  501  502 -0.00000000000E+00 -0.00000000000E+00 -0.12453119390E+03  0.12453119390E+03  0.00000000000E+00 0. -1.
         25    1    1    2    0    0 -0.18254628306E+03 -0.13682833525E+02  0.65245742295E+02  0.23106789539E+03  0.12500000000E+03 0.  0.
         25    1    1    2    0    0  0.18254628306E+03  0.13682833525E+02  0.25352180270E+03  0.33676203740E+03  0.12500000000E+03 0.  0.
</event>
<event>
 4    0  0.2193754E-002  0.2707501E+03  0.7546771E-02  0.1100851E+00
         21   -1    0    0  502  501  0.00000000000E+00  0.00000000000E+00  0.45263714991E+03  0.45263714991E+03  0.00000000000E+00 0.  1.
         21   -1    0    0  501  502 -0.00000000000E+00 -0.00000000000E+00 -0.16195232782E+03  0.16195232782E+03  0.00000000000E+00 0.  1.
         25    1    1    2    0    0 -0.46698638916E+02  0.13682724255E+03 -0.72319061953E+02  0.20434652897E+03  0.12500000000E+03 0.  0.
         25    1    1    2    0    0  0.46698638916E+02 -0.13682724255E+03  0.36300388404E+03  0.41024294876E+03  0.12500000000E+03 0.  0.
</event>
<event>
 4    0  0.2193754E-002  0.1785811E+03  0.7546771E-02  0.1169183E+00
         21   -1    0    0  502  501  0.00000000000E+00  0.00000000000E+00  0.66121657934E+02  0.66121657934E+02  0.00000000000E+00 0. -1.
         21   -1    0    0  501  502 -0.00000000000E+00 -0.00000000000E+00 -0.48231134525E+03  0.48231134525E+03  0.00000000000E+00 0. -1.
         25    1    1    2    0    0  0.26693438769E+01  0.99012673357E+02 -0.84720180409E+02  0.18059109571E+03  0.12500000000E+03 0.  0.
         25    1    1    2    0    0 -0.26693438769E+01 -0.99012673357E+02 -0.33146950690E+03  0.36784190747E+03  0.12500000000E+03 0.  0.
</event>
<event>
 4    0  0.2193754E-002  0.3317945E+03  0.7546771E-02  0.1070346E+00
         21   -1    0    0  502  501  0.00000000000E+00  0.00000000000E+00  0.10235721847E+03  0.10235721847E+03  0.00000000000E+00 0.  1.
         21   -1    0    0  501  502 -0.00000000000E+00 -0.00000000000E+00 -0.10755237313E+04  0.10755237313E+04  0.00000000000E+00 0.  1.
         25    1    1    2    0    0  0.68492507968E+02 -0.19200510423E+03 -0.89485780350E+03  0.92625734662E+03  0.12500000000E+03 0.  0.
         25    1    1    2    0    0 -0.68492507968E+02  0.19200510423E+03 -0.78308709313E+02  0.25162360313E+03  0.12500000000E+03 0.  0.
</event>
<event>
 4    0  0.2193754E-002  0.5569743E+03  0.7546771E-02  0.9998924E-01
         21   -1    0    0  502  501  0.00000000000E+00  0.00000000000E+00  0.25741953103E+03  0.25741953103E+03  0.00000000000E+00 0.  1.
         21   -1    0    0  501  502 -0.00000000000E+00 -0.00000000000E+00 -0.12051158781E+04  0.12051158781E+04  0.00000000000E+00 0.  1.
         25    1    1    2    0    0  0.34066139719E+03  0.41582103930E+03 -0.57243191933E+03  0.79514817898E+03  0.12500000000E+03 0.  0.
         25    1    1    2    0    0 -0.34066139719E+03 -0.41582103930E+03 -0.37526442779E+03  0.66738723020E+03  0.12500000000E+03 0.  0.
</event>
<event>
 4    0  0.2193754E-002  0.3529937E+03  0.7546771E-02  0.1061393E+00
         21   -1    0    0  502  501  0.00000000000E+00  0.00000000000E+00  0.11040604015E+04  0.11040604015E+04  0.00000000000E+00 0. -1.
         21   -1    0    0  501  502 -0.00000000000E+00 -0.00000000000E+00 -0.11286028288E+03  0.11286028288E+03  0.00000000000E+00 0. -1.
         25    1    1    2    0    0  0.12225863152E+03  0.27758261906E+03  0.27098555777E+03  0.42550846749E+03  0.12500000000E+03 0.  0.
         25    1    1    2    0    0 -0.12225863152E+03 -0.27758261906E+03  0.72021456088E+03  0.79141221692E+03  0.12500000000E+03 0.  0.
</event>
<event>
 4    0  0.2193754E-002  0.1847245E+03  0.7546771E-02  0.1163307E+00
         21   -1    0    0  502  501  0.00000000000E+00  0.00000000000E+00  0.16789083684E+02  0.16789083684E+02  0.00000000000E+00 0.  1.
         21   -1    0    0  501  502 -0.00000000000E+00 -0.00000000000E+00 -0.20324602293E+04  0.20324602293E+04  0.00000000000E+00 0.  1.
         25    1    1    2    0    0 -0.51948801854E+02 -0.70507580014E+02 -0.15850236740E+04  0.15923551877E+04  0.12500000000E+03 0.  0.
         25    1    1    2    0    0  0.51948801854E+02  0.70507580014E+02 -0.43064747163E+03  0.45689412523E+03  0.12500000000E+03 0.  0.
</event>
<event>
 4    0  0.2193754E-002  0.1832855E+03  0.7546771E-02  0.1164661E+00
         21   -1    0    0  502  501  0.00000000000E+00  0.00000000000E+00  0.84672839033E+03  0.84672839033E+03  0.00000000000E+00 0. -1.
         21   -1    0    0  501  502 -0.00000000000E+00 -0.00000000000E+00 -0.39674562767E+02  0.39674562767E+02  0.00000000000E+00 0. -1.
         25    1    1    2    0    0 -0.72084777549E+01  0.17086025720E+02  0.82505697667E+02  0.15091747604E+03  0.12500000000E+03 0.  0.
         25    1    1    2    0    0  0.72084777549E+01 -0.17086025720E+02  0.72454812990E+03  0.73548547706E+03  0.12500000000E+03 0.  0.
</event>
<event>
 4    0  0.2193754E-002  0.1921060E+03  0.7546771E-02  0.1156575E+00
         21   -1    0    0  502  501  0.00000000000E+00  0.00000000000E+00  0.55711084182E+03  0.55711084182E+03  0.00000000000E+00 0.  1.
         21   -1    0    0  501  502 -0.00000000000E+00 -0.00000000000E+00 -0.66243013290E+02  0.66243013290E+02  0.00000000000E+00 0.  1.
         25    1    1    2    0    0  0.61835189887E+02  0.66935509280E+02  0.60621982378E+02  0.16614444877E+03  0.12500000000E+03 0.  0.
         25    1    1    2    0    0 -0.61835189887E+02 -0.66935509280E+02  0.43024584615E+03  0.45720940633E+03  0.12500000000E+03 0.  0.
</event>
<event>
 4    0  0.2193754E-002  0.2645887E+03  0.7546771E-02  0.1104417E+00
         21   -1    0    0  502  501  0.00000000000E+00  0.00000000000E+00  0.23216398678E+02  0.23216398678E+02  0.00000000000E+00 0. -1.
         21   -1    0    0  501  502 -0.00000000000E+00 -0.00000000000E+00 -0.30154200733E+04  0.30154200733E+04  0.00000000000E+00 0. -1.
         25    1    1    2    0    0 -0.14976543101E+03  0.13180832778E+03 -0.21894356788E+04  0.22020573814E+04  0.12500000000E+03 0.  0.
         25    1    1    2    0    0  0.14976543101E+03 -0.13180832778E+03 -0.80276799591E+03  0.83657909062E+03  0.12500000000E+03 0.  0.
</event>
<event>
 4    0  0.2193754E-002  0.2776035E+03  0.7546771E-02  0.1097005E+00
         21   -1    0    0  502  501  0.00000000000E+00  0.00000000000E+00  0.11917106536E+03  0.11917106536E+03  0.00000000000E+00 0. -1.
         21   -1    0    0  501  502 -0.00000000000E+00 -0.00000000000E+00 -0.64666462264E+03  0.64666462264E+03  0.00000000000E+00 0. -1.
         25    1    1    2    0    0  0.16663343705E+03  0.68749088141E+02 -0.49842442018E+03  0.54455949363E+03  0.12500000000E+03 0.  0.
         25    1    1    2    0    0 -0.16663343705E+03 -0.68749088141E+02 -0.29069137096E+02  0.22127619437E+03  0.12500000000E+03 0.  0.
</event>
<event>
 4    0  0.2193754E-002  0.3269394E+03  0.7546771E-02  0.1072499E+00
         21   -1    0    0  502  501  0.00000000000E+00  0.00000000000E+00  0.12563237536E+04  0.12563237536E+04  0.00000000000E+00 0. -1.
         21   -1    0    0  501  502 -0.00000000000E+00 -0.00000000000E+00 -0.85081052751E+02  0.85081052751E+02  0.00000000000E+00 0. -1.
         25    1    1    2    0    0 -0.39218608128E+02  0.29940365576E+03  0.56685311573E+03  0.65431498769E+03  0.12500000000E+03 0.  0.
         25    1    1    2    0    0  0.39218608128E+02 -0.29940365576E+03  0.60438958512E+03  0.68708981866E+03  0.12500000000E+03 0.  0.
</event>
<event>
 4    0  0.2193754E-002  0.3020323E+03  0.7546771E-02  0.1084229E+00
         21   -1    0    0  502  501  0.00000000000E+00  0.00000000000E+00  0.14749352966E+04  0.14749352966E+04  0.00000000000E+00 0.  1.
         21   -1    0    0  501  502 -0.00000000000E+00 -0.00000000000E+00 -0.61849176041E+02  0.61849176041E+02  0.00000000000E+00 0.  1.
         25    1    1    2    0    0  0.90454903102E+02  0.10485686023E+03  0.10224420717E+03  0.21273440844E+03  0.12500000000E+03 0.  0.
         25    1    1    2    0    0 -0.90454903102E+02 -0.10485686023E+03  0.13108419134E+04  0.13240500642E+04  0.12500000000E+03 0.  0.
</event>
<event>
 4    0  0.2193754E-002  0.2114901E+03  0.7546771E-02  0.1140391E+00
         21   -1    0    0  502  501  0.00000000000E+00  0.00000000000E+00  0.10935687551E+03  0.10935687551E+03  0.00000000000E+00 0.  1.
         21   -1    0    0  501  502 -0.00000000000E+00 -0.00000000000E+00 -0.40900988157E+03  0.40900988157E+03  0.00000000000E+00 0.  1.
         25    1    1    2    0    0 -0.90828545610E+02 -0.91784255995E+02 -0.13200616237E+02  0.18020385849E+03  0.12500000000E+03 0.  0.
         25    1    1    2    0    0  0.90828545610E+02  0.91784255995E+02 -0.28645238983E+03  0.33816289859E+03  0.12500000000E+03 0.  0.
</event>
<event>
 4    0  0.2193754E-002  0.1900057E+03  0.7546771E-02  0.1158456E+00
         21   -1    0    0  502  501  0.00000000000E+00  0.00000000000E+00  0.28116088389E+03  0.28116088389E+03  0.00000000000E+00 0.  1.
         21   -1    0    0  501  502 -0.00000000000E+00 -0.00000000000E+00 -0.12840392252E+03  0.12840392252E+03  0.00000000000E+00 0.  1.
         25    1    1    2    0    0  0.21961247630E+02  0.12966995636E+03  0.15596020927E+02  0.18211213537E+03  0.12500000000E+03 0.  0.
         25    1    1    2    0    0 -0.21961247630E+02 -0.12966995636E+03  0.13716094044E+03  0.22745267104E+03  0.12500000000E+03 0.  0.
</event>
<event>
 4    0  0.2193754E-002  0.2063902E+03  0.7546771E-02  0.1144457E+00
         21   -1    0    0  502  501  0.00000000000E+00  0.00000000000E+00  0.81920057152E+02  0.81920057152E+02  0.00000000000E+00 0. -1.
         21   -1    0    0  501  502 -0.00000000000E+00 -0.00000000000E+00 -0.51998158392E+03  0.51998158392E+03  0.00000000000E+00 0. -1.
         25    1    1    2    0    0  0.11270299307E+02 -0.75312125843E+02 -0.43120735730E+03  0.45537206868E+03  0.12500000000E+03 0.  0.
         25    1    1    2    0    0 -0.11270299307E+02  0.75312125843E+02 -0.68541694674E+01  0.14652957239E+03  0.12500000000E+03 0.  0.
</event>
<event>
 4    0  0.2193754E-002  0.2199772E+03  0.7546771E-02  0.1133900E+00
         21   -1    0    0  502  501  0.00000000000E+00  0.00000000000E+00  0.45606781432E+03  0.45606781432E+03  0.00000000000E+00 0. -1.
         21   -1    0    0  501  502 -0.00000000000E+00 -0.00000000000E+00 -0.10610253021E+03  0.10610253021E+03  0.00000000000E+00 0. -1.
         25    1    1    2    0    0 -0.51706804122E+02  0.18526247724E+02 -0.45406510847E+02  0.14388734022E+03  0.12500000000E+03 0.  0.
         25    1    1    2    0    0  0.51706804122E+02 -0.18526247724E+02  0.39537179496E+03  0.41828300431E+03  0.12500000000E+03 0.  0.
</event>
<event>
 4    0  0.2193754E-002  0.5406586E+03  0.7546771E-02  0.1003680E+00
         21   -1    0    0  502  501  0.00000000000E+00  0.00000000000E+00  0.31285432406E+03  0.31285432406E+03  0.00000000000E+00 0.  1.
         21   -1    0    0  501  502 -0.00000000000E+00 -0.00000000000E+00 -0.93433806656E+03  0.93433806656E+03  0.00000000000E+00 0.  1.
         25    1    1    2    0    0 -0.58271870552E+02 -0.10637740193E+03 -0.90109277240E+03  0.91777172925E+03  0.12500000000E+03 0.  0.
         25    1    1    2    0    0  0.58271870552E+02  0.10637740193E+03  0.27960902990E+03  0.32942066137E+03  0.12500000000E+03 0.  0.
</event>
<event>
 4    0  0.2193754E-002  0.1759737E+03  0.7546771E-02  0.1171758E+00
         21   -1    0    0  502  501  0.00000000000E+00  0.00000000000E+00  0.49781230992E+02  0.49781230992E+02  0.00000000000E+00 0. -1.
         21   -1    0    0  501  502 -0.00000000000E+00 -0.00000000000E+00 -0.62205652691E+03  0.62205652691E+03  0.00000000000E+00 0. -1.
         25    1    1    2    0    0  0.10611752210E+03  0.30462795976E+02 -0.39332335925E+03  0.42722028904E+03  0.12500000000E+03 0.  0.
         25    1    1    2    0    0 -0.10611752210E+03 -0.30462795976E+02 -0.17895193667E+03  0.24461746887E+03  0.12500000000E+03 0.  0.
</event>
<event>
 4    0  0.2193754E-002  0.5751105E+03  0.7546771E-02  0.9958433E-01
         21   -1    0    0  502  501  0.00000000000E+00  0.00000000000E+00  0.30528436571E+04  0.30528436571E+04  0.00000000000E+00 0. -1.
         21   -1    0    0  501  502 -0.00000000000E+00 -0.00000000000E+00 -0.10834229018E+03  0.10834229018E+03  0.00000000000E+00 0. -1.
         25    1    1    2    0    0 -0.41875330802E+03 -0.19683578204E+03  0.59869512846E+03  0.76691558526E+03  0.12500000000E+03 0.  0.
         25    1    1    2    0    0  0.41875330802E+03  0.19683578204E+03  0.23458062385E+04  0.23942703620E+04  0.12500000000E+03 0.  0.
</event>
<event>
 4    0  0.2193754E-002  0.1943759E+03  0.7546771E-02  0.1154573E+00
         21   -1    0    0  502  501  0.00000000000E+00  0.00000000000E+00  0.20762308783E+03  0.20762308783E+03  0.00000000000E+00 0. -1.
         21   -1    0    0  501  502 -0.00000000000E+00 -0.00000000000E+00 -0.18197396292E+03  0.18197396292E+03  0.00000000000E+00 0. -1.
         25    1    1    2    0    0 -0.11605126128E+03 -0.91627025222E+02 -0.43471327403E+01  0.19366802668E+03  0.12500000000E+03 0.  0.
         25    1    1    2    0    0  0.11605126128E+03  0.91627025222E+02  0.29996257649E+02  0.19592902406E+03  0.12500000000E+03 0.  0.
</event>
<event>
 4    0  0.2193754E-002  0.1501820E+03  0.7546771E-02  0.1200250E+00
         21   -1    0    0  502  501  0.00000000000E+00  0.00000000000E+00  0.21313637922E+03  0.21313637922E+03  0.00000000000E+00 0. -1.
         21   -1    0    0  501  502 -0.00000000000E+00 -0.00000000000E+00 -0.10582253174E+03  0.10582253174E+03  0.00000000000E+00 0. -1.
         25    1    1    2    0    0 -0.24847766009E+02 -0.74294310772E+02  0.23761335127E+02  0.14942107327E+03  0.12500000000E+03 0.  0.
         25    1    1    2    0    0  0.24847766009E+02  0.74294310772E+02  0.83552512358E+02  0.16953783769E+03  0.12500000000E+03 0.  0.
</event>
<event>
 4    0  0.2193754E-002  0.1664274E+03  0.7546771E-02  0.1181626E+00
         21   -1    0    0  502  501  0.00000000000E+00  0.00000000000E+00  0.34155031601E+02  0.34155031601E+02  0.00000000000E+00 0. -1.
         21   -1    0    0  501  502 -0.00000000000E+00 -0.00000000000E+00 -0.81095166566E+03  0.81095166566E+03  0.00000000000E+00 0. -1.
         25    1    1    2    0    0  0.89769642865E+02 -0.46896700137E+02 -0.49657105501E+03  0.52198247283E+03  0.12500000000E+03 0.  0.
         25    1    1    2    0    0 -0.89769642865E+02  0.46896700137E+02 -0.28022557905E+03  0.32312422444E+03  0.12500000000E+03 0.  0.
</event>
<event>
 4    0  0.2193754E-002  0.2864688E+03  0.7546771E-02  0.1092207E+00
         21   -1    0    0  502  501  0.00000000000E+00  0.00000000000E+00  0.99739076015E+03  0.99739076015E+03  0.00000000000E+00 0. -1.
         21   -1    0    0  501  502 -0.00000000000E+00 -0.00000000000E+00 -0.82279072057E+02  0.82279072057E+02  0.00000000000E+00 0. -1.
         25    1    1    2    0    0 -0.19129429379E+03 -0.13529541028E+03  0.25511137390E+03  0.36824606987E+03  0.12500000000E+03 0.  0.
         25    1    1    2    0    0  0.19129429379E+03  0.13529541028E+03  0.66000031420E+03  0.71142376234E+03  0.12500000000E+03 0.  0.
</event>
<event>
 4    0  0.2193754E-002  0.2144913E+03  0.7546771E-02  0.1138058E+00
         21   -1    0    0  502  501  0.00000000000E+00  0.00000000000E+00  0.84552673302E+03  0.84552673302E+03  0.00000000000E+00 0. -1.
         21   -1    0    0  501  502 -0.00000000000E+00 -0.00000000000E+00 -0.54411683019E+02  0.54411683019E+02  0.00000000000E+00 0. -1.
         25    1    1    2    0    0 -0.13426630929E+03  0.10554620882E+02  0.16343810121E+03  0.24591839045E+03  0.12500000000E+03 0.  0.
         25    1    1    2    0    0  0.13426630929E+03 -0.10554620882E+02  0.62767694879E+03  0.65402002559E+03  0.12500000000E+03 0.  0.
</event>
<event>
 4    0  0.2193754E-002  0.1841455E+03  0.7546771E-02  0.1163850E+00
         21   -1    0    0  502  501  0.00000000000E+00  0.00000000000E+00  0.82985810081E+03  0.82985810081E+03  0.00000000000E+00 0. -1.
         21   -1    0    0  501  502 -0.00000000000E+00 -0.00000000000E+00 -0.40861899845E+02  0.40861899845E+02  0.00000000000E+00 0. -1.
         25    1    1    2    0    0 -0.70784556533E+02 -0.10769439423E+03  0.29770824176E+03  0.34765461769E+03  0.12500000000E+03 0.  0.
         25    1    1    2    0    0  0.70784556533E+02  0.10769439423E+03  0.49128795920E+03  0.52306538296E+03  0.12500000000E+03 0.  0.
</event>
<event>
 4    0  0.2193754E-002  0.2463809E+03  0.7546771E-02  0.1115614E+00
         21   -1    0    0  502  501  0.00000000000E+00  0.00000000000E+00  0.11230451524E+03  0.11230451524E+03  0.00000000000E+00 0. -1.
         21   -1    0    0  501  502 -0.00000000000E+00 -0.00000000000E+00 -0.54052639980E+03  0.54052639980E+03  0.00000000000E+00 0. -1.
         25    1    1    2    0    0 -0.69059633025E+00 -0.21229904674E+03 -0.21055771649E+03  0.32408473297E+03  0.12500000000E+03 0.  0.
         25    1    1    2    0    0  0.69059633025E+00  0.21229904674E+03 -0.21766416807E+03  0.32874618208E+03  0.12500000000E+03 0.  0.
</event>
<event>
 4    0  0.2193754E-002  0.1804411E+03  0.7546771E-02  0.1167377E+00
         21   -1    0    0  502  501  0.00000000000E+00  0.00000000000E+00  0.10342000102E+04  0.10342000102E+04  0.00000000000E+00 0. -1.
         21   -1    0    0  501  502 -0.00000000000E+00 -0.00000000000E+00 -0.31482282428E+02  0.31482282428E+02  0.00000000000E+00 0. -1.
         25    1    1    2    0    0 -0.92925720082E+02  0.15024693288E+01  0.77033306244E+03  0.78592332575E+03  0.12500000000E+03 0.  0.
         25    1    1    2    0    0  0.92925720082E+02 -0.15024693288E+01  0.23238466531E+03  0.27975896686E+03  0.12500000000E+03 0.  0.
</event>
<event>
 4    0  0.2193754E-002  0.2062892E+03  0.7546771E-02  0.1144539E+00
         21   -1    0    0  502  501  0.00000000000E+00  0.00000000000E+00  0.13845168662E+03  0.13845168662E+03  0.00000000000E+00 0. -1.
         21   -1    0    0  501  502 -0.00000000000E+00 -0.00000000000E+00 -0.30736528438E+03  0.30736528438E+03  0.00000000000E+00 0. -1.
         25    1    1    2    0    0  0.11346712491E+03  0.84448473464E+02  0.54568747293E+01  0.18884149594E+03  0.12500000000E+03 0.  0.
         25    1    1    2    0    0 -0.11346712491E+03 -0.84448473464E+02 -0.17437047249E+03  0.25697547506E+03  0.12500000000E+03 0.  0.
</event>
<event>
 4    0  0.2193754E-002  0.2469117E+03  0.7546771E-02  0.1115272E+00
         21   -1    0    0  502  501  0.00000000000E+00  0.00000000000E+00  0.65280305044E+02  0.65280305044E+02  0.00000000000E+00 0.  1.
         21   -1    0    0  501  502 -0.00000000000E+00 -0.00000000000E+00 -0.93390203454E+03  0.93390203454E+03  0.00000000000E+00 0.  1.
         25    1    1    2    0    0 -0.20285276348E+03 -0.48299989793E+02 -0.34708842413E+03  0.42376586322E+03  0.12500000000E+03 0.  0.
         25    1    1    2    0    0  0.20285276348E+03  0.48299989793E+02 -0.52153330537E+03  0.57541647637E+03  0.12500000000E+03 0.  0.
</event>
<event>
 4    0  0.2193754E-002  0.2787805E+03  0.7546771E-02  0.1096357E+00
         21   -1    0    0  502  501  0.00000000000E+00  0.00000000000E+00  0.14680688399E+03  0.14680688399E+03  0.00000000000E+00 0. -1.
         21   -1    0    0  501  502 -0.00000000000E+00 -0.00000000000E+00 -0.52939307029E+03  0.52939307029E+03  0.00000000000E+00 0. -1.
         25    1    1    2    0    0 -0.13063470492E+03 -0.20580628146E+03 -0.25398226523E+03  0.37356879242E+03  0.12500000000E+03 0.  0.
         25    1    1    2    0    0  0.13063470492E+03  0.20580628146E+03 -0.12860392107E+03  0.30263116187E+03  0.12500000000E+03 0.  0.
</event>
<event>
 4    0  0.2193754E-002  0.2635578E+03  0.7546771E-02  0.1105024E+00
         21   -1    0    0  502  501  0.00000000000E+00  0.00000000000E+00  0.17813324443E+03  0.17813324443E+03  0.00000000000E+00 0.  1.
         21   -1    0    0  501  502 -0.00000000000E+00 -0.00000000000E+00 -0.38994818333E+03  0.38994818333E+03  0.00000000000E+00 0.  1.
         25    1    1    2    0    0  0.90707339506E+02 -0.16623882347E+03 -0.25039616711E+03  0.33791479455E+03  0.12500000000E+03 0.  0.
         25    1    1    2    0    0 -0.90707339506E+02  0.16623882347E+03  0.38581228212E+02  0.23016663320E+03  0.12500000000E+03 0.  0.
</event>
<event>
 4    0  0.2193754E-002  0.3008135E+03  0.7546771E-02  0.1084835E+00
         21   -1    0    0  502  501  0.00000000000E+00  0.00000000000E+00  0.50787781818E+03  0.50787781818E+03  0.00000000000E+00 0. -1.
         21   -1    0    0  501  502 -0.00000000000E+00 -0.00000000000E+00 -0.17817034341E+03  0.17817034341E+03  0.00000000000E+00 0. -1.
         25    1    1    2    0    0  0.26940380847E+03  0.25693304954E+02  0.11888297934E+03  0.32093102174E+03  0.12500000000E+03 0.  0.
         25    1    1    2    0    0 -0.26940380847E+03 -0.25693304954E+02  0.21082449543E+03  0.36511713985E+03  0.12500000000E+03 0.  0.
</event>
<event>
 4    0  0.2193754E-002  0.1833333E+03  0.7546771E-02  0.1164616E+00
         21   -1    0    0  502  501  0.00000000000E+00  0.00000000000E+00  0.14870008939E+03  0.14870008939E+03  0.00000000000E+00 0. -1.
         21   -1    0    0  501  502 -0.00000000000E+00 -0.00000000000E+00 -0.22603278573E+03  0.22603278573E+03  0.00000000000E+00 0. -1.
         25    1    1    2    0    0  0.85095195909E+02 -0.32588525446E+02  0.61900071639E+02  0.16661279431E+03  0.12500000000E+03 0.  0.
         25    1    1    2    0    0 -0.85095195909E+02  0.32588525446E+02 -0.13923276798E+03  0.20812008081E+03  0.12500000000E+03 0.  0.
</event>
<event>
 4    0  0.2193754E-002  0.2932175E+03  0.7546771E-02  0.1088681E+00
         21   -1    0    0  502  501  0.00000000000E+00  0.00000000000E+00  0.13931892595E+03  0.13931892595E+03  0.00000000000E+00 0.  1.
         21   -1    0    0  501  502 -0.00000000000E+00 -0.00000000000E+00 -0.61712019616E+03  0.61712019616E+03  0.00000000000E+00 0.  1.
         25    1    1    2    0    0  0.88069583859E+02  0.14502325231E+03 -0.50187308218E+03  0.54432489005E+03  0.12500000000E+03 0.  0.
         25    1    1    2    0    0 -0.88069583859E+02 -0.14502325231E+03  0.24071811971E+02  0.21211423206E+03  0.12500000000E+03 0.  0.
</event>
<event>
 4    0  0.2193754E-002  0.2199482E+03  0.7546771E-02  0.1133922E+00
         21   -1    0    0  502  501  0.00000000000E+00  0.00000000000E+00  0.11598110211E+03  0.11598110211E+03  0.00000000000E+00 0. -1.
         21   -1    0    0  501  502 -0.00000000000E+00 -0.00000000000E+00 -0.41711285287E+03  0.41711285287E+03  0.00000000000E+00 0. -1.
         25    1    1    2    0    0 -0.15126913459E+03 -0.89854508006E+02 -0.20192404196E+03  0.29555795102E+03  0.12500000000E+03 0.  0.
         25    1    1    2    0    0  0.15126913459E+03  0.89854508006E+02 -0.99207708804E+02  0.23753600396E+03  0.12500000000E+03 0.  0.
</event>
<event>
 4    0  0.2193754E-002  0.3722683E+03  0.7546771E-02  0.1053829E+00
         21   -1    0    0  502  501  0.00000000000E+00  0.00000000000E+00  0.31766518079E+03  0.31766518079E+03  0.00000000000E+00 0. -1.
         21   -1    0    0  501  502 -0.00000000000E+00 -0.00000000000E+00 -0.43625698332E+03  0.43625698332E+03  0.00000000000E+00 0. -1.
         25    1    1    2    0    0  0.27678108456E+02  0.18099762910E+03  0.24352652701E+03  0.32932717590E+03  0.12500000000E+03 0.  0.
         25    1    1    2    0    0 -0.27678108456E+02 -0.18099762910E+03 -0.36211832954E+03  0.42459498822E+03  0.12500000000E+03 0.  0.
</event>
<event>
 4    0  0.2193754E-002  0.2295117E+03  0.7546771E-02  0.1126984E+00
         21   -1    0    0  502  501  0.00000000000E+00  0.00000000000E+00  0.27954304553E+03  0.27954304553E+03  0.00000000000E+00 0. -1.
         21   -1    0    0  501  502 -0.00000000000E+00 -0.00000000000E+00 -0.18843474190E+03  0.18843474190E+03  0.00000000000E+00 0. -1.
         25    1    1    2    0    0  0.80143308001E+02 -0.13291636111E+03  0.16162100318E+03  0.25658538060E+03  0.12500000000E+03 0.  0.
         25    1    1    2    0    0 -0.80143308001E+02  0.13291636111E+03 -0.70512699553E+02  0.21139240683E+03  0.12500000000E+03 0.  0.
</event>
<event>
 4    0  0.2193754E-002  0.1814385E+03  0.7546771E-02  0.1166418E+00
         21   -1    0    0  502  501  0.00000000000E+00  0.00000000000E+00  0.11028601381E+03  0.11028601381E+03  0.00000000000E+00 0.  1.
         21   -1    0    0  501  502 -0.00000000000E+00 -0.00000000000E+00 -0.29849606065E+03  0.29849606065E+03  0.00000000000E+00 0.  1.
         25    1    1    2    0    0 -0.10157096694E+03  0.47921187044E+02 -0.17118482203E+03  0.23987985490E+03  0.12500000000E+03 0.  0.
         25    1    1    2    0    0  0.10157096694E+03 -0.47921187044E+02 -0.17025224806E+02  0.16890221956E+03  0.12500000000E+03 0.  0.
</event>
<event>
 4    0  0.2193754E-002  0.4608313E+03  0.7546771E-02  0.1024540E+00
         21   -1    0    0  502  501  0.00000000000E+00  0.00000000000E+00  0.69594549128E+03  0.69594549128E+03  0.00000000000E+00 0. -1.
         21   -1    0    0  501  502 -0.00000000000E+00 -0.00000000000E+00 -0.30514675161E+03  0.30514675161E+03  0.00000000000E+00 0.  1.
         25    1    1    2    0    0  0.40504997274E+03 -0.14952742166E+03  0.85075395856E+02  0.45747869155E+03  0.12500000000E+03 0.  0.
         25    1    1    2    0    0 -0.40504997274E+03  0.14952742166E+03  0.30572334381E+03  0.54361355134E+03  0.12500000000E+03 0.  0.
</event>
<event>
 4    0  0.2193754E-002  0.2308176E+03  0.7546771E-02  0.1126066E+00
         21   -1    0    0  502  501  0.00000000000E+00  0.00000000000E+00  0.65297860560E+02  0.65297860560E+02  0.00000000000E+00 0. -1.
         21   -1    0    0  501  502 -0.00000000000E+00 -0.00000000000E+00 -0.81590376142E+03  0.81590376142E+03  0.00000000000E+00 0. -1.
         25    1    1    2    0    0 -0.11075624541E+03 -0.15457760623E+03 -0.30160504764E+03  0.37782507461E+03  0.12500000000E+03 0.  0.
         25    1    1    2    0    0  0.11075624541E+03  0.15457760623E+03 -0.44900085323E+03  0.50337654737E+03  0.12500000000E+03 0.  0.
</event>
<event>
 4    0  0.2193754E-002  0.2675132E+03  0.7546771E-02  0.1102711E+00
         21   -1    0    0  502  501  0.00000000000E+00  0.00000000000E+00  0.31799080450E+02  0.31799080450E+02  0.00000000000E+00 0. -1.
         21   -1    0    0  501  502 -0.00000000000E+00 -0.00000000000E+00 -0.22504829685E+04  0.22504829685E+04  0.00000000000E+00 0. -1.
         25    1    1    2    0    0 -0.11678823415E+03  0.20221481923E+03 -0.12694045859E+04  0.12967433545E+04  0.12500000000E+03 0.  0.
         25    1    1    2    0    0  0.11678823415E+03 -0.20221481923E+03 -0.94927930217E+03  0.98553869446E+03  0.12500000000E+03 0.  0.
</event>
<event>
 4    0  0.2193754E-002  0.2770535E+03  0.7546771E-02  0.1097309E+00
         21   -1    0    0  502  501  0.00000000000E+00  0.00000000000E+00  0.85261643105E+03  0.85261643105E+03  0.00000000000E+00 0.  1.
         21   -1    0    0  501  502 -0.00000000000E+00 -0.00000000000E+00 -0.90027182386E+02  0.90027182386E+02  0.00000000000E+00 0.  1.
         25    1    1    2    0    0 -0.16303881038E+03  0.17634182039E+03  0.48129768755E+03  0.55222328397E+03  0.12500000000E+03 0.  0.
         25    1    1    2    0    0  0.16303881038E+03 -0.17634182039E+03  0.28129156111E+03  0.39042032947E+03  0.12500000000E+03 0.  0.
</event>
<event>
 4    0  0.2193754E-002  0.2084202E+03  0.7546771E-02  0.1142823E+00
         21   -1    0    0  502  501  0.00000000000E+00  0.00000000000E+00  0.60785453265E+03  0.60785453265E+03  0.00000000000E+00 0. -1.
         21   -1    0    0  501  502 -0.00000000000E+00 -0.00000000000E+00 -0.71462783893E+02  0.71462783893E+02  0.00000000000E+00 0. -1.
         25    1    1    2    0    0  0.11002276690E+03 -0.12357428259E+03  0.30231678458E+03  0.36660066939E+03  0.12500000000E+03 0.  0.
         25    1    1    2    0    0 -0.11002276690E+03  0.12357428259E+03  0.23407496417E+03  0.31271664715E+03  0.12500000000E+03 0.  0.
</event>
<event>
 4    0  0.2193754E-002  0.2294101E+03  0.7546771E-02  0.1127056E+00
         21   -1    0    0  502  501  0.00000000000E+00  0.00000000000E+00  0.56692006524E+02  0.56692006524E+02  0.00000000000E+00 0. -1.
         21   -1    0    0  501  502 -0.00000000000E+00 -0.00000000000E+00 -0.92833156992E+03  0.92833156992E+03  0.00000000000E+00 0. -1.
         25    1    1    2    0    0 -0.75766873140E+02 -0.16586576895E+03 -0.56732112542E+03  0.60887628605E+03  0.12500000000E+03 0.  0.
         25    1    1    2    0    0  0.75766873140E+02  0.16586576895E+03 -0.30431843798E+03  0.37614729039E+03  0.12500000000E+03 0.  0.
</event>
<event>
 4    0  0.2193754E-002  0.3285856E+03  0.7546771E-02  0.1071764E+00
         21   -1    0    0  502  501  0.00000000000E+00  0.00000000000E+00  0.11125679426E+03  0.11125679426E+03  0.00000000000E+00 0.  1.
         21   -1    0    0  501  502 -0.00000000000E+00 -0.00000000000E+00 -0.97044429537E+03  0.97044429537E+03  0.00000000000E+00 0.  1.
         25    1    1    2    0    0  0.19040408262E+03  0.22032457626E+03 -0.57258604648E+03  0.65442831097E+03  0.12500000000E+03 0.  0.
         25    1    1    2    0    0 -0.19040408262E+03 -0.22032457626E+03 -0.28660145464E+03  0.42727277866E+03  0.12500000000E+03 0.  0.
</event>
<event>
 4    0  0.2193754E-002  0.2512614E+03  0.7546771E-02  0.1112510E+00
         21   -1    0    0  502  501  0.00000000000E+00  0.00000000000E+00  0.12647320133E+04  0.12647320133E+04  0.00000000000E+00 0. -1.
         21   -1    0    0  501  502 -0.00000000000E+00 -0.00000000000E+00 -0.49917506163E+02  0.49917506163E+02  0.00000000000E+00 0. -1.
         25    1    1    2    0    0 -0.15013901922E+03  0.85603500950E+02  0.25997203624E+03  0.33627391230E+03  0.12500000000E+03 0.  0.
         25    1    1    2    0    0  0.15013901922E+03 -0.85603500950E+02  0.95484247085E+03  0.97837560712E+03  0.12500000000E+03 0.  0.
</event>
<event>
 4    0  0.2193754E-002  0.2145419E+03  0.7546771E-02  0.1138019E+00
         21   -1    0    0  502  501  0.00000000000E+00  0.00000000000E+00  0.78553027347E+03  0.78553027347E+03  0.00000000000E+00 0. -1.
         21   -1    0    0  501  502 -0.00000000000E+00 -0.00000000000E+00 -0.58595100416E+02  0.58595100416E+02  0.00000000000E+00 0. -1.
         25    1    1    2    0    0  0.26331852848E+02  0.14659479236E+03  0.18510812727E+03  0.26846492956E+03  0.12500000000E+03 0.  0.
         25    1    1    2    0    0 -0.26331852848E+02 -0.14659479236E+03  0.54182704579E+03  0.57566044433E+03  0.12500000000E+03 0.  0.
</event>
<event>
 4    0  0.2193754E-002  0.1740196E+03  0.7546771E-02  0.1173720E+00
         21   -1    0    0  502  501  0.00000000000E+00  0.00000000000E+00  0.30749910188E+04  0.30749910188E+04  0.00000000000E+00 0. -1.
         21   -1    0    0  501  502 -0.00000000000E+00 -0.00000000000E+00 -0.98481038285E+01  0.98481038285E+01  0.00000000000E+00 0. -1.
         25    1    1    2    0    0 -0.37314639136E+02  0.90466601610E+02  0.90075744838E+03  0.91463958427E+03  0.12500000000E+03 0.  0.
         25    1    1    2    0    0  0.37314639136E+02 -0.90466601610E+02  0.21643854666E+04  0.21701995383E+04  0.12500000000E+03 0.  0.
</event>
<event>
 4    0  0.2193754E-002  0.1648178E+03  0.7546771E-02  0.1183362E+00
         21   -1    0    0  502  501  0.00000000000E+00  0.00000000000E+00  0.59556073049E+03  0.59556073049E+03  0.00000000000E+00 0. -1.
         21   -1    0    0  501  502 -0.00000000000E+00 -0.00000000000E+00 -0.45612346665E+02  0.45612346665E+02  0.00000000000E+00 0. -1.
         25    1    1    2    0    0  0.60220817422E+02  0.15260266948E+02  0.10450896883E+03  0.17437473201E+03  0.12500000000E+03 0.  0.
         25    1    1    2    0    0 -0.60220817422E+02 -0.15260266948E+02  0.44543941499E+03  0.46679834514E+03  0.12500000000E+03 0.  0.
</event>
<event>
 4    0  0.2193754E-002  0.1730460E+03  0.7546771E-02  0.1174708E+00
         21   -1    0    0  502  501  0.00000000000E+00  0.00000000000E+00  0.11179360399E+04  0.11179360399E+04  0.00000000000E+00 0.  1.
         21   -1    0    0  501  502 -0.00000000000E+00 -0.00000000000E+00 -0.26785903885E+02  0.26785903885E+02  0.00000000000E+00 0.  1.
         25    1    1    2    0    0 -0.46585601153E+02  0.10778688781E+03  0.62184266007E+03  0.64505931922E+03  0.12500000000E+03 0.  0.
         25    1    1    2    0    0  0.46585601153E+02 -0.10778688781E+03  0.46930747596E+03  0.49966262459E+03  0.12500000000E+03 0.  0.
</event>
<event>
 4    0  0.2193754E-002  0.1845442E+03  0.7546771E-02  0.1163476E+00
         21   -1    0    0  502  501  0.00000000000E+00  0.00000000000E+00  0.49906741068E+03  0.49906741068E+03  0.00000000000E+00 0. -1.
         21   -1    0    0  501  502 -0.00000000000E+00 -0.00000000000E+00 -0.68240427472E+02  0.68240427472E+02  0.00000000000E+00 0. -1.
         25    1    1    2    0    0 -0.86719937372E+02 -0.10361065982E+03  0.23580808526E+03  0.29914205562E+03  0.12500000000E+03 0.  0.
         25    1    1    2    0    0  0.86719937372E+02  0.10361065982E+03  0.19501889795E+03  0.26816578253E+03  0.12500000000E+03 0.  0.
</event>
<event>
 4    0  0.2193754E-002  0.2036134E+03  0.7546771E-02  0.1146726E+00
         21   -1    0    0  502  501  0.00000000000E+00  0.00000000000E+00  0.50653173253E+03  0.50653173253E+03  0.00000000000E+00 0. -1.
         21   -1    0    0  501  502 -0.00000000000E+00 -0.00000000000E+00 -0.81847633061E+02  0.81847633061E+02  0.00000000000E+00 0. -1.
         25    1    1    2    0    0  0.15605130939E+03  0.36582203161E+02  0.19505488622E+03  0.28171204694E+03  0.12500000000E+03 0.  0.
         25    1    1    2    0    0 -0.15605130939E+03 -0.36582203161E+02  0.22962921324E+03  0.30666731865E+03  0.12500000000E+03 0.  0.
</event>
<event>
 4    0  0.2193754E-002  0.1902873E+03  0.7546771E-02  0.1158202E+00
         21   -1    0    0  502  501  0.00000000000E+00  0.00000000000E+00  0.14428155510E+03  0.14428155510E+03  0.00000000000E+00 0. -1.
         21   -1    0    0  501  502 -0.00000000000E+00 -0.00000000000E+00 -0.25096246418E+03  0.25096246418E+03  0.00000000000E+00 0. -1.
         25    1    1    2    0    0  0.84424883153E+00 -0.10064857816E+02  0.95292205230E+02  0.15750434437E+03  0.12500000000E+03 0.  0.
         25    1    1    2    0    0 -0.84424883153E+00  0.10064857816E+02 -0.20197311432E+03  0.23773967491E+03  0.12500000000E+03 0.  0.
</event>
<event>
 4    0  0.2193754E-002  0.2719363E+03  0.7546771E-02  0.1100176E+00
         21   -1    0    0  502  501  0.00000000000E+00  0.00000000000E+00  0.57756962616E+02  0.57756962616E+02  0.00000000000E+00 0.  1.
         21   -1    0    0  501  502 -0.00000000000E+00 -0.00000000000E+00 -0.12803541368E+04  0.12803541368E+04  0.00000000000E+00 0.  1.
         25    1    1    2    0    0  0.14609278371E+03 -0.10672699425E+03 -0.21771652507E+03  0.30944989585E+03  0.12500000000E+03 0.  0.
         25    1    1    2    0    0 -0.14609278371E+03  0.10672699425E+03 -0.10048806491E+04  0.10286612035E+04  0.12500000000E+03 0.  0.
</event>
<event>
 4    0  0.2193754E-002  0.3449843E+03  0.7546771E-02  0.1064693E+00
         21   -1    0    0  502  501  0.00000000000E+00  0.00000000000E+00  0.24731427508E+03  0.24731427508E+03  0.00000000000E+00 0.  1.
         21   -1    0    0  501  502 -0.00000000000E+00 -0.00000000000E+00 -0.48122651152E+03  0.48122651152E+03  0.00000000000E+00 0.  1.
         25    1    1    2    0    0  0.26982043084E+03 -0.17403212942E+03 -0.13521254193E+03  0.37013197439E+03  0.12500000000E+03 0.  0.
         25    1    1    2    0    0 -0.26982043084E+03  0.17403212942E+03 -0.98699694510E+02  0.35840881221E+03  0.12500000000E+03 0.  0.
</event>
<event>
 4    0  0.2193754E-002  0.1758936E+03  0.7546771E-02  0.1171837E+00
         21   -1    0    0  502  501  0.00000000000E+00  0.00000000000E+00  0.76678246948E+02  0.76678246948E+02  0.00000000000E+00 0. -1.
         21   -1    0    0  501  502 -0.00000000000E+00 -0.00000000000E+00 -0.40348528927E+03  0.40348528927E+03  0.00000000000E+00 0. -1.
         25    1    1    2    0    0 -0.87429693068E+02 -0.33654021440E+02 -0.27376016689E+03  0.31519227999E+03  0.12500000000E+03 0.  0.
         25    1    1    2    0    0  0.87429693068E+02  0.33654021440E+02 -0.53046875435E+02  0.16497125623E+03  0.12500000000E+03 0.  0.
</event>
<event>
 4    0  0.2193754E-002  0.1682114E+03  0.7546771E-02  0.1179726E+00
         21   -1    0    0  502  501  0.00000000000E+00  0.00000000000E+00  0.78341628297E+02  0.78341628297E+02  0.00000000000E+00 0.  1.
         21   -1    0    0  501  502 -0.00000000000E+00 -0.00000000000E+00 -0.36117546462E+03  0.36117546462E+03  0.00000000000E+00 0.  1.
         25    1    1    2    0    0  0.94868074534E+02 -0.44329700732E+02 -0.19536208703E+03  0.25447282563E+03  0.12500000000E+03 0.  0.
         25    1    1    2    0    0 -0.94868074534E+02  0.44329700732E+02 -0.87471749288E+02  0.18504426729E+03  0.12500000000E+03 0.  0.
</event>
<event>
 4    0  0.2193754E-002  0.2336977E+03  0.7546771E-02  0.1124064E+00
         21   -1    0    0  502  501  0.00000000000E+00  0.00000000000E+00  0.46157186697E+03  0.46157186697E+03  0.00000000000E+00 0. -1.
         21   -1    0    0  501  502 -0.00000000000E+00 -0.00000000000E+00 -0.11832313450E+03  0.11832313450E+03  0.00000000000E+00 0. -1.
         25    1    1    2    0    0  0.35033239070E+02 -0.11864015804E+03 -0.19324993643E+02  0.17692165023E+03  0.12500000000E+03 0.  0.
         25    1    1    2    0    0 -0.35033239070E+02  0.11864015804E+03  0.36257372612E+03  0.40297335124E+03  0.12500000000E+03 0.  0.
</event>
<event>
 4    0  0.2193754E-002  0.2489659E+03  0.7546771E-02  0.1113960E+00
         21   -1    0    0  502  501  0.00000000000E+00  0.00000000000E+00  0.21453409319E+03  0.21453409319E+03  0.00000000000E+00 0. -1.
         21   -1    0    0  501  502 -0.00000000000E+00 -0.00000000000E+00 -0.28892382563E+03  0.28892382563E+03  0.00000000000E+00 0. -1.
         25    1    1    2    0    0 -0.23644325776E+02  0.20141341314E+03 -0.11033434377E+03  0.26253587288E+03  0.12500000000E+03 0.  0.
         25    1    1    2    0    0  0.23644325776E+02 -0.20141341314E+03  0.35944611331E+02  0.24092204594E+03  0.12500000000E+03 0.  0.
</event>
<event>
 4    0  0.2193754E-002  0.2453569E+03  0.7546771E-02  0.1116275E+00
         21   -1    0    0  502  501  0.00000000000E+00  0.00000000000E+00  0.13050839754E+04  0.13050839754E+04  0.00000000000E+00 0.  1.
         21   -1    0    0  501  502 -0.00000000000E+00 -0.00000000000E+00 -0.46127306213E+02  0.46127306213E+02  0.00000000000E+00 0.  1.
         25    1    1    2    0    0 -0.56610140254E+02  0.12683117115E+03  0.19163453179E+03  0.26765583821E+03  0.12500000000E+03 0.  0.
         25    1    1    2    0    0  0.56610140254E+02 -0.12683117115E+03  0.10673221374E+04  0.10835554434E+04  0.12500000000E+03 0.  0.
</event>
<event>
 4    0  0.2193754E-002  0.2175793E+03  0.7546771E-02  0.1135701E+00
         21   -1    0    0  502  501  0.00000000000E+00  0.00000000000E+00  0.89966330200E+02  0.89966330200E+02  0.00000000000E+00 0. -1.
         21   -1    0    0  501  502 -0.00000000000E+00 -0.00000000000E+00 -0.52620532107E+03  0.52620532107E+03  0.00000000000E+00 0. -1.
         25    1    1    2    0    0 -0.11402589331E+03  0.12672348730E+03 -0.29107996060E+03  0.35974058715E+03  0.12500000000E+03 0.  0.
         25    1    1    2    0    0  0.11402589331E+03 -0.12672348730E+03 -0.14515903026E+03  0.25643106412E+03  0.12500000000E+03 0.  0.
</event>
<event>
 4    0  0.2193754E-002  0.3395708E+03  0.7546771E-02  0.1066979E+00
         21   -1    0    0  502  501  0.00000000000E+00  0.00000000000E+00  0.71113633861E+02  0.71113633861E+02  0.00000000000E+00 0.  1.
         21   -1    0    0  501  502 -0.00000000000E+00 -0.00000000000E+00 -0.16214660753E+04  0.16214660753E+04  0.00000000000E+00 0.  1.
         25    1    1    2    0    0 -0.18322568948E+03  0.17839560966E+03 -0.12366548526E+04  0.12689904930E+04  0.12500000000E+03 0.  0.
         25    1    1    2    0    0  0.18322568948E+03 -0.17839560966E+03 -0.31369758891E+03  0.42358921624E+03  0.12500000000E+03 0.  0.
</event>
<event>
 4    0  0.2193754E-002  0.2618304E+03  0.7546771E-02  0.1106048E+00
         21   -1    0    0  502  501  0.00000000000E+00  0.00000000000E+00  0.24909252691E+03  0.24909252691E+03  0.00000000000E+00 0.  1.
         21   -1    0    0  501  502 -0.00000000000E+00 -0.00000000000E+00 -0.27521971375E+03  0.27521971375E+03  0.00000000000E+00 0.  1.
         25    1    1    2    0    0  0.74879645163E+02  0.15216340001E+02 -0.23033969223E+03  0.27298328168E+03  0.12500000000E+03 0.  0.
         25    1    1    2    0    0 -0.74879645163E+02 -0.15216340001E+02  0.20421250539E+03  0.25132895898E+03  0.12500000000E+03 0.  0.
</event>
<event>
 4    0  0.2193754E-002  0.1985402E+03  0.7546771E-02  0.1150977E+00
         21   -1    0    0  502  501  0.00000000000E+00  0.00000000000E+00  0.54870839669E+03  0.54870839669E+03  0.00000000000E+00 0. -1.
         21   -1    0    0  501  502 -0.00000000000E+00 -0.00000000000E+00 -0.71838170916E+02  0.71838170916E+02  0.00000000000E+00 0. -1.
         25    1    1    2    0    0 -0.14750541326E+03  0.21890838803E+02  0.30008352974E+03  0.35764812398E+03  0.12500000000E+03 0.  0.
         25    1    1    2    0    0  0.14750541326E+03 -0.21890838803E+02  0.17678669603E+03  0.26289844362E+03  0.12500000000E+03 0.  0.
</event>
<event>
 4    0  0.2193754E-002  0.2459958E+03  0.7546771E-02  0.1115862E+00
         21   -1    0    0  502  501  0.00000000000E+00  0.00000000000E+00  0.61912225608E+03  0.61912225608E+03  0.00000000000E+00 0.  1.
         21   -1    0    0  501  502 -0.00000000000E+00 -0.00000000000E+00 -0.97741522594E+02  0.97741522594E+02  0.00000000000E+00 0.  1.
         25    1    1    2    0    0 -0.17133724053E+03 -0.90156774235E+02  0.38606788133E+03  0.44961995388E+03  0.12500000000E+03 0.  0.
         25    1    1    2    0    0  0.17133724053E+03  0.90156774235E+02  0.13531285216E+03  0.26724382480E+03  0.12500000000E+03 0.  0.
</event>
<event>
 4    0  0.2193754E-002  0.1995599E+03  0.7546771E-02  0.1150111E+00
         21   -1    0    0  502  501  0.00000000000E+00  0.00000000000E+00  0.28713451186E+03  0.28713451186E+03  0.00000000000E+00 0. -1.
         21   -1    0    0  501  502 -0.00000000000E+00 -0.00000000000E+00 -0.13869513169E+03  0.13869513169E+03  0.00000000000E+00 0. -1.
         25    1    1    2    0    0 -0.43798953531E+02  0.18363420118E+02 -0.83827392179E+02  0.15782140288E+03  0.12500000000E+03 0.  0.
         25    1    1    2    0    0  0.43798953531E+02 -0.18363420118E+02  0.23226677235E+03  0.26800824067E+03  0.12500000000E+03 0.  0.
</event>
<event>
 4    0  0.2193754E-002  0.2263978E+03  0.7546771E-02  0.1129201E+00
         21   -1    0    0  502  501  0.00000000000E+00  0.00000000000E+00  0.54261070792E+03  0.54261070792E+03  0.00000000000E+00 0.  1.
         21   -1    0    0  501  502 -0.00000000000E+00 -0.00000000000E+00 -0.94461751162E+02  0.94461751162E+02  0.00000000000E+00 0.  1.
         25    1    1    2    0    0  0.68543255463E+02  0.89039571261E+02  0.10674057270E+02  0.16841959096E+03  0.12500000000E+03 0.  0.
         25    1    1    2    0    0 -0.68543255463E+02 -0.89039571261E+02  0.43747489949E+03  0.46865286813E+03  0.12500000000E+03 0.  0.
</event>
<event>
 4    0  0.2193754E-002  0.2158948E+03  0.7546771E-02  0.1136981E+00
         21   -1    0    0  502  501  0.00000000000E+00  0.00000000000E+00  0.22300527822E+03  0.22300527822E+03  0.00000000000E+00 0. -1.
         21   -1    0    0  501  502 -0.00000000000E+00 -0.00000000000E+00 -0.20901107974E+03  0.20901107974E+03  0.00000000000E+00 0. -1.
         25    1    1    2    0    0 -0.16385086812E+03  0.12367983303E+02 -0.56166864645E+02  0.21396212440E+03  0.12500000000E+03 0.  0.
         25    1    1    2    0    0  0.16385086812E+03 -0.12367983303E+02  0.70161063122E+02  0.21805423356E+03  0.12500000000E+03 0.  0.
</event>
<event>
 4    0  0.2193754E-002  0.1856587E+03  0.7546771E-02  0.1162436E+00
         21   -1    0    0  502  501  0.00000000000E+00  0.00000000000E+00  0.65593878165E+02  0.65593878165E+02  0.00000000000E+00 0.  1.
         21   -1    0    0  501  502 -0.00000000000E+00 -0.00000000000E+00 -0.52549369388E+03  0.52549369388E+03  0.00000000000E+00 0.  1.
         25    1    1    2    0    0  0.11053929589E+03 -0.70012302203E+02 -0.29603651343E+03  0.34696293127E+03  0.12500000000E+03 0.  0.
         25    1    1    2    0    0 -0.11053929589E+03  0.70012302203E+02 -0.16386330228E+03  0.24412464077E+03  0.12500000000E+03 0.  0.
</event>
<event>
 4    0  0.2193754E-002  0.1801454E+03  0.7546771E-02  0.1167662E+00
         21   -1    0    0  502  501  0.00000000000E+00  0.00000000000E+00  0.62199495902E+02  0.62199495902E+02  0.00000000000E+00 0. -1.
         21   -1    0    0  501  502 -0.00000000000E+00 -0.00000000000E+00 -0.52174627686E+03  0.52174627686E+03  0.00000000000E+00 0. -1.
         25    1    1    2    0    0 -0.11362458832E+01 -0.36413642156E+02 -0.27989349152E+02  0.13317525317E+03  0.12500000000E+03 0.  0.
         25    1    1    2    0    0  0.11362458832E+01  0.36413642156E+02 -0.43155743181E+03  0.45077051960E+03  0.12500000000E+03 0.  0.
</event>
<event>
 4    0  0.2193754E-002  0.3633277E+03  0.7546771E-02  0.1057274E+00
         21   -1    0    0  502  501  0.00000000000E+00  0.00000000000E+00  0.47029097192E+03  0.47029097192E+03  0.00000000000E+00 0.  1.
         21   -1    0    0  501  502 -0.00000000000E+00 -0.00000000000E+00 -0.28069225866E+03  0.28069225866E+03  0.00000000000E+00 0.  1.
         25    1    1    2    0    0 -0.55736147095E+02 -0.32861288101E+03  0.19638409439E+02  0.35651593342E+03  0.12500000000E+03 0.  0.
         25    1    1    2    0    0  0.55736147095E+02  0.32861288101E+03  0.16996030382E+03  0.39446729716E+03  0.12500000000E+03 0.  0.
</event>
<event>
 4    0  0.2193754E-002  0.2924644E+03  0.7546771E-02  0.1089069E+00
         21   -1    0    0  502  501  0.00000000000E+00  0.00000000000E+00  0.61378762583E+02  0.61378762583E+02  0.00000000000E+00 0.  1.
         21   -1    0    0  501  502 -0.00000000000E+00 -0.00000000000E+00 -0.13935670893E+04  0.13935670893E+04  0.00000000000E+00 0.  1.
         25    1    1    2    0    0  0.79953191653E+02 -0.13359796849E+03 -0.11976598360E+04  0.12141890351E+04  0.12500000000E+03 0.  0.
         25    1    1    2    0    0 -0.79953191653E+02  0.13359796849E+03 -0.13452849071E+03  0.24075681683E+03  0.12500000000E+03 0.  0.
</event>
<event>
 4    0  0.2193754E-002  0.2511213E+03  0.7546771E-02  0.1112598E+00
         21   -1    0    0  502  501  0.00000000000E+00  0.00000000000E+00  0.24019526312E+03  0.24019526312E+03  0.00000000000E+00 0. -1.
         21   -1    0    0  501  502 -0.00000000000E+00 -0.00000000000E+00 -0.26254424450E+03  0.26254424450E+03  0.00000000000E+00 0. -1.
         25    1    1    2    0    0 -0.45847805007E+02 -0.13388489152E+03 -0.17689706793E+03  0.25873685096E+03  0.12500000000E+03 0.  0.
         25    1    1    2    0    0  0.45847805007E+02  0.13388489152E+03  0.15454808655E+03  0.24400265666E+03  0.12500000000E+03 0.  0.
</event>
<event>
 4    0  0.2193754E-002  0.1935704E+03  0.7546771E-02  0.1155280E+00
         21   -1    0    0  502  501  0.00000000000E+00  0.00000000000E+00  0.43030694132E+03  0.43030694132E+03  0.00000000000E+00 0.  1.
         21   -1    0    0  501  502 -0.00000000000E+00 -0.00000000000E+00 -0.87076233810E+02  0.87076233810E+02  0.00000000000E+00 0.  1.
         25    1    1    2    0    0  0.32353373850E+02 -0.29360195773E+02  0.36030999071E+03  0.38387113893E+03  0.12500000000E+03 0.  0.
         25    1    1    2    0    0 -0.32353373850E+02  0.29360195773E+02 -0.17079283205E+02  0.13351203620E+03  0.12500000000E+03 0.  0.
</event>
<event>
 4    0  0.2193754E-002  0.2126667E+03  0.7546771E-02  0.1139471E+00
         21   -1    0    0  502  501  0.00000000000E+00  0.00000000000E+00  0.45858451034E+03  0.45858451034E+03  0.00000000000E+00 0.  1.
         21   -1    0    0  501  502 -0.00000000000E+00 -0.00000000000E+00 -0.98623344778E+02  0.98623344778E+02  0.00000000000E+00 0.  1.
         25    1    1    2    0    0  0.52669894208E+02  0.40671180581E+02 -0.27875491606E+02  0.14432707895E+03  0.12500000000E+03 0.  0.
         25    1    1    2    0    0 -0.52669894208E+02 -0.40671180581E+02  0.38783665717E+03  0.41288077617E+03  0.12500000000E+03 0.  0.
</event>
<event>
 4    0  0.2193754E-002  0.2686203E+03  0.7546771E-02  0.1102072E+00
         21   -1    0    0  502  501  0.00000000000E+00  0.00000000000E+00  0.29346107178E+03  0.29346107178E+03  0.00000000000E+00 0.  1.
         21   -1    0    0  501  502 -0.00000000000E+00 -0.00000000000E+00 -0.24588233031E+03  0.24588233031E+03  0.00000000000E+00 0.  1.
         25    1    1    2    0    0 -0.35144376682E+02  0.23443698596E+03  0.53855565297E+01  0.26804818935E+03  0.12500000000E+03 0.  0.
         25    1    1    2    0    0  0.35144376682E+02 -0.23443698596E+03  0.42193184936E+02  0.27129521273E+03  0.12500000000E+03 0.  0.
</event>
<event>
 4    0  0.2193754E-002  0.1898626E+03  0.7546771E-02  0.1158585E+00
         21   -1    0    0  502  501  0.00000000000E+00  0.00000000000E+00  0.54992219948E+02  0.54992219948E+02  0.00000000000E+00 0. -1.
         21   -1    0    0  501  502 -0.00000000000E+00 -0.00000000000E+00 -0.65550762603E+03  0.65550762603E+03  0.00000000000E+00 0. -1.
         25    1    1    2    0    0  0.87058752670E+02 -0.11010313992E+03 -0.25002003076E+03  0.31278897618E+03  0.12500000000E+03 0.  0.
         25    1    1    2    0    0 -0.87058752670E+02  0.11010313992E+03 -0.35049537532E+03  0.39771086980E+03  0.12500000000E+03 0.  0.
</event>
<event>
 4    0  0.2193754E-002  0.2530639E+03  0.7546771E-02  0.1111384E+00
         21   -1    0    0  502  501  0.00000000000E+00  0.00000000000E+00  0.22577364089E+02  0.22577364089E+02  0.00000000000E+00 0. -1.
         21   -1    0    0  501  502 -0.00000000000E+00 -0.00000000000E+00 -0.28365283616E+04  0.28365283616E+04  0.00000000000E+00 0. -1.
         25    1    1    2    0    0 -0.17681680512E+03  0.12978898945E+03 -0.13080023366E+04  0.13321428140E+04  0.12500000000E+03 0.  0.
         25    1    1    2    0    0  0.17681680512E+03 -0.12978898945E+03 -0.15059486609E+04  0.15269629117E+04  0.12500000000E+03 0.  0.
</event>
<event>
 4    0  0.2193754E-002  0.4959420E+03  0.7546771E-02  0.1014844E+00
         21   -1    0    0  502  501  0.00000000000E+00  0.00000000000E+00  0.13325190113E+04  0.13325190113E+04  0.00000000000E+00 0.  1.
         21   -1    0    0  501  502 -0.00000000000E+00 -0.00000000000E+00 -0.18458155799E+03  0.18458155799E+03  0.00000000000E+00 0. -1.
         25    1    1    2    0    0 -0.19578650872E+03 -0.21981377800E+03  0.11537393154E+04  0.11972426077E+04  0.12500000000E+03 0.  0.
         25    1    1    2    0    0  0.19578650872E+03  0.21981377800E+03 -0.58018620029E+01  0.31985796159E+03  0.12500000000E+03 0.  0.
</event>
<event>
 4    0  0.2193754E-002  0.2649687E+03  0.7546771E-02  0.1104194E+00
         21   -1    0    0  502  501  0.00000000000E+00  0.00000000000E+00  0.27900682158E+04  0.27900682158E+04  0.00000000000E+00 0. -1.
         21   -1    0    0  501  502 -0.00000000000E+00 -0.00000000000E+00 -0.25163684624E+02  0.25163684624E+02  0.00000000000E+00 0.  1.
         25    1    1    2    0    0  0.21074198661E+03 -0.98071882451E+02  0.15073913723E+04  0.15303215441E+04  0.12500000000E+03 0.  0.
         25    1    1    2    0    0 -0.21074198661E+03  0.98071882451E+02  0.12575131589E+04  0.12849103563E+04  0.12500000000E+03 0.  0.
</event>
<event>
 4    0  0.2193754E-002  0.1557708E+03  0.7546771E-02  0.1193556E+00
         21   -1    0    0  502  501  0.00000000000E+00  0.00000000000E+00  0.87153498499E+02  0.87153498499E+02  0.00000000000E+00 0.  1.
         21   -1    0    0  501  502 -0.00000000000E+00 -0.00000000000E+00 -0.27841173499E+03  0.27841173499E+03  0.00000000000E+00 0.  1.
         25    1    1    2    0    0 -0.50546786953E+02 -0.92015271142E+01 -0.18652016646E+03  0.23033544727E+03  0.12500000000E+03 0.  0.
         25    1    1    2    0    0  0.50546786953E+02  0.92015271142E+01 -0.47380700271E+01  0.13522978622E+03  0.12500000000E+03 0.  0.
</event>
<event>
 4    0  0.2193754E-002  0.2988450E+03  0.7546771E-02  0.1085819E+00
         21   -1    0    0  502  501  0.00000000000E+00  0.00000000000E+00  0.18965921659E+04  0.18965921659E+04  0.00000000000E+00 0. -1.
         21   -1    0    0  501  502 -0.00000000000E+00 -0.00000000000E+00 -0.47088837847E+02  0.47088837847E+02  0.00000000000E+00 0. -1.
         25    1    1    2    0    0 -0.14252407424E+03  0.17469945710E+03  0.14163326429E+04  0.14396027811E+04  0.12500000000E+03 0.  0.
         25    1    1    2    0    0  0.14252407424E+03 -0.17469945710E+03  0.43317068510E+03  0.50407822258E+03  0.12500000000E+03 0.  0.
</event>
<event>
 4    0  0.2193754E-002  0.1854382E+03  0.7546771E-02  0.1162641E+00
         21   -1    0    0  502  501  0.00000000000E+00  0.00000000000E+00  0.11576301442E+02  0.11576301442E+02  0.00000000000E+00 0.  1.
         21   -1    0    0  501  502 -0.00000000000E+00 -0.00000000000E+00 -0.29704920350E+04  0.29704920350E+04  0.00000000000E+00 0.  1.
         25    1    1    2    0    0  0.97198982611E+02  0.22424766854E+02 -0.72467718996E+03  0.74211356411E+03  0.12500000000E+03 0.  0.
         25    1    1    2    0    0 -0.97198982611E+02 -0.22424766854E+02 -0.22342385436E+04  0.22399547723E+04  0.12500000000E+03 0.  0.
</event>
<event>
 4    0  0.2193754E-002  0.1879020E+03  0.7546771E-02  0.1160367E+00
         21   -1    0    0  502  501  0.00000000000E+00  0.00000000000E+00  0.29557813202E+02  0.29557813202E+02  0.00000000000E+00 0. -1.
         21   -1    0    0  501  502 -0.00000000000E+00 -0.00000000000E+00 -0.11945119735E+04  0.11945119735E+04  0.00000000000E+00 0. -1.
         25    1    1    2    0    0  0.68699801016E+02  0.10294260076E+03 -0.79768231191E+03  0.81684693330E+03  0.12500000000E+03 0.  0.
         25    1    1    2    0    0 -0.68699801016E+02 -0.10294260076E+03 -0.36727184836E+03  0.40722285337E+03  0.12500000000E+03 0.  0.
</event>
<event>
 4    0  0.2193754E-002  0.2267057E+03  0.7546771E-02  0.1128980E+00
         21   -1    0    0  502  501  0.00000000000E+00  0.00000000000E+00  0.34078316725E+03  0.34078316725E+03  0.00000000000E+00 0. -1.
         21   -1    0    0  501  502 -0.00000000000E+00 -0.00000000000E+00 -0.15081580594E+03  0.15081580594E+03  0.00000000000E+00 0. -1.
         25    1    1    2    0    0  0.15350888174E+03 -0.23697672321E+02 -0.22011587348E+02  0.20058929788E+03  0.12500000000E+03 0.  0.
         25    1    1    2    0    0 -0.15350888174E+03  0.23697672321E+02  0.21197894866E+03  0.29100967531E+03  0.12500000000E+03 0.  0.
</event>
<event>
 4    0  0.2193754E-002  0.2399778E+03  0.7546771E-02  0.1119808E+00
         21   -1    0    0  502  501  0.00000000000E+00  0.00000000000E+00  0.68495858709E+02  0.68495858709E+02  0.00000000000E+00 0. -1.
         21   -1    0    0  501  502 -0.00000000000E+00 -0.00000000000E+00 -0.84077097503E+03  0.84077097503E+03  0.00000000000E+00 0. -1.
         25    1    1    2    0    0  0.79082561409E+02 -0.11660815184E+03 -0.66785412089E+03  0.69390607389E+03  0.12500000000E+03 0.  0.
         25    1    1    2    0    0 -0.79082561409E+02  0.11660815184E+03 -0.10442099543E+03  0.21536075985E+03  0.12500000000E+03 0.  0.
</event>
<event>
 4    0  0.2193754E-002  0.2534628E+03  0.7546771E-02  0.1111136E+00
         21   -1    0    0  502  501  0.00000000000E+00  0.00000000000E+00  0.40031419683E+03  0.40031419683E+03  0.00000000000E+00 0. -1.
         21   -1    0    0  501  502 -0.00000000000E+00 -0.00000000000E+00 -0.16048245641E+03  0.16048245641E+03  0.00000000000E+00 0. -1.
         25    1    1    2    0    0 -0.11704743393E+03  0.10317654879E+03  0.29227012364E+03  0.35410779034E+03  0.12500000000E+03 0.  0.
         25    1    1    2    0    0  0.11704743393E+03 -0.10317654879E+03 -0.52438383218E+02  0.20668886289E+03  0.12500000000E+03 0.  0.
</event>
<event>
 4    0  0.2193754E-002  0.2979235E+03  0.7546771E-02  0.1086283E+00
         21   -1    0    0  502  501  0.00000000000E+00  0.00000000000E+00  0.40585942117E+03  0.40585942117E+03  0.00000000000E+00 0. -1.
         21   -1    0    0  501  502 -0.00000000000E+00 -0.00000000000E+00 -0.21869253655E+03  0.21869253655E+03  0.00000000000E+00 0. -1.
         25    1    1    2    0    0  0.34586298222E+02 -0.87974772466E+01  0.37456436874E+03  0.39648086203E+03  0.12500000000E+03 0.  0.
         25    1    1    2    0    0 -0.34586298222E+02  0.87974772466E+01 -0.18739748412E+03  0.22807109568E+03  0.12500000000E+03 0.  0.
</event>
<event>
 4    0  0.2193754E-002  0.1801465E+03  0.7546771E-02  0.1167661E+00
         21   -1    0    0  502  501  0.00000000000E+00  0.00000000000E+00  0.80474134274E+02  0.80474134274E+02  0.00000000000E+00 0.  1.
         21   -1    0    0  501  502 -0.00000000000E+00 -0.00000000000E+00 -0.40326961413E+03  0.40326961413E+03  0.00000000000E+00 0.  1.
         25    1    1    2    0    0  0.10961733877E+03 -0.41310789082E+02 -0.23621579382E+03  0.29179692169E+03  0.12500000000E+03 0.  0.
         25    1    1    2    0    0 -0.10961733877E+03  0.41310789082E+02 -0.86579686031E+02  0.19194682672E+03  0.12500000000E+03 0.  0.
</event>
<event>
 4    0  0.2193754E-002  0.2624377E+03  0.7546771E-02  0.1105687E+00
         21   -1    0    0  502  501  0.00000000000E+00  0.00000000000E+00  0.28152098169E+03  0.28152098169E+03  0.00000000000E+00 0. -1.
         21   -1    0    0  501  502 -0.00000000000E+00 -0.00000000000E+00 -0.24464808778E+03  0.24464808778E+03  0.00000000000E+00 0. -1.
         25    1    1    2    0    0 -0.11101234643E+03  0.16830113604E+02  0.22053085317E+03  0.27724691339E+03  0.12500000000E+03 0.  0.
         25    1    1    2    0    0  0.11101234643E+03 -0.16830113604E+02 -0.18365795927E+03  0.24892215608E+03  0.12500000000E+03 0.  0.
</event>
<event>
 4    0  0.2193754E-002  0.1661156E+03  0.7546771E-02  0.1181960E+00
         21   -1    0    0  502  501  0.00000000000E+00  0.00000000000E+00  0.32917654217E+02  0.32917654217E+02  0.00000000000E+00 0.  1.
         21   -1    0    0  501  502 -0.00000000000E+00 -0.00000000000E+00 -0.83828511997E+03  0.83828511997E+03  0.00000000000E+00 0.  1.
         25    1    1    2    0    0  0.87792248708E+02 -0.29983199591E+02 -0.25061621300E+03  0.29502535045E+03  0.12500000000E+03 0.  0.
         25    1    1    2    0    0 -0.87792248708E+02  0.29983199591E+02 -0.55475125276E+03  0.57617742374E+03  0.12500000000E+03 0.  0.
</event>
<event>
 4    0  0.2193754E-002  0.2216383E+03  0.7546771E-02  0.1132667E+00
         21   -1    0    0  502  501  0.00000000000E+00  0.00000000000E+00  0.45003212921E+03  0.45003212921E+03  0.00000000000E+00 0. -1.
         21   -1    0    0  501  502 -0.00000000000E+00 -0.00000000000E+00 -0.10915563251E+03  0.10915563251E+03  0.00000000000E+00 0. -1.
         25    1    1    2    0    0  0.17577843321E+03 -0.45676635159E+02  0.19904173224E+03  0.29703034147E+03  0.12500000000E+03 0.  0.
         25    1    1    2    0    0 -0.17577843321E+03  0.45676635159E+02  0.14183476446E+03  0.26215742025E+03  0.12500000000E+03 0.  0.
</event>
<event>
 4    0  0.2193754E-002  0.1601076E+03  0.7546771E-02  0.1188575E+00
         21   -1    0    0  502  501  0.00000000000E+00  0.00000000000E+00  0.14640053084E+03  0.14640053084E+03  0.00000000000E+00 0. -1.
         21   -1    0    0  501  502 -0.00000000000E+00 -0.00000000000E+00 -0.17509805654E+03  0.17509805654E+03  0.00000000000E+00 0. -1.
         25    1    1    2    0    0 -0.73626815362E+02  0.67256357502E+02 -0.22450978933E+02  0.16147251165E+03  0.12500000000E+03 0.  0.
         25    1    1    2    0    0  0.73626815362E+02 -0.67256357502E+02 -0.62465467670E+01  0.16002607572E+03  0.12500000000E+03 0.  0.
</event>
<event>
 4    0  0.2193754E-002  0.2229390E+03  0.7546771E-02  0.1131711E+00
         21   -1    0    0  502  501  0.00000000000E+00  0.00000000000E+00  0.14434021533E+03  0.14434021533E+03  0.00000000000E+00 0.  1.
         21   -1    0    0  501  502 -0.00000000000E+00 -0.00000000000E+00 -0.34433784507E+03  0.34433784507E+03  0.00000000000E+00 0.  1.
         25    1    1    2    0    0 -0.34137670522E+02  0.40730808409E+02 -0.29375189472E+03  0.32363490997E+03  0.12500000000E+03 0.  0.
         25    1    1    2    0    0  0.34137670522E+02 -0.40730808409E+02  0.93754264977E+02  0.16504315043E+03  0.12500000000E+03 0.  0.
</event>
<event>
 4    0  0.2193754E-002  0.2468498E+03  0.7546771E-02  0.1115312E+00
         21   -1    0    0  502  501  0.00000000000E+00  0.00000000000E+00  0.47576535172E+02  0.47576535172E+02  0.00000000000E+00 0. -1.
         21   -1    0    0  501  502 -0.00000000000E+00 -0.00000000000E+00 -0.12807751378E+04  0.12807751378E+04  0.00000000000E+00 0. -1.
         25    1    1    2    0    0  0.20561773949E+03  0.29430903040E+02 -0.74179235418E+03  0.78040100562E+03  0.12500000000E+03 0.  0.
         25    1    1    2    0    0 -0.20561773949E+03 -0.29430903040E+02 -0.49140624847E+03  0.54795066738E+03  0.12500000000E+03 0.  0.
</event>
<event>
 4    0  0.2193754E-002  0.1819065E+03  0.7546771E-02  0.1165971E+00
         21   -1    0    0  502  501  0.00000000000E+00  0.00000000000E+00  0.10434740565E+03  0.10434740565E+03  0.00000000000E+00 0. -1.
         21   -1    0    0  501  502 -0.00000000000E+00 -0.00000000000E+00 -0.31711364705E+03  0.31711364705E+03  0.00000000000E+00 0. -1.
         25    1    1    2    0    0 -0.12220964852E+03 -0.46229980189E+02 -0.12933623619E+03  0.22231795081E+03  0.12500000000E+03 0.  0.
         25    1    1    2    0    0  0.12220964852E+03  0.46229980189E+02 -0.83430005212E+02  0.19914310189E+03  0.12500000000E+03 0.  0.
</event>
<event>
 4    0  0.2193754E-002  0.1729985E+03  0.7546771E-02  0.1174756E+00
         21   -1    0    0  502  501  0.00000000000E+00  0.00000000000E+00  0.26461383289E+03  0.26461383289E+03  0.00000000000E+00 0.  1.
         21   -1    0    0  501  502 -0.00000000000E+00 -0.00000000000E+00 -0.11310249321E+03  0.11310249321E+03  0.00000000000E+00 0.  1.
         25    1    1    2    0    0 -0.11199001798E+03  0.42049788283E+01  0.12134586010E+03  0.20714551344E+03  0.12500000000E+03 0.  0.
         25    1    1    2    0    0  0.11199001798E+03 -0.42049788283E+01  0.30165479579E+02  0.17057081266E+03  0.12500000000E+03 0.  0.
</event>
<event>
 4    0  0.2193754E-002  0.2590007E+03  0.7546771E-02  0.1107745E+00
         21   -1    0    0  502  501  0.00000000000E+00  0.00000000000E+00  0.94688149110E+03  0.94688149110E+03  0.00000000000E+00 0. -1.
         21   -1    0    0  501  502 -0.00000000000E+00 -0.00000000000E+00 -0.70844500178E+02  0.70844500178E+02  0.00000000000E+00 0. -1.
         25    1    1    2    0    0  0.16697543456E+03  0.55709582589E+02  0.15690606859E+03  0.26688736894E+03  0.12500000000E+03 0.  0.
         25    1    1    2    0    0 -0.16697543456E+03 -0.55709582589E+02  0.71913092233E+03  0.75083862234E+03  0.12500000000E+03 0.  0.
</event>
<event>
 4    0  0.2193754E-002  0.1757141E+03  0.7546771E-02  0.1172017E+00
         21   -1    0    0  502  501  0.00000000000E+00  0.00000000000E+00  0.24271301149E+03  0.24271301149E+03  0.00000000000E+00 0. -1.
         21   -1    0    0  501  502 -0.00000000000E+00 -0.00000000000E+00 -0.12720967171E+03  0.12720967171E+03  0.00000000000E+00 0. -1.
         25    1    1    2    0    0  0.12276182104E+03 -0.12976454555E+02  0.61335154035E+02  0.18608023591E+03  0.12500000000E+03 0.  0.
         25    1    1    2    0    0 -0.12276182104E+03  0.12976454555E+02  0.54168185750E+02  0.18384244729E+03  0.12500000000E+03 0.  0.
</event>
<event>
 4    0  0.2193754E-002  0.2388652E+03  0.7546771E-02  0.1120551E+00
         21   -1    0    0  502  501  0.00000000000E+00  0.00000000000E+00  0.64829841911E+02  0.64829841911E+02  0.00000000000E+00 0. -1.
         21   -1    0    0  501  502 -0.00000000000E+00 -0.00000000000E+00 -0.88009725842E+03  0.88009725842E+03  0.00000000000E+00 0. -1.
         25    1    1    2    0    0  0.88260225060E+02 -0.18308519523E+03 -0.42943697989E+03  0.49127505100E+03  0.12500000000E+03 0.  0.
         25    1    1    2    0    0 -0.88260225060E+02  0.18308519523E+03 -0.38583043662E+03  0.45365204933E+03  0.12500000000E+03 0.  0.
</event>
<event>
 4    0  0.2193754E-002  0.3495979E+03  0.7546771E-02  0.1062780E+00
         21   -1    0    0  502  501  0.00000000000E+00  0.00000000000E+00  0.52137697294E+02  0.52137697294E+02  0.00000000000E+00 0.  1.
         21   -1    0    0  501  502 -0.00000000000E+00 -0.00000000000E+00 -0.23441521267E+04  0.23441521267E+04  0.00000000000E+00 0.  1.
         25    1    1    2    0    0  0.25909465536E+03  0.16866511931E+03 -0.78630162124E+03  0.85409203396E+03  0.12500000000E+03 0.  0.
         25    1    1    2    0    0 -0.25909465536E+03 -0.16866511931E+03 -0.15057128082E+04  0.15421977900E+04  0.12500000000E+03 0.  0.
</event>
<event>
 4    0  0.2193754E-002  0.2048279E+03  0.7546771E-02  0.1145728E+00
         21   -1    0    0  502  501  0.00000000000E+00  0.00000000000E+00  0.19296587825E+04  0.19296587825E+04  0.00000000000E+00 0. -1.
         21   -1    0    0  501  502 -0.00000000000E+00 -0.00000000000E+00 -0.21741914057E+02  0.21741914057E+02  0.00000000000E+00 0. -1.
         25    1    1    2    0    0  0.10184659686E+03 -0.32797466908E+02  0.37286706433E+03  0.40755766560E+03  0.12500000000E+03 0.  0.
         25    1    1    2    0    0 -0.10184659686E+03  0.32797466908E+02  0.15350498042E+04  0.15438430310E+04  0.12500000000E+03 0.  0.
</event>
<event>
 4    0  0.2193754E-002  0.3500842E+03  0.7546771E-02  0.1062581E+00
         21   -1    0    0  502  501  0.00000000000E+00  0.00000000000E+00  0.95587165228E+03  0.95587165228E+03  0.00000000000E+00 0. -1.
         21   -1    0    0  501  502 -0.00000000000E+00 -0.00000000000E+00 -0.12821692172E+03  0.12821692172E+03  0.00000000000E+00 0. -1.
         25    1    1    2    0    0 -0.88094074174E+02  0.22919580569E+03  0.74821780924E+03  0.79733692585E+03  0.12500000000E+03 0.  0.
         25    1    1    2    0    0  0.88094074174E+02 -0.22919580569E+03  0.79436921318E+02  0.28675164816E+03  0.12500000000E+03 0.  0.
</event>
<event>
 4    0  0.2193754E-002  0.2257391E+03  0.7546771E-02  0.1129675E+00
         21   -1    0    0  502  501  0.00000000000E+00  0.00000000000E+00  0.12962596091E+04  0.12962596091E+04  0.00000000000E+00 0. -1.
         21   -1    0    0  501  502 -0.00000000000E+00 -0.00000000000E+00 -0.39311663842E+02  0.39311663842E+02  0.00000000000E+00 0. -1.
         25    1    1    2    0    0 -0.12827777021E+01  0.18134516903E+03  0.48218692768E+03  0.53011031783E+03  0.12500000000E+03 0.  0.
         25    1    1    2    0    0  0.12827777021E+01 -0.18134516903E+03  0.77476101762E+03  0.80546095515E+03  0.12500000000E+03 0.  0.
</event>
<event>
 4    0  0.2193754E-002  0.2451694E+03  0.7546771E-02  0.1116396E+00
         21   -1    0    0  502  501  0.00000000000E+00  0.00000000000E+00  0.76678995657E+03  0.76678995657E+03  0.00000000000E+00 0. -1.
         21   -1    0    0  501  502 -0.00000000000E+00 -0.00000000000E+00 -0.78389203224E+02  0.78389203224E+02  0.00000000000E+00 0. -1.
         25    1    1    2    0    0 -0.83958869610E+02 -0.18381600976E+03  0.44827363062E+03  0.50735753186E+03  0.12500000000E+03 0.  0.
         25    1    1    2    0    0  0.83958869610E+02  0.18381600976E+03  0.24012712272E+03  0.33782162793E+03  0.12500000000E+03 0.  0.
</event>
<event>
 4    0  0.2193754E-002  0.5172672E+03  0.7546771E-02  0.1009368E+00
         21   -1    0    0  502  501  0.00000000000E+00  0.00000000000E+00  0.31108121903E+03  0.31108121903E+03  0.00000000000E+00 0.  1.
         21   -1    0    0  501  502 -0.00000000000E+00 -0.00000000000E+00 -0.86011417984E+03  0.86011417984E+03  0.00000000000E+00 0.  1.
         25    1    1    2    0    0 -0.36769183304E+03 -0.26048841722E+03 -0.52483293715E+03  0.70294104412E+03  0.12500000000E+03 0.  0.
         25    1    1    2    0    0  0.36769183304E+03  0.26048841722E+03 -0.24200023669E+02  0.46825435475E+03  0.12500000000E+03 0.  0.
</event>
<event>
 4    0  0.2193754E-002  0.2969460E+03  0.7546771E-02  0.1086777E+00
         21   -1    0    0  502  501  0.00000000000E+00  0.00000000000E+00  0.13060751493E+03  0.13060751493E+03  0.00000000000E+00 0.  1.
         21   -1    0    0  501  502 -0.00000000000E+00 -0.00000000000E+00 -0.67512893316E+03  0.67512893316E+03  0.00000000000E+00 0.  1.
         25    1    1    2    0    0 -0.11646225990E+02 -0.21045031143E+03 -0.44726424231E+02  0.24909921956E+03  0.12500000000E+03 0.  0.
         25    1    1    2    0    0  0.11646225990E+02  0.21045031143E+03 -0.49979499401E+03  0.55663722854E+03  0.12500000000E+03 0.  0.
</event>
<event>
 4    0  0.2193754E-002  0.3573155E+03  0.7546771E-02  0.1059652E+00
         21   -1    0    0  502  501  0.00000000000E+00  0.00000000000E+00  0.10500271721E+04  0.10500271721E+04  0.00000000000E+00 0.  1.
         21   -1    0    0  501  502 -0.00000000000E+00 -0.00000000000E+00 -0.12159147287E+03  0.12159147287E+03  0.00000000000E+00 0.  1.
         25    1    1    2    0    0 -0.15922904437E+03 -0.15496632644E+01 -0.18503622701E+02  0.20328225225E+03  0.12500000000E+03 0.  0.
         25    1    1    2    0    0  0.15922904437E+03  0.15496632644E+01  0.94693932191E+03  0.96833639269E+03  0.12500000000E+03 0.  0.
</event>
<event>
 4    0  0.2193754E-002  0.2158720E+03  0.7546771E-02  0.1136999E+00
         21   -1    0    0  502  501  0.00000000000E+00  0.00000000000E+00  0.69142761015E+03  0.69142761015E+03  0.00000000000E+00 0.  1.
         21   -1    0    0  501  502 -0.00000000000E+00 -0.00000000000E+00 -0.67397800789E+02  0.67397800789E+02  0.00000000000E+00 0.  1.
         25    1    1    2    0    0 -0.79265600419E+02 -0.60850276317E+02  0.56665156173E+03  0.58881642635E+03  0.12500000000E+03 0.  0.
         25    1    1    2    0    0  0.79265600419E+02  0.60850276317E+02  0.57378247633E+02  0.17000898458E+03  0.12500000000E+03 0.  0.
</event>
<event>
 4    0  0.2193754E-002  0.1810346E+03  0.7546771E-02  0.1166805E+00
         21   -1    0    0  502  501  0.00000000000E+00  0.00000000000E+00  0.23232131679E+03  0.23232131679E+03  0.00000000000E+00 0. -1.
         21   -1    0    0  501  502 -0.00000000000E+00 -0.00000000000E+00 -0.14106983291E+03  0.14106983291E+03  0.00000000000E+00 0. -1.
         25    1    1    2    0    0  0.40091071430E+01 -0.10273443926E+03  0.12926734915E+03  0.20713639349E+03  0.12500000000E+03 0.  0.
         25    1    1    2    0    0 -0.40091071430E+01  0.10273443926E+03 -0.38015865268E+02  0.16625475621E+03  0.12500000000E+03 0.  0.
</event>
<event>
 4    0  0.2193754E-002  0.2806805E+03  0.7546771E-02  0.1095318E+00
         21   -1    0    0  502  501  0.00000000000E+00  0.00000000000E+00  0.28556457439E+03  0.28556457439E+03  0.00000000000E+00 0.  1.
         21   -1    0    0  501  502 -0.00000000000E+00 -0.00000000000E+00 -0.27587991860E+03  0.27587991860E+03  0.00000000000E+00 0.  1.
         25    1    1    2    0    0 -0.39462386412E+02  0.24162850851E+03  0.61550989881E+02  0.28170044448E+03  0.12500000000E+03 0.  0.
         25    1    1    2    0    0  0.39462386412E+02 -0.24162850851E+03 -0.51866334082E+02  0.27974404851E+03  0.12500000000E+03 0.  0.
</event>
<event>
 4    0  0.2193754E-002  0.1729872E+03  0.7546771E-02  0.1174768E+00
         21   -1    0    0  502  501  0.00000000000E+00  0.00000000000E+00  0.15596465530E+03  0.15596465530E+03  0.00000000000E+00 0.  1.
         21   -1    0    0  501  502 -0.00000000000E+00 -0.00000000000E+00 -0.19186774315E+03  0.19186774315E+03  0.00000000000E+00 0.  1.
         25    1    1    2    0    0 -0.20889282058E+02 -0.11772643876E+03 -0.19888006362E+02  0.17411607992E+03  0.12500000000E+03 0.  0.
         25    1    1    2    0    0  0.20889282058E+02  0.11772643876E+03 -0.16015081486E+02  0.17371631853E+03  0.12500000000E+03 0.  0.
</event>
<event>
 4    0  0.2193754E-002  0.1450701E+03  0.7546771E-02  0.1206665E+00
         21   -1    0    0  502  501  0.00000000000E+00  0.00000000000E+00  0.79699755764E+03  0.79699755764E+03  0.00000000000E+00 0. -1.
         21   -1    0    0  501  502 -0.00000000000E+00 -0.00000000000E+00 -0.26405757558E+02  0.26405757558E+02  0.00000000000E+00 0. -1.
         25    1    1    2    0    0 -0.40244953082E+02 -0.30384151688E+02  0.53752942703E+03  0.55417121708E+03  0.12500000000E+03 0.  0.
         25    1    1    2    0    0  0.40244953082E+02  0.30384151688E+02  0.23306237306E+03  0.26923209812E+03  0.12500000000E+03 0.  0.
</event>
<event>
 4    0  0.2193754E-002  0.1762016E+03  0.7546771E-02  0.1171531E+00
         21   -1    0    0  502  501  0.00000000000E+00  0.00000000000E+00  0.14219111891E+03  0.14219111891E+03  0.00000000000E+00 0. -1.
         21   -1    0    0  501  502 -0.00000000000E+00 -0.00000000000E+00 -0.21834703235E+03  0.21834703235E+03  0.00000000000E+00 0. -1.
         25    1    1    2    0    0 -0.34288655266E+02 -0.29250308986E+02  0.80311561985E+02  0.15526184156E+03  0.12500000000E+03 0.  0.
         25    1    1    2    0    0  0.34288655266E+02  0.29250308986E+02 -0.15646747543E+03  0.20527630970E+03  0.12500000000E+03 0.  0.
</event>
<event>
 4    0  0.2193754E-002  0.2230505E+03  0.7546771E-02  0.1131629E+00
         21   -1    0    0  502  501  0.00000000000E+00  0.00000000000E+00  0.14586430745E+03  0.14586430745E+03  0.00000000000E+00 0.  1.
         21   -1    0    0  501  502 -0.00000000000E+00 -0.00000000000E+00 -0.34108083271E+03  0.34108083271E+03  0.00000000000E+00 0.  1.
         25    1    1    2    0    0 -0.40506926176E+02 -0.15448226643E+02  0.98407922662E+02  0.16488959342E+03  0.12500000000E+03 0.  0.
         25    1    1    2    0    0  0.40506926176E+02  0.15448226643E+02 -0.29362444792E+03  0.32205554675E+03  0.12500000000E+03 0.  0.
</event>
<event>
 4    0  0.2193754E-002  0.2269388E+03  0.7546771E-02  0.1128813E+00
         21   -1    0    0  502  501  0.00000000000E+00  0.00000000000E+00  0.60205630696E+03  0.60205630696E+03  0.00000000000E+00 0. -1.
         21   -1    0    0  501  502 -0.00000000000E+00 -0.00000000000E+00 -0.85542172852E+02  0.85542172852E+02  0.00000000000E+00 0. -1.
         25    1    1    2    0    0 -0.88336858452E+02  0.16424210647E+02  0.51086235292E+03  0.53355271425E+03  0.12500000000E+03 0.  0.
         25    1    1    2    0    0  0.88336858452E+02 -0.16424210647E+02  0.56517811907E+01  0.15404576556E+03  0.12500000000E+03 0.  0.
</event>
<event>
 4    0  0.2193754E-002  0.3077094E+03  0.7546771E-02  0.1081449E+00
         21   -1    0    0  502  501  0.00000000000E+00  0.00000000000E+00  0.38598498657E+03  0.38598498657E+03  0.00000000000E+00 0.  1.
         21   -1    0    0  501  502 -0.00000000000E+00 -0.00000000000E+00 -0.24530767428E+03  0.24530767428E+03  0.00000000000E+00 0.  1.
         25    1    1    2    0    0  0.13588625428E+03 -0.17608365697E+01  0.32284208119E+03  0.37191421596E+03  0.12500000000E+03 0.  0.
         25    1    1    2    0    0 -0.13588625428E+03  0.17608365697E+01 -0.18216476890E+03  0.25937844489E+03  0.12500000000E+03 0.  0.
</event>
<event>
 4    0  0.2193754E-002  0.2502492E+03  0.7546771E-02  0.1113147E+00
         21   -1    0    0  502  501  0.00000000000E+00  0.00000000000E+00  0.15448978084E+03  0.15448978084E+03  0.00000000000E+00 0.  1.
         21   -1    0    0  501  502 -0.00000000000E+00 -0.00000000000E+00 -0.40536440468E+03  0.40536440468E+03  0.00000000000E+00 0.  1.
         25    1    1    2    0    0  0.21509859935E+03  0.14560478023E+02 -0.15095112699E+03  0.29136001391E+03  0.12500000000E+03 0.  0.
         25    1    1    2    0    0 -0.21509859935E+03 -0.14560478023E+02 -0.99923496851E+02  0.26849417161E+03  0.12500000000E+03 0.  0.
</event>
<event>
 4    0  0.2193754E-002  0.2221752E+03  0.7546771E-02  0.1132272E+00
         21   -1    0    0  502  501  0.00000000000E+00  0.00000000000E+00  0.42879221755E+02  0.42879221755E+02  0.00000000000E+00 0. -1.
         21   -1    0    0  501  502 -0.00000000000E+00 -0.00000000000E+00 -0.11511831973E+04  0.11511831973E+04  0.00000000000E+00 0. -1.
         25    1    1    2    0    0 -0.92167355055E+02  0.13436062572E+03 -0.78199875585E+03  0.80851385469E+03  0.12500000000E+03 0.  0.
         25    1    1    2    0    0  0.92167355055E+02 -0.13436062572E+03 -0.32630521971E+03  0.38554856438E+03  0.12500000000E+03 0.  0.
</event>
<event>
 4    0  0.2193754E-002  0.1620440E+03  0.7546771E-02  0.1186408E+00
         21   -1    0    0  502  501  0.00000000000E+00  0.00000000000E+00  0.19143745506E+03  0.19143745506E+03  0.00000000000E+00 0.  1.
         21   -1    0    0  501  502 -0.00000000000E+00 -0.00000000000E+00 -0.13716358508E+03  0.13716358508E+03  0.00000000000E+00 0.  1.
         25    1    1    2    0    0 -0.47517188586E+02 -0.40863369837E+02  0.11016468190E+03  0.17801391896E+03  0.12500000000E+03 0.  0.
         25    1    1    2    0    0  0.47517188586E+02  0.40863369837E+02 -0.55890811932E+02  0.15058712118E+03  0.12500000000E+03 0.  0.
</event>
<event>
 4    0  0.2193754E-002  0.3107581E+03  0.7546771E-02  0.1079983E+00
         21   -1    0    0  502  501  0.00000000000E+00  0.00000000000E+00  0.50230118311E+03  0.50230118311E+03  0.00000000000E+00 0. -1.
         21   -1    0    0  501  502 -0.00000000000E+00 -0.00000000000E+00 -0.19225636459E+03  0.19225636459E+03  0.00000000000E+00 0. -1.
         25    1    1    2    0    0  0.11930316102E+03  0.72580136699E+02  0.43203353279E+03  0.47093427771E+03  0.12500000000E+03 0.  0.
         25    1    1    2    0    0 -0.11930316102E+03 -0.72580136699E+02 -0.12198871427E+03  0.22362326999E+03  0.12500000000E+03 0.  0.
</event>
<event>
 4    0  0.2193754E-002  0.3012540E+03  0.7546771E-02  0.1084615E+00
         21   -1    0    0  502  501  0.00000000000E+00  0.00000000000E+00  0.81404234797E+02  0.81404234797E+02  0.00000000000E+00 0.  1.
         21   -1    0    0  501  502 -0.00000000000E+00 -0.00000000000E+00 -0.11148557709E+04  0.11148557709E+04  0.00000000000E+00 0.  1.
         25    1    1    2    0    0 -0.22386293846E+03 -0.14238246236E+03 -0.65344361455E+03  0.71624083813E+03  0.12500000000E+03 0.  0.
         25    1    1    2    0    0  0.22386293846E+03  0.14238246236E+03 -0.38000792160E+03  0.48001916762E+03  0.12500000000E+03 0.  0.
</event>
<event>
 4    0  0.2193754E-002  0.2492733E+03  0.7546771E-02  0.1113765E+00
         21   -1    0    0  502  501  0.00000000000E+00  0.00000000000E+00  0.42419721315E+03  0.42419721315E+03  0.00000000000E+00 0. -1.
         21   -1    0    0  501  502 -0.00000000000E+00 -0.00000000000E+00 -0.14648181064E+03  0.14648181064E+03  0.00000000000E+00 0. -1.
         25    1    1    2    0    0 -0.16662054789E+02 -0.12200292586E+02  0.38459397855E+03  0.40492468380E+03  0.12500000000E+03 0.  0.
         25    1    1    2    0    0  0.16662054789E+02  0.12200292586E+02 -0.10687857604E+03  0.16575433999E+03  0.12500000000E+03 0.  0.
</event>
<event>
 4    0  0.2193754E-002  0.5438485E+03  0.7546771E-02  0.1002928E+00
         21   -1    0    0  502  501  0.00000000000E+00  0.00000000000E+00  0.47001398581E+03  0.47001398581E+03  0.00000000000E+00 0.  1.
         21   -1    0    0  501  502 -0.00000000000E+00 -0.00000000000E+00 -0.62928173712E+03  0.62928173712E+03  0.00000000000E+00 0.  1.
         25    1    1    2    0    0  0.48014884161E+02 -0.35050360075E+03  0.31824936366E+03  0.49200189097E+03  0.12500000000E+03 0.  0.
         25    1    1    2    0    0 -0.48014884161E+02  0.35050360075E+03 -0.47751711497E+03  0.60729383196E+03  0.12500000000E+03 0.  0.
</event>
<event>
 4    0  0.2193754E-002  0.1695086E+03  0.7546771E-02  0.1178361E+00
         21   -1    0    0  502  501  0.00000000000E+00  0.00000000000E+00  0.40247846724E+03  0.40247846724E+03  0.00000000000E+00 0. -1.
         21   -1    0    0  501  502 -0.00000000000E+00 -0.00000000000E+00 -0.71390538113E+02  0.71390538113E+02  0.00000000000E+00 0. -1.
         25    1    1    2    0    0 -0.56983053469E+02  0.19030716857E+02  0.29313662584E+02  0.14175163978E+03  0.12500000000E+03 0.  0.
         25    1    1    2    0    0  0.56983053469E+02 -0.19030716857E+02  0.30177426655E+03  0.33211736557E+03  0.12500000000E+03 0.  0.
</event>
<event>
 4    0  0.2193754E-002  0.1796551E+03  0.7546771E-02  0.1168137E+00
         21   -1    0    0  502  501  0.00000000000E+00  0.00000000000E+00  0.19906763586E+02  0.19906763586E+02  0.00000000000E+00 0. -1.
         21   -1    0    0  501  502 -0.00000000000E+00 -0.00000000000E+00 -0.16213564787E+04  0.16213564787E+04  0.00000000000E+00 0. -1.
         25    1    1    2    0    0 -0.88526937047E+02 -0.84894969631E+02 -0.98382455891E+03  0.99928971633E+03  0.12500000000E+03 0.  0.
         25    1    1    2    0    0  0.88526937047E+02  0.84894969631E+02 -0.61762515625E+03  0.64197352600E+03  0.12500000000E+03 0.  0.
</event>
<event>
 4    0  0.2193754E-002  0.1411261E+03  0.7546771E-02  0.1211822E+00
         21   -1    0    0  502  501  0.00000000000E+00  0.00000000000E+00  0.26335889819E+03  0.26335889819E+03  0.00000000000E+00 0.  1.
         21   -1    0    0  501  502 -0.00000000000E+00 -0.00000000000E+00 -0.75625277963E+02  0.75625277963E+02  0.00000000000E+00 0.  1.
         25    1    1    2    0    0 -0.11930442607E+02 -0.41354278040E+02  0.15318047973E+03  0.20234073031E+03  0.12500000000E+03 0.  0.
         25    1    1    2    0    0  0.11930442607E+02  0.41354278040E+02  0.34553140497E+02  0.13664344584E+03  0.12500000000E+03 0.  0.
</event>
<event>
 4    0  0.2193754E-002  0.2148880E+03  0.7546771E-02  0.1137753E+00
         21   -1    0    0  502  501  0.00000000000E+00  0.00000000000E+00  0.59174349685E+03  0.59174349685E+03  0.00000000000E+00 0. -1.
         21   -1    0    0  501  502 -0.00000000000E+00 -0.00000000000E+00 -0.78035249984E+02  0.78035249984E+02  0.00000000000E+00 0. -1.
         25    1    1    2    0    0  0.17280507199E+03 -0.96012160656E+01  0.21874164478E+03  0.30565778809E+03  0.12500000000E+03 0.  0.
         25    1    1    2    0    0 -0.17280507199E+03  0.96012160656E+01  0.29496660208E+03  0.36412095875E+03  0.12500000000E+03 0.  0.
</event>
<event>
 4    0  0.2193754E-002  0.2072007E+03  0.7546771E-02  0.1143802E+00
         21   -1    0    0  502  501  0.00000000000E+00  0.00000000000E+00  0.12396758868E+03  0.12396758868E+03  0.00000000000E+00 0. -1.
         21   -1    0    0  501  502 -0.00000000000E+00 -0.00000000000E+00 -0.34631748452E+03  0.34631748452E+03  0.00000000000E+00 0. -1.
         25    1    1    2    0    0  0.62895590440E+02 -0.13026438342E+03 -0.20183888954E+03  0.27800827724E+03  0.12500000000E+03 0.  0.
         25    1    1    2    0    0 -0.62895590440E+02  0.13026438342E+03 -0.20511006300E+02  0.19227679596E+03  0.12500000000E+03 0.  0.
</event>
<event>
 4    0  0.2193754E-002  0.2767192E+03  0.7546771E-02  0.1097494E+00
         21   -1    0    0  502  501  0.00000000000E+00  0.00000000000E+00  0.62133481034E+03  0.62133481034E+03  0.00000000000E+00 0.  1.
         21   -1    0    0  501  502 -0.00000000000E+00 -0.00000000000E+00 -0.12324031045E+03  0.12324031045E+03  0.00000000000E+00 0.  1.
         25    1    1    2    0    0  0.92160983925E+02  0.46669093881E+01 -0.59017441596E+02  0.16620314502E+03  0.12500000000E+03 0.  0.
         25    1    1    2    0    0 -0.92160983925E+02 -0.46669093881E+01  0.55711194149E+03  0.57837197577E+03  0.12500000000E+03 0.  0.
</event>
<event>
 4    0  0.2193754E-002  0.3828682E+03  0.7546771E-02  0.1049879E+00
         21   -1    0    0  502  501  0.00000000000E+00  0.00000000000E+00  0.67134611201E+03  0.67134611201E+03  0.00000000000E+00 0. -1.
         21   -1    0    0  501  502 -0.00000000000E+00 -0.00000000000E+00 -0.21834942704E+03  0.21834942704E+03  0.00000000000E+00 0. -1.
         25    1    1    2    0    0 -0.19600167049E+03  0.79746887872E+01  0.57983818221E+03  0.62475400603E+03  0.12500000000E+03 0.  0.
         25    1    1    2    0    0  0.19600167049E+03 -0.79746887872E+01 -0.12684149724E+03  0.26494153302E+03  0.12500000000E+03 0.  0.
</event>
<event>
 4    0  0.2193754E-002  0.2005632E+03  0.7546771E-02  0.1149265E+00
         21   -1    0    0  502  501  0.00000000000E+00  0.00000000000E+00  0.26046947769E+03  0.26046947769E+03  0.00000000000E+00 0. -1.
         21   -1    0    0  501  502 -0.00000000000E+00 -0.00000000000E+00 -0.15443496056E+03  0.15443496056E+03  0.00000000000E+00 0. -1.
         25    1    1    2    0    0  0.56005560498E+01 -0.63507988889E+02  0.20124325797E+03  0.24533340530E+03  0.12500000000E+03 0.  0.
         25    1    1    2    0    0 -0.56005560498E+01  0.63507988889E+02 -0.95208740834E+02  0.16957103294E+03  0.12500000000E+03 0.  0.
</event>
<event>
 4    0  0.2193754E-002  0.2255682E+03  0.7546771E-02  0.1129799E+00
         21   -1    0    0  502  501  0.00000000000E+00  0.00000000000E+00  0.29951305050E+03  0.29951305050E+03  0.00000000000E+00 0.  1.
         21   -1    0    0  501  502 -0.00000000000E+00 -0.00000000000E+00 -0.16987906990E+03  0.16987906990E+03  0.00000000000E+00 0.  1.
         25    1    1    2    0    0 -0.11095755389E+03  0.99460140960E+02  0.18368587384E+03  0.26752457579E+03  0.12500000000E+03 0.  0.
         25    1    1    2    0    0  0.11095755389E+03 -0.99460140960E+02 -0.54051893243E+02  0.20186754461E+03  0.12500000000E+03 0.  0.
</event>
<event>
 4    0  0.2193754E-002  0.2169913E+03  0.7546771E-02  0.1136146E+00
         21   -1    0    0  502  501  0.00000000000E+00  0.00000000000E+00  0.45121934104E+02  0.45121934104E+02  0.00000000000E+00 0.  1.
         21   -1    0    0  501  502 -0.00000000000E+00 -0.00000000000E+00 -0.10435105159E+04  0.10435105159E+04  0.00000000000E+00 0.  1.
         25    1    1    2    0    0  0.96422072456E+01  0.10868993073E+03 -0.84996548761E+03  0.86600970164E+03  0.12500000000E+03 0.  0.
         25    1    1    2    0    0 -0.96422072456E+01 -0.10868993073E+03 -0.14842309419E+03  0.22262274837E+03  0.12500000000E+03 0.  0.
</event>
<event>
 4    0  0.2193754E-002  0.3163023E+03  0.7546771E-02  0.1077364E+00
         21   -1    0    0  502  501  0.00000000000E+00  0.00000000000E+00  0.35699208863E+03  0.35699208863E+03  0.00000000000E+00 0. -1.
         21   -1    0    0  501  502 -0.00000000000E+00 -0.00000000000E+00 -0.28025029379E+03  0.28025029379E+03  0.00000000000E+00 0. -1.
         25    1    1    2    0    0 -0.16746147329E+02  0.99483415417E+02  0.31284742454E+03  0.35167583715E+03  0.12500000000E+03 0.  0.
         25    1    1    2    0    0  0.16746147329E+02 -0.99483415417E+02 -0.23610562970E+03  0.28556654526E+03  0.12500000000E+03 0.  0.
</event>
<event>
 4    0  0.2193754E-002  0.2479288E+03  0.7546771E-02  0.1114621E+00
         21   -1    0    0  502  501  0.00000000000E+00  0.00000000000E+00  0.52013701253E+03  0.52013701253E+03  0.00000000000E+00 0.  1.
         21   -1    0    0  501  502 -0.00000000000E+00 -0.00000000000E+00 -0.11817788408E+03  0.11817788408E+03  0.00000000000E+00 0.  1.
         25    1    1    2    0    0  0.15439087002E+03 -0.37193860615E+02  0.16111453708E+02  0.20274245474E+03  0.12500000000E+03 0.  0.
         25    1    1    2    0    0 -0.15439087002E+03  0.37193860615E+02  0.38584767474E+03  0.43557244187E+03  0.12500000000E+03 0.  0.
</event>
<event>
 4    0  0.2193754E-002  0.2451128E+03  0.7546771E-02  0.1116433E+00
         21   -1    0    0  502  501  0.00000000000E+00  0.00000000000E+00  0.90582467928E+03  0.90582467928E+03  0.00000000000E+00 0. -1.
         21   -1    0    0  501  502 -0.00000000000E+00 -0.00000000000E+00 -0.66326589663E+02  0.66326589663E+02  0.00000000000E+00 0. -1.
         25    1    1    2    0    0 -0.86122710799E+02 -0.10311031497E+03  0.97499308558E+02  0.20779791514E+03  0.12500000000E+03 0.  0.
         25    1    1    2    0    0  0.86122710799E+02  0.10311031497E+03  0.74199878106E+03  0.76435335380E+03  0.12500000000E+03 0.  0.
</event>
<event>
 4    0  0.2193754E-002  0.3948400E+03  0.7546771E-02  0.1045581E+00
         21   -1    0    0  502  501  0.00000000000E+00  0.00000000000E+00  0.30701248564E+03  0.30701248564E+03  0.00000000000E+00 0. -1.
         21   -1    0    0  501  502 -0.00000000000E+00 -0.00000000000E+00 -0.50779250094E+03  0.50779250094E+03  0.00000000000E+00 0. -1.
         25    1    1    2    0    0 -0.90188235723E+02 -0.32021546740E+02  0.27322784473E+03  0.31533752148E+03  0.12500000000E+03 0.  0.
         25    1    1    2    0    0  0.90188235723E+02  0.32021546740E+02 -0.47400786003E+03  0.49946746509E+03  0.12500000000E+03 0.  0.
</event>
<event>
 4    0  0.2193754E-002  0.2175373E+03  0.7546771E-02  0.1135733E+00
         21   -1    0    0  502  501  0.00000000000E+00  0.00000000000E+00  0.55314896539E+02  0.55314896539E+02  0.00000000000E+00 0. -1.
         21   -1    0    0  501  502 -0.00000000000E+00 -0.00000000000E+00 -0.85551053550E+03  0.85551053550E+03  0.00000000000E+00 0. -1.
         25    1    1    2    0    0  0.59446720811E+02  0.85605481567E+02 -0.97914184706E+02  0.18993261609E+03  0.12500000000E+03 0.  0.
         25    1    1    2    0    0 -0.59446720811E+02 -0.85605481567E+02 -0.70228145425E+03  0.72089281594E+03  0.12500000000E+03 0.  0.
</event>
<event>
 4    0  0.2193754E-002  0.1899098E+03  0.7546771E-02  0.1158543E+00
         21   -1    0    0  502  501  0.00000000000E+00  0.00000000000E+00  0.60425723297E+02  0.60425723297E+02  0.00000000000E+00 0. -1.
         21   -1    0    0  501  502 -0.00000000000E+00 -0.00000000000E+00 -0.59686084790E+03  0.59686084790E+03  0.00000000000E+00 0. -1.
         25    1    1    2    0    0 -0.19905666142E+02  0.13667986230E+03 -0.20432568765E+03  0.27649883713E+03  0.12500000000E+03 0.  0.
         25    1    1    2    0    0  0.19905666142E+02 -0.13667986230E+03 -0.33210943695E+03  0.38078773406E+03  0.12500000000E+03 0.  0.
</event>
<event>
 4    0  0.2193754E-002  0.1874835E+03  0.7546771E-02  0.1160751E+00
         21   -1    0    0  502  501  0.00000000000E+00  0.00000000000E+00  0.25189861389E+03  0.25189861389E+03  0.00000000000E+00 0.  1.
         21   -1    0    0  501  502 -0.00000000000E+00 -0.00000000000E+00 -0.13954051506E+03  0.13954051506E+03  0.00000000000E+00 0.  1.
         25    1    1    2    0    0 -0.41479950765E+02  0.12723682319E+03  0.98134977182E+02  0.20776253088E+03  0.12500000000E+03 0.  0.
         25    1    1    2    0    0  0.41479950765E+02 -0.12723682319E+03  0.14223121647E+02  0.18367659807E+03  0.12500000000E+03 0.  0.
</event>
<event>
 4    0  0.2193754E-002  0.2387748E+03  0.7546771E-02  0.1120612E+00
         21   -1    0    0  502  501  0.00000000000E+00  0.00000000000E+00  0.15334378863E+03  0.15334378863E+03  0.00000000000E+00 0. -1.
         21   -1    0    0  501  502 -0.00000000000E+00 -0.00000000000E+00 -0.37180119031E+03  0.37180119031E+03  0.00000000000E+00 0. -1.
         25    1    1    2    0    0 -0.15332718388E+03 -0.11759872628E+03 -0.17920856552E+03  0.29168372545E+03  0.12500000000E+03 0.  0.
         25    1    1    2    0    0  0.15332718388E+03  0.11759872628E+03 -0.39248836165E+02  0.23346125349E+03  0.12500000000E+03 0.  0.
</event>
<event>
 4    0  0.2193754E-002  0.1711685E+03  0.7546771E-02  0.1176635E+00
         21   -1    0    0  502  501  0.00000000000E+00  0.00000000000E+00  0.95968076808E+02  0.95968076808E+02  0.00000000000E+00 0. -1.
         21   -1    0    0  501  502 -0.00000000000E+00 -0.00000000000E+00 -0.30529577202E+03  0.30529577202E+03  0.00000000000E+00 0. -1.
         25    1    1    2    0    0  0.52309609696E+02 -0.85123949832E+02 -0.17587760801E+03  0.23778207481E+03  0.12500000000E+03 0.  0.
         25    1    1    2    0    0 -0.52309609696E+02  0.85123949832E+02 -0.33450087200E+02  0.16348177402E+03  0.12500000000E+03 0.  0.
</event>
<event>
 4    0  0.2193754E-002  0.2251034E+03  0.7546771E-02  0.1130134E+00
         21   -1    0    0  502  501  0.00000000000E+00  0.00000000000E+00  0.33504432717E+03  0.33504432717E+03  0.00000000000E+00 0.  1.
         21   -1    0    0  501  502 -0.00000000000E+00 -0.00000000000E+00 -0.15123825884E+03  0.15123825884E+03  0.00000000000E+00 0.  1.
         25    1    1    2    0    0 -0.65396125206E+02  0.20805544519E+02 -0.96229127607E+02  0.17203072073E+03  0.12500000000E+03 0.  0.
         25    1    1    2    0    0  0.65396125206E+02 -0.20805544519E+02  0.28003519593E+03  0.31425186529E+03  0.12500000000E+03 0.  0.
</event>
<event>
 4    0  0.2193754E-002  0.1722985E+03  0.7546771E-02  0.1175472E+00
         21   -1    0    0  502  501  0.00000000000E+00  0.00000000000E+00  0.54171721507E+03  0.54171721507E+03  0.00000000000E+00 0. -1.
         21   -1    0    0  501  502 -0.00000000000E+00 -0.00000000000E+00 -0.54801240715E+02  0.54801240715E+02  0.00000000000E+00 0. -1.
         25    1    1    2    0    0  0.46726579755E+01  0.11430926689E+03  0.18945184441E+03  0.25417600905E+03  0.12500000000E+03 0.  0.
         25    1    1    2    0    0 -0.46726579755E+01 -0.11430926689E+03  0.29746412995E+03  0.34234244674E+03  0.12500000000E+03 0.  0.
</event>
<event>
 4    0  0.2193754E-002  0.1884528E+03  0.7546771E-02  0.1159864E+00
         21   -1    0    0  502  501  0.00000000000E+00  0.00000000000E+00  0.15903696523E+04  0.15903696523E+04  0.00000000000E+00 0. -1.
         21   -1    0    0  501  502 -0.00000000000E+00 -0.00000000000E+00 -0.22330940941E+02  0.22330940941E+02  0.00000000000E+00 0. -1.
         25    1    1    2    0    0  0.39756201996E+00  0.16982701869E+02  0.13830637242E+04  0.13888048226E+04  0.12500000000E+03 0.  0.
         25    1    1    2    0    0 -0.39756201996E+00 -0.16982701869E+02  0.18497498721E+03  0.22389577065E+03  0.12500000000E+03 0.  0.
</event>
<event>
 4    0  0.2193754E-002  0.2765343E+03  0.7546771E-02  0.1097597E+00
         21   -1    0    0  502  501  0.00000000000E+00  0.00000000000E+00  0.49112805051E+03  0.49112805051E+03  0.00000000000E+00 0.  1.
         21   -1    0    0  501  502 -0.00000000000E+00 -0.00000000000E+00 -0.15570520637E+03  0.15570520637E+03  0.00000000000E+00 0.  1.
         25    1    1    2    0    0 -0.18804344322E+03  0.80189534488E+02  0.62668148476E+01  0.23969766571E+03  0.12500000000E+03 0.  0.
         25    1    1    2    0    0  0.18804344322E+03 -0.80189534488E+02  0.32915602929E+03  0.40713559117E+03  0.12500000000E+03 0.  0.
</event>
<event>
 4    0  0.2193754E-002  0.3507649E+03  0.7546771E-02  0.1062302E+00
         21   -1    0    0  502  501  0.00000000000E+00  0.00000000000E+00  0.13947563243E+03  0.13947563243E+03  0.00000000000E+00 0. -1.
         21   -1    0    0  501  502 -0.00000000000E+00 -0.00000000000E+00 -0.88213269196E+03  0.88213269196E+03  0.00000000000E+00 0. -1.
         25    1    1    2    0    0 -0.31511784203E+03 -0.82078682051E+00 -0.24017565031E+03  0.41546271922E+03  0.12500000000E+03 0.  0.
         25    1    1    2    0    0  0.31511784203E+03  0.82078682051E+00 -0.50248140922E+03  0.60614560517E+03  0.12500000000E+03 0.  0.
</event>
<event>
 4    0  0.2193754E-002  0.2229953E+03  0.7546771E-02  0.1131669E+00
         21   -1    0    0  502  501  0.00000000000E+00  0.00000000000E+00  0.29383695285E+04  0.29383695285E+04  0.00000000000E+00 0.  1.
         21   -1    0    0  501  502 -0.00000000000E+00 -0.00000000000E+00 -0.16923294721E+02  0.16923294721E+02  0.00000000000E+00 0.  1.
         25    1    1    2    0    0 -0.88443430348E+02  0.46563678702E+02  0.43179089907E+03  0.46049842243E+03  0.12500000000E+03 0.  0.
         25    1    1    2    0    0  0.88443430348E+02 -0.46563678702E+02  0.24896553348E+04  0.24947944008E+04  0.12500000000E+03 0.  0.
</event>
<event>
 4    0  0.2193754E-002  0.1631008E+03  0.7546771E-02  0.1185240E+00
         21   -1    0    0  502  501  0.00000000000E+00  0.00000000000E+00  0.69443869683E+03  0.69443869683E+03  0.00000000000E+00 0.  1.
         21   -1    0    0  501  502 -0.00000000000E+00 -0.00000000000E+00 -0.38307018366E+02  0.38307018366E+02  0.00000000000E+00 0.  1.
         25    1    1    2    0    0  0.53464041277E+01  0.44637315192E+02  0.54064437002E+03  0.55672471544E+03  0.12500000000E+03 0.  0.
         25    1    1    2    0    0 -0.53464041277E+01 -0.44637315192E+02  0.11548730845E+03  0.17602099976E+03  0.12500000000E+03 0.  0.
</event>
<event>
 4    0  0.2193754E-002  0.4648381E+03  0.7546771E-02  0.1023387E+00
         21   -1    0    0  502  501  0.00000000000E+00  0.00000000000E+00  0.14989023768E+03  0.14989023768E+03  0.00000000000E+00 0.  1.
         21   -1    0    0  501  502 -0.00000000000E+00 -0.00000000000E+00 -0.14415511836E+04  0.14415511836E+04  0.00000000000E+00 0.  1.
         25    1    1    2    0    0  0.11557752094E+03  0.94556702881E+02  0.76693485903E+02  0.20929888721E+03  0.12500000000E+03 0.  0.
         25    1    1    2    0    0 -0.11557752094E+03 -0.94556702881E+02 -0.13683544318E+04  0.13821425341E+04  0.12500000000E+03 0.  0.
</event>
<event>
 4    0  0.2193754E-002  0.2445442E+03  0.7546771E-02  0.1116802E+00
         21   -1    0    0  502  501  0.00000000000E+00  0.00000000000E+00  0.74937912795E+02  0.74937912795E+02  0.00000000000E+00 0.  1.
         21   -1    0    0  501  502 -0.00000000000E+00 -0.00000000000E+00 -0.79801865630E+03  0.79801865630E+03  0.00000000000E+00 0.  1.
         25    1    1    2    0    0 -0.20985677920E+03 -0.11407154519E+02 -0.36621573714E+03  0.44035094763E+03  0.12500000000E+03 0.  0.
         25    1    1    2    0    0  0.20985677920E+03  0.11407154519E+02 -0.35686500636E+03  0.43260562146E+03  0.12500000000E+03 0.  0.
</event>
<event>
 4    0  0.2193754E-002  0.2072606E+03  0.7546771E-02  0.1143754E+00
         21   -1    0    0  502  501  0.00000000000E+00  0.00000000000E+00  0.19142577839E+02  0.19142577839E+02  0.00000000000E+00 0. -1.
         21   -1    0    0  501  502 -0.00000000000E+00 -0.00000000000E+00 -0.22440534839E+04  0.22440534839E+04  0.00000000000E+00 0. -1.
         25    1    1    2    0    0 -0.73128610896E+02  0.84891666172E+02 -0.44874749243E+03  0.47911762718E+03  0.12500000000E+03 0.  0.
         25    1    1    2    0    0  0.73128610896E+02 -0.84891666172E+02 -0.17761634136E+04  0.17840784346E+04  0.12500000000E+03 0.  0.
</event>
<event>
 4    0  0.2193754E-002  0.2837439E+03  0.7546771E-02  0.1093662E+00
         21   -1    0    0  502  501  0.00000000000E+00  0.00000000000E+00  0.81143890859E+03  0.81143890859E+03  0.00000000000E+00 0.  1.
         21   -1    0    0  501  502 -0.00000000000E+00 -0.00000000000E+00 -0.99219521296E+02  0.99219521296E+02  0.00000000000E+00 0.  1.
         25    1    1    2    0    0 -0.16384293761E+03  0.47973112857E+02  0.52738597868E+02  0.21806486986E+03  0.12500000000E+03 0.  0.
         25    1    1    2    0    0  0.16384293761E+03 -0.47973112857E+02  0.65948078942E+03  0.69259356002E+03  0.12500000000E+03 0.  0.
</event>
<event>
 4    0  0.2193754E-002  0.3123430E+03  0.7546771E-02  0.1079228E+00
         21   -1    0    0  502  501  0.00000000000E+00  0.00000000000E+00  0.59265122115E+02  0.59265122115E+02  0.00000000000E+00 0.  1.
         21   -1    0    0  501  502 -0.00000000000E+00 -0.00000000000E+00 -0.16461314402E+04  0.16461314402E+04  0.00000000000E+00 0. -1.
         25    1    1    2    0    0  0.10586485680E+03  0.15202912209E+02 -0.68593869410E+02  0.17823752513E+03  0.12500000000E+03 0.  0.
         25    1    1    2    0    0 -0.10586485680E+03 -0.15202912209E+02 -0.15182724487E+04  0.15271590372E+04  0.12500000000E+03 0.  0.
</event>
<event>
 4    0  0.2193754E-002  0.2264904E+03  0.7546771E-02  0.1129135E+00
         21   -1    0    0  502  501  0.00000000000E+00  0.00000000000E+00  0.18224097295E+03  0.18224097295E+03  0.00000000000E+00 0.  1.
         21   -1    0    0  501  502 -0.00000000000E+00 -0.00000000000E+00 -0.28148387921E+03  0.28148387921E+03  0.00000000000E+00 0.  1.
         25    1    1    2    0    0 -0.10472867558E+03 -0.12110202911E+03 -0.15219325137E+03  0.25381407113E+03  0.12500000000E+03 0.  0.
         25    1    1    2    0    0  0.10472867558E+03  0.12110202911E+03  0.52950345101E+02  0.20991078103E+03  0.12500000000E+03 0.  0.
</event>
<event>
 4    0  0.2193754E-002  0.1981976E+03  0.7546771E-02  0.1151269E+00
         21   -1    0    0  502  501  0.00000000000E+00  0.00000000000E+00  0.12229361874E+03  0.12229361874E+03  0.00000000000E+00 0. -1.
         21   -1    0    0  501  502 -0.00000000000E+00 -0.00000000000E+00 -0.32121291411E+03  0.32121291411E+03  0.00000000000E+00 0. -1.
         25    1    1    2    0    0 -0.12270111384E+03 -0.92541286007E+02 -0.10634186272E+03  0.22484004252E+03  0.12500000000E+03 0.  0.
         25    1    1    2    0    0  0.12270111384E+03  0.92541286007E+02 -0.92577432642E+02  0.21866649032E+03  0.12500000000E+03 0.  0.
</event>
<event>
 4    0  0.2193754E-002  0.4153344E+03  0.7546771E-02  0.1038596E+00
         21   -1    0    0  502  501  0.00000000000E+00  0.00000000000E+00  0.11255795494E+04  0.11255795494E+04  0.00000000000E+00 0.  1.
         21   -1    0    0  501  502 -0.00000000000E+00 -0.00000000000E+00 -0.15325672373E+03  0.15325672373E+03  0.00000000000E+00 0. -1.
         25    1    1    2    0    0  0.33268272295E+03 -0.18177488900E+03  0.66275607164E+03  0.77368631558E+03  0.12500000000E+03 0.  0.
         25    1    1    2    0    0 -0.33268272295E+03  0.18177488900E+03  0.30956675403E+03  0.50514995756E+03  0.12500000000E+03 0.  0.
</event>
<event>
 4    0  0.2193754E-002  0.2891567E+03  0.7546771E-02  0.1090790E+00
         21   -1    0    0  502  501  0.00000000000E+00  0.00000000000E+00  0.82505820382E+03  0.82505820382E+03  0.00000000000E+00 0.  1.
         21   -1    0    0  501  502 -0.00000000000E+00 -0.00000000000E+00 -0.10134021772E+03  0.10134021772E+03  0.00000000000E+00 0.  1.
         25    1    1    2    0    0 -0.44854441261E+02  0.22825421417E+03  0.55054771583E+03  0.61060600602E+03  0.12500000000E+03 0.  0.
         25    1    1    2    0    0  0.44854441261E+02 -0.22825421417E+03  0.17317027027E+03  0.31579241551E+03  0.12500000000E+03 0.  0.
</event>
<event>
 4    0  0.2193754E-002  0.1903644E+03  0.7546771E-02  0.1158133E+00
         21   -1    0    0  502  501  0.00000000000E+00  0.00000000000E+00  0.19060712462E+03  0.19060712462E+03  0.00000000000E+00 0. -1.
         21   -1    0    0  501  502 -0.00000000000E+00 -0.00000000000E+00 -0.19012200036E+03  0.19012200036E+03  0.00000000000E+00 0. -1.
         25    1    1    2    0    0  0.46663601089E+02 -0.79782856880E+02 -0.10962477376E+03  0.19022456976E+03  0.12500000000E+03 0.  0.
         25    1    1    2    0    0 -0.46663601089E+02  0.79782856880E+02  0.11010989802E+03  0.19050455522E+03  0.12500000000E+03 0.  0.
</event>
<event>
 4    0  0.2193754E-002  0.2295598E+03  0.7546771E-02  0.1126950E+00
         21   -1    0    0  502  501  0.00000000000E+00  0.00000000000E+00  0.12740435984E+04  0.12740435984E+04  0.00000000000E+00 0. -1.
         21   -1    0    0  501  502 -0.00000000000E+00 -0.00000000000E+00 -0.41362572753E+02  0.41362572753E+02  0.00000000000E+00 0. -1.
         25    1    1    2    0    0  0.16434841486E+03 -0.99592043699E+01  0.90231806461E+03  0.92569567188E+03  0.12500000000E+03 0.  0.
         25    1    1    2    0    0 -0.16434841486E+03  0.99592043699E+01  0.33036296104E+03  0.38971049927E+03  0.12500000000E+03 0.  0.
</event>
<event>
 4    0  0.2193754E-002  0.1810132E+03  0.7546771E-02  0.1166826E+00
         21   -1    0    0  502  501  0.00000000000E+00  0.00000000000E+00  0.96582640676E+03  0.96582640676E+03  0.00000000000E+00 0.  1.
         21   -1    0    0  501  502 -0.00000000000E+00 -0.00000000000E+00 -0.33925119954E+02  0.33925119954E+02  0.00000000000E+00 0.  1.
         25    1    1    2    0    0 -0.46695149664E+02  0.11886768200E+03  0.38635235711E+03  0.42567958216E+03  0.12500000000E+03 0.  0.
         25    1    1    2    0    0  0.46695149664E+02 -0.11886768200E+03  0.54554892970E+03  0.57407194455E+03  0.12500000000E+03 0.  0.
</event>
<event>
 4    0  0.2193754E-002  0.3261638E+03  0.7546771E-02  0.1072847E+00
         21   -1    0    0  502  501  0.00000000000E+00  0.00000000000E+00  0.22475664962E+03  0.22475664962E+03  0.00000000000E+00 0. -1.
         21   -1    0    0  501  502 -0.00000000000E+00 -0.00000000000E+00 -0.47332458946E+03  0.47332458946E+03  0.00000000000E+00 0. -1.
         25    1    1    2    0    0  0.16323082527E+03  0.20940115957E+03  0.28054736082E+02  0.29479690664E+03  0.12500000000E+03 0.  0.
         25    1    1    2    0    0 -0.16323082527E+03 -0.20940115957E+03 -0.27662267592E+03  0.40328433243E+03  0.12500000000E+03 0.  0.
</event>
<event>
 4    0  0.2193754E-002  0.1885932E+03  0.7546771E-02  0.1159736E+00
         21   -1    0    0  502  501  0.00000000000E+00  0.00000000000E+00  0.24047205259E+02  0.24047205259E+02  0.00000000000E+00 0.  1.
         21   -1    0    0  501  502 -0.00000000000E+00 -0.00000000000E+00 -0.14790652721E+04  0.14790652721E+04  0.00000000000E+00 0.  1.
         25    1    1    2    0    0 -0.78956075562E+02  0.45893723581E+02 -0.11567524397E+04  0.11670653377E+04  0.12500000000E+03 0.  0.
         25    1    1    2    0    0  0.78956075562E+02 -0.45893723581E+02 -0.29826562715E+03  0.33604713965E+03  0.12500000000E+03 0.  0.
</event>
<event>
 4    0  0.2193754E-002  0.2171687E+03  0.7546771E-02  0.1136012E+00
         21   -1    0    0  502  501  0.00000000000E+00  0.00000000000E+00  0.31530241242E+03  0.31530241242E+03  0.00000000000E+00 0. -1.
         21   -1    0    0  501  502 -0.00000000000E+00 -0.00000000000E+00 -0.14957782760E+03  0.14957782760E+03  0.00000000000E+00 0. -1.
         25    1    1    2    0    0  0.35377539115E+02 -0.79232348767E+02  0.24870296543E+03  0.29156045750E+03  0.12500000000E+03 0.  0.
         25    1    1    2    0    0 -0.35377539115E+02  0.79232348767E+02 -0.82978380601E+02  0.17331978252E+03  0.12500000000E+03 0.  0.
</event>
<event>
 4    0  0.2193754E-002  0.2383450E+03  0.7546771E-02  0.1120900E+00
         21   -1    0    0  502  501  0.00000000000E+00  0.00000000000E+00  0.78331602128E+03  0.78331602128E+03  0.00000000000E+00 0.  1.
         21   -1    0    0  501  502 -0.00000000000E+00 -0.00000000000E+00 -0.72522906504E+02  0.72522906504E+02  0.00000000000E+00 0.  1.
         25    1    1    2    0    0 -0.23470305600E+02 -0.25496126307E+02  0.71439339263E+03  0.72607425732E+03  0.12500000000E+03 0.  0.
         25    1    1    2    0    0  0.23470305600E+02  0.25496126307E+02 -0.36002778538E+01  0.12976467047E+03  0.12500000000E+03 0.  0.
</event>
<event>
 4    0  0.2193754E-002  0.2053008E+03  0.7546771E-02  0.1145342E+00
         21   -1    0    0  502  501  0.00000000000E+00  0.00000000000E+00  0.58690956547E+03  0.58690956547E+03  0.00000000000E+00 0. -1.
         21   -1    0    0  501  502 -0.00000000000E+00 -0.00000000000E+00 -0.71814160146E+02  0.71814160146E+02  0.00000000000E+00 0. -1.
         25    1    1    2    0    0 -0.11113402710E+02 -0.16025666314E+03  0.30052683996E+03  0.36296981602E+03  0.12500000000E+03 0.  0.
         25    1    1    2    0    0  0.11113402710E+02  0.16025666314E+03  0.21456856536E+03  0.29575390960E+03  0.12500000000E+03 0.  0.
</event>
<event>
 4    0  0.2193754E-002  0.3155720E+03  0.7546771E-02  0.1077705E+00
         21   -1    0    0  502  501  0.00000000000E+00  0.00000000000E+00  0.26820085043E+03  0.26820085043E+03  0.00000000000E+00 0.  1.
         21   -1    0    0  501  502 -0.00000000000E+00 -0.00000000000E+00 -0.37131012866E+03  0.37131012866E+03  0.00000000000E+00 0.  1.
         25    1    1    2    0    0 -0.18262374104E+03  0.16577591783E+03  0.10253906010E+03  0.29491074000E+03  0.12500000000E+03 0.  0.
         25    1    1    2    0    0  0.18262374104E+03 -0.16577591783E+03 -0.20564833833E+03  0.34460023909E+03  0.12500000000E+03 0.  0.
</event>
<event>
 4    0  0.2193754E-002  0.2538401E+03  0.7546771E-02  0.1110902E+00
         21   -1    0    0  502  501  0.00000000000E+00  0.00000000000E+00  0.37895499879E+03  0.37895499879E+03  0.00000000000E+00 0. -1.
         21   -1    0    0  501  502 -0.00000000000E+00 -0.00000000000E+00 -0.17003290117E+03  0.17003290117E+03  0.00000000000E+00 0. -1.
         25    1    1    2    0    0 -0.20397935441E+03  0.47584871092E+00  0.19623078154E+03  0.30941771617E+03  0.12500000000E+03 0.  0.
         25    1    1    2    0    0  0.20397935441E+03 -0.47584871092E+00  0.12691316080E+02  0.23957018379E+03  0.12500000000E+03 0.  0.
</event>
<event>
 4    0  0.2193754E-002  0.2451265E+03  0.7546771E-02  0.1116424E+00
         21   -1    0    0  502  501  0.00000000000E+00  0.00000000000E+00  0.59769741279E+03  0.59769741279E+03  0.00000000000E+00 0. -1.
         21   -1    0    0  501  502 -0.00000000000E+00 -0.00000000000E+00 -0.10053076783E+03  0.10053076783E+03  0.00000000000E+00 0. -1.
         25    1    1    2    0    0  0.70048029951E+02 -0.15959670941E+03  0.79561642847E+02  0.22876383273E+03  0.12500000000E+03 0.  0.
         25    1    1    2    0    0 -0.70048029951E+02  0.15959670941E+03  0.41760500211E+03  0.46946434789E+03  0.12500000000E+03 0.  0.
</event>
<event>
 4    0  0.2193754E-002  0.1948939E+03  0.7546771E-02  0.1154120E+00
         21   -1    0    0  502  501  0.00000000000E+00  0.00000000000E+00  0.22123421265E+03  0.22123421265E+03  0.00000000000E+00 0. -1.
         21   -1    0    0  501  502 -0.00000000000E+00 -0.00000000000E+00 -0.17168966800E+03  0.17168966800E+03  0.00000000000E+00 0. -1.
         25    1    1    2    0    0 -0.12586788829E+02  0.10422397986E+03 -0.82562407775E+02  0.18292789948E+03  0.12500000000E+03 0.  0.
         25    1    1    2    0    0  0.12586788829E+02 -0.10422397986E+03  0.13210695243E+03  0.20999598118E+03  0.12500000000E+03 0.  0.
</event>
<event>
 4    0  0.2193754E-002  0.2153107E+03  0.7546771E-02  0.1137428E+00
         21   -1    0    0  502  501  0.00000000000E+00  0.00000000000E+00  0.29717306261E+02  0.29717306261E+02  0.00000000000E+00 0. -1.
         21   -1    0    0  501  502 -0.00000000000E+00 -0.00000000000E+00 -0.15599891754E+04  0.15599891754E+04  0.00000000000E+00 0. -1.
         25    1    1    2    0    0  0.86434040660E+02  0.41635784226E+02 -0.13068078675E+04  0.13162735978E+04  0.12500000000E+03 0.  0.
         25    1    1    2    0    0 -0.86434040660E+02 -0.41635784226E+02 -0.22346400172E+03  0.27343288386E+03  0.12500000000E+03 0.  0.
</event>
<event>
 4    0  0.2193754E-002  0.1668893E+03  0.7546771E-02  0.1181131E+00
         21   -1    0    0  502  501  0.00000000000E+00  0.00000000000E+00  0.55055317999E+02  0.55055317999E+02  0.00000000000E+00 0. -1.
         21   -1    0    0  501  502 -0.00000000000E+00 -0.00000000000E+00 -0.50589202453E+03  0.50589202453E+03  0.00000000000E+00 0. -1.
         25    1    1    2    0    0 -0.54361203894E+02  0.67419148525E+02 -0.34095940755E+03  0.37333470194E+03  0.12500000000E+03 0.  0.
         25    1    1    2    0    0  0.54361203894E+02 -0.67419148525E+02 -0.10987729898E+03  0.18761264058E+03  0.12500000000E+03 0.  0.
</event>
<event>
 4    0  0.2193754E-002  0.2891667E+03  0.7546771E-02  0.1090785E+00
         21   -1    0    0  502  501  0.00000000000E+00  0.00000000000E+00  0.28171796256E+03  0.28171796256E+03  0.00000000000E+00 0. -1.
         21   -1    0    0  501  502 -0.00000000000E+00 -0.00000000000E+00 -0.29681232423E+03  0.29681232423E+03  0.00000000000E+00 0. -1.
         25    1    1    2    0    0 -0.20797046305E+03 -0.61247553197E+02  0.13737930014E+03  0.28548388463E+03  0.12500000000E+03 0.  0.
         25    1    1    2    0    0  0.20797046305E+03  0.61247553197E+02 -0.15247366180E+03  0.29304640216E+03  0.12500000000E+03 0.  0.
</event>
<event>
 4    0  0.2193754E-002  0.2102638E+03  0.7546771E-02  0.1141357E+00
         21   -1    0    0  502  501  0.00000000000E+00  0.00000000000E+00  0.11572640399E+04  0.11572640399E+04  0.00000000000E+00 0.  1.
         21   -1    0    0  501  502 -0.00000000000E+00 -0.00000000000E+00 -0.38202921258E+02  0.38202921258E+02  0.00000000000E+00 0.  1.
         25    1    1    2    0    0  0.19744701059E+02  0.58822109384E+02  0.10066335425E+04  0.10162607848E+04  0.12500000000E+03 0.  0.
         25    1    1    2    0    0 -0.19744701059E+02 -0.58822109384E+02  0.11242757609E+03  0.17920617634E+03  0.12500000000E+03 0.  0.
</event>
<event>
 4    0  0.2193754E-002  0.1865192E+03  0.7546771E-02  0.1161639E+00
         21   -1    0    0  502  501  0.00000000000E+00  0.00000000000E+00  0.10990595693E+04  0.10990595693E+04  0.00000000000E+00 0. -1.
         21   -1    0    0  501  502 -0.00000000000E+00 -0.00000000000E+00 -0.31653796504E+02  0.31653796504E+02  0.00000000000E+00 0. -1.
         25    1    1    2    0    0  0.95146482876E+02  0.90633854599E+02  0.66572280096E+03  0.68998492485E+03  0.12500000000E+03 0.  0.
         25    1    1    2    0    0 -0.95146482876E+02 -0.90633854599E+02  0.40168297185E+03  0.44072844096E+03  0.12500000000E+03 0.  0.
</event>
<event>
 4    0  0.2193754E-002  0.2157352E+03  0.7546771E-02  0.1137103E+00
         21   -1    0    0  502  501  0.00000000000E+00  0.00000000000E+00  0.43238649588E+02  0.43238649588E+02  0.00000000000E+00 0.  1.
         21   -1    0    0  501  502 -0.00000000000E+00 -0.00000000000E+00 -0.10763908291E+04  0.10763908291E+04  0.00000000000E+00 0.  1.
         25    1    1    2    0    0 -0.12418513900E+03  0.12172415788E+03 -0.44901021608E+03  0.49746747984E+03  0.12500000000E+03 0.  0.
         25    1    1    2    0    0  0.12418513900E+03 -0.12172415788E+03 -0.58414196342E+03  0.62216199883E+03  0.12500000000E+03 0.  0.
</event>
<event>
 4    0  0.2193754E-002  0.2379337E+03  0.7546771E-02  0.1121177E+00
         21   -1    0    0  502  501  0.00000000000E+00  0.00000000000E+00  0.46016517614E+02  0.46016517614E+02  0.00000000000E+00 0. -1.
         21   -1    0    0  501  502 -0.00000000000E+00 -0.00000000000E+00 -0.12302637559E+04  0.12302637559E+04  0.00000000000E+00 0. -1.
         25    1    1    2    0    0  0.12957923354E+03  0.94141135960E+02 -0.26000781972E+03  0.32997332856E+03  0.12500000000E+03 0.  0.
         25    1    1    2    0    0 -0.12957923354E+03 -0.94141135960E+02 -0.92423941861E+03  0.94630694500E+03  0.12500000000E+03 0.  0.
</event>
<event>
 4    0  0.2193754E-002  0.1867443E+03  0.7546771E-02  0.1161431E+00
         21   -1    0    0  502  501  0.00000000000E+00  0.00000000000E+00  0.21257877564E+03  0.21257877564E+03  0.00000000000E+00 0.  1.
         21   -1    0    0  501  502 -0.00000000000E+00 -0.00000000000E+00 -0.16404952856E+03  0.16404952856E+03  0.00000000000E+00 0.  1.
         25    1    1    2    0    0 -0.62300638190E+02  0.26279415966E+00 -0.10074118481E+03  0.17220692465E+03  0.12500000000E+03 0.  0.
         25    1    1    2    0    0  0.62300638190E+02 -0.26279415966E+00  0.14927043189E+03  0.20442137955E+03  0.12500000000E+03 0.  0.
</event>
<event>
 4    0  0.2193754E-002  0.2596675E+03  0.7546771E-02  0.1107343E+00
         21   -1    0    0  502  501  0.00000000000E+00  0.00000000000E+00  0.42898708249E+03  0.42898708249E+03  0.00000000000E+00 0.  1.
         21   -1    0    0  501  502 -0.00000000000E+00 -0.00000000000E+00 -0.15717777312E+03  0.15717777312E+03  0.00000000000E+00 0.  1.
         25    1    1    2    0    0  0.47609367487E+02  0.21042919081E+03  0.21772553998E+03  0.33102342361E+03  0.12500000000E+03 0.  0.
         25    1    1    2    0    0 -0.47609367487E+02 -0.21042919081E+03  0.54083769388E+02  0.25514143201E+03  0.12500000000E+03 0.  0.
</event>
<event>
 4    0  0.2193754E-002  0.2626205E+03  0.7546771E-02  0.1105579E+00
         21   -1    0    0  502  501  0.00000000000E+00  0.00000000000E+00  0.13182426585E+03  0.13182426585E+03  0.00000000000E+00 0. -1.
         21   -1    0    0  501  502 -0.00000000000E+00 -0.00000000000E+00 -0.52319298333E+03  0.52319298333E+03  0.00000000000E+00 0. -1.
         25    1    1    2    0    0 -0.65675383363E+01  0.70776940553E+02  0.78366902203E+02  0.16376470693E+03  0.12500000000E+03 0.  0.
         25    1    1    2    0    0  0.65675383363E+01 -0.70776940553E+02 -0.46973561968E+03  0.49125254225E+03  0.12500000000E+03 0.  0.
</event>
<event>
 4    0  0.2193754E-002  0.2226648E+03  0.7546771E-02  0.1131912E+00
         21   -1    0    0  502  501  0.00000000000E+00  0.00000000000E+00  0.24069235290E+03  0.24069235290E+03  0.00000000000E+00 0.  1.
         21   -1    0    0  501  502 -0.00000000000E+00 -0.00000000000E+00 -0.20598751470E+03  0.20598751470E+03  0.00000000000E+00 0.  1.
         25    1    1    2    0    0 -0.49380802513E+02 -0.81904082609E+02  0.17533514007E+03  0.23561441753E+03  0.12500000000E+03 0.  0.
         25    1    1    2    0    0  0.49380802513E+02  0.81904082609E+02 -0.14063030188E+03  0.21106545007E+03  0.12500000000E+03 0.  0.
</event>
<event>
 4    0  0.2193754E-002  0.1743821E+03  0.7546771E-02  0.1173354E+00
         21   -1    0    0  502  501  0.00000000000E+00  0.00000000000E+00  0.24361098440E+02  0.24361098440E+02  0.00000000000E+00 0. -1.
         21   -1    0    0  501  502 -0.00000000000E+00 -0.00000000000E+00 -0.12482654692E+04  0.12482654692E+04  0.00000000000E+00 0. -1.
         25    1    1    2    0    0  0.74734726272E+02 -0.75193957353E+02 -0.39470243984E+03  0.42738089165E+03  0.12500000000E+03 0.  0.
         25    1    1    2    0    0 -0.74734726272E+02  0.75193957353E+02 -0.82920193090E+03  0.84524567596E+03  0.12500000000E+03 0.  0.
</event>
<event>
 4    0  0.2193754E-002  0.2270444E+03  0.7546771E-02  0.1128737E+00
         21   -1    0    0  502  501  0.00000000000E+00  0.00000000000E+00  0.12897603586E+03  0.12897603586E+03  0.00000000000E+00 0. -1.
         21   -1    0    0  501  502 -0.00000000000E+00 -0.00000000000E+00 -0.39968028511E+03  0.39968028511E+03  0.00000000000E+00 0. -1.
         25    1    1    2    0    0  0.18180675624E+03  0.29488421699E+02 -0.83275012221E+02  0.23766150569E+03  0.12500000000E+03 0.  0.
         25    1    1    2    0    0 -0.18180675624E+03 -0.29488421699E+02 -0.18742923703E+03  0.29099481528E+03  0.12500000000E+03 0.  0.
</event>
<event>
 4    0  0.2193754E-002  0.2101246E+03  0.7546771E-02  0.1141467E+00
         21   -1    0    0  502  501  0.00000000000E+00  0.00000000000E+00  0.11501396876E+04  0.11501396876E+04  0.00000000000E+00 0. -1.
         21   -1    0    0  501  502 -0.00000000000E+00 -0.00000000000E+00 -0.38388671541E+02  0.38388671541E+02  0.00000000000E+00 0. -1.
         25    1    1    2    0    0 -0.10012069274E+03  0.65712320567E+02  0.21903951181E+03  0.27918733840E+03  0.12500000000E+03 0.  0.
         25    1    1    2    0    0  0.10012069274E+03 -0.65712320567E+02  0.89271150423E+03  0.90934102073E+03  0.12500000000E+03 0.  0.
</event>
<event>
 4    0  0.2193754E-002  0.2565198E+03  0.7546771E-02  0.1109252E+00
         21   -1    0    0  502  501  0.00000000000E+00  0.00000000000E+00  0.55031253202E+02  0.55031253202E+02  0.00000000000E+00 0. -1.
         21   -1    0    0  501  502 -0.00000000000E+00 -0.00000000000E+00 -0.11957283588E+04  0.11957283588E+04  0.00000000000E+00 0. -1.
         25    1    1    2    0    0  0.15750311157E+03 -0.45798988076E+02 -0.94226538209E+03  0.96456924466E+03  0.12500000000E+03 0.  0.
         25    1    1    2    0    0 -0.15750311157E+03  0.45798988076E+02 -0.19843172350E+03  0.28619036734E+03  0.12500000000E+03 0.  0.
</event>
<event>
 4    0  0.2193754E-002  0.2493307E+03  0.7546771E-02  0.1113729E+00
         21   -1    0    0  502  501  0.00000000000E+00  0.00000000000E+00  0.14499722907E+04  0.14499722907E+04  0.00000000000E+00 0. -1.
         21   -1    0    0  501  502 -0.00000000000E+00 -0.00000000000E+00 -0.42873800580E+02  0.42873800580E+02  0.00000000000E+00 0. -1.
         25    1    1    2    0    0 -0.14694120047E+03  0.91861721206E+02  0.10882204802E+04  0.11089991460E+04  0.12500000000E+03 0.  0.
         25    1    1    2    0    0  0.14694120047E+03 -0.91861721206E+02  0.31887800990E+03  0.38384694530E+03  0.12500000000E+03 0.  0.
</event>
<event>
 4    0  0.2193754E-002  0.3918579E+03  0.7546771E-02  0.1046636E+00
         21   -1    0    0  502  501  0.00000000000E+00  0.00000000000E+00  0.39647686653E+03  0.39647686653E+03  0.00000000000E+00 0. -1.
         21   -1    0    0  501  502 -0.00000000000E+00 -0.00000000000E+00 -0.38729269068E+03  0.38729269068E+03  0.00000000000E+00 0. -1.
         25    1    1    2    0    0  0.25981187756E+03  0.85351651347E+01  0.26985081659E+03  0.39499306826E+03  0.12500000000E+03 0.  0.
         25    1    1    2    0    0 -0.25981187756E+03 -0.85351651347E+01 -0.26066664074E+03  0.38877648895E+03  0.12500000000E+03 0.  0.
</event>
<event>
 4    0  0.2193754E-002  0.2937789E+03  0.7546771E-02  0.1088392E+00
         21   -1    0    0  502  501  0.00000000000E+00  0.00000000000E+00  0.15655776375E+03  0.15655776375E+03  0.00000000000E+00 0.  1.
         21   -1    0    0  501  502 -0.00000000000E+00 -0.00000000000E+00 -0.55127299595E+03  0.55127299595E+03  0.00000000000E+00 0.  1.
         25    1    1    2    0    0  0.17018798880E+03  0.14911608489E+03 -0.29210249474E+02  0.26014956655E+03  0.12500000000E+03 0.  0.
         25    1    1    2    0    0 -0.17018798880E+03 -0.14911608489E+03 -0.36550498272E+03  0.44768119315E+03  0.12500000000E+03 0.  0.
</event>
<event>
 4    0  0.2193754E-002  0.2153218E+03  0.7546771E-02  0.1137420E+00
         21   -1    0    0  502  501  0.00000000000E+00  0.00000000000E+00  0.92550652459E+03  0.92550652459E+03  0.00000000000E+00 0.  1.
         21   -1    0    0  501  502 -0.00000000000E+00 -0.00000000000E+00 -0.50095233309E+02  0.50095233309E+02  0.00000000000E+00 0.  1.
         25    1    1    2    0    0 -0.96180640583E+02 -0.20451883726E+02  0.10886806750E+03  0.19273362782E+03  0.12500000000E+03 0.  0.
         25    1    1    2    0    0  0.96180640583E+02  0.20451883726E+02  0.76654322378E+03  0.78286813008E+03  0.12500000000E+03 0.  0.
</event>
<event>
 4    0  0.2193754E-002  0.2013640E+03  0.7546771E-02  0.1148593E+00
         21   -1    0    0  502  501  0.00000000000E+00  0.00000000000E+00  0.59417878441E+02  0.59417878441E+02  0.00000000000E+00 0.  1.
         21   -1    0    0  501  502 -0.00000000000E+00 -0.00000000000E+00 -0.68241145489E+03  0.68241145489E+03  0.00000000000E+00 0.  1.
         25    1    1    2    0    0 -0.21694814991E+02  0.15635413459E+03 -0.31568122496E+03  0.37442878655E+03  0.12500000000E+03 0.  0.
         25    1    1    2    0    0  0.21694814991E+02 -0.15635413459E+03 -0.30731235149E+03  0.36740054679E+03  0.12500000000E+03 0.  0.
</event>
<event>
 4    0  0.2193754E-002  0.2444513E+03  0.7546771E-02  0.1116863E+00
         21   -1    0    0  502  501  0.00000000000E+00  0.00000000000E+00  0.76801888329E+03  0.76801888329E+03  0.00000000000E+00 0. -1.
         21   -1    0    0  501  502 -0.00000000000E+00 -0.00000000000E+00 -0.77805935585E+02  0.77805935585E+02  0.00000000000E+00 0. -1.
         25    1    1    2    0    0 -0.31481403730E+02  0.12580694038E+03  0.63102514788E+03  0.65622877283E+03  0.12500000000E+03 0.  0.
         25    1    1    2    0    0  0.31481403730E+02 -0.12580694038E+03  0.59187799819E+02  0.18959604604E+03  0.12500000000E+03 0.  0.
</event>
<event>
 4    0  0.2193754E-002  0.2080793E+03  0.7546771E-02  0.1143096E+00
         21   -1    0    0  502  501  0.00000000000E+00  0.00000000000E+00  0.57097263163E+03  0.57097263163E+03  0.00000000000E+00 0.  1.
         21   -1    0    0  501  502 -0.00000000000E+00 -0.00000000000E+00 -0.75830239610E+02  0.75830239610E+02  0.00000000000E+00 0.  1.
         25    1    1    2    0    0 -0.52624925489E+02  0.83726518020E+02  0.39674139774E+02  0.16425148392E+03  0.12500000000E+03 0.  0.
         25    1    1    2    0    0  0.52624925489E+02 -0.83726518020E+02  0.45546825224E+03  0.48255138732E+03  0.12500000000E+03 0.  0.
</event>
<event>
 4    0  0.2193754E-002  0.1655581E+03  0.7546771E-02  0.1182561E+00
         21   -1    0    0  502  501  0.00000000000E+00  0.00000000000E+00  0.65922818697E+02  0.65922818697E+02  0.00000000000E+00 0. -1.
         21   -1    0    0  501  502 -0.00000000000E+00 -0.00000000000E+00 -0.41578126512E+03  0.41578126512E+03  0.00000000000E+00 0. -1.
         25    1    1    2    0    0  0.57380513081E+02  0.40510064502E+02 -0.29534220426E+03  0.32830718272E+03  0.12500000000E+03 0.  0.
         25    1    1    2    0    0 -0.57380513081E+02 -0.40510064502E+02 -0.54516242164E+02  0.15339690110E+03  0.12500000000E+03 0.  0.
</event>
<event>
 4    0  0.2193754E-002  0.2676247E+03  0.7546771E-02  0.1102647E+00
         21   -1    0    0  502  501  0.00000000000E+00  0.00000000000E+00  0.71035134049E+03  0.71035134049E+03  0.00000000000E+00 0. -1.
         21   -1    0    0  501  502 -0.00000000000E+00 -0.00000000000E+00 -0.10082752947E+03  0.10082752947E+03  0.00000000000E+00 0. -1.
         25    1    1    2    0    0  0.13477371718E+03 -0.18392139505E+03  0.40069461014E+03  0.47767374325E+03  0.12500000000E+03 0.  0.
         25    1    1    2    0    0 -0.13477371718E+03  0.18392139505E+03  0.20882920088E+03  0.33350512671E+03  0.12500000000E+03 0.  0.
</event>
<event>
 4    0  0.2193754E-002  0.2118306E+03  0.7546771E-02  0.1140125E+00
         21   -1    0    0  502  501  0.00000000000E+00  0.00000000000E+00  0.35503896430E+03  0.35503896430E+03  0.00000000000E+00 0.  1.
         21   -1    0    0  501  502 -0.00000000000E+00 -0.00000000000E+00 -0.12638666999E+03  0.12638666999E+03  0.00000000000E+00 0.  1.
         25    1    1    2    0    0  0.17077151481E+03  0.65057220363E+01  0.10696549093E+03  0.23721688586E+03  0.12500000000E+03 0.  0.
         25    1    1    2    0    0 -0.17077151481E+03 -0.65057220363E+01  0.12168680339E+03  0.24420874842E+03  0.12500000000E+03 0.  0.
</event>
<event>
 4    0  0.2193754E-002  0.3614171E+03  0.7546771E-02  0.1058024E+00
         21   -1    0    0  502  501  0.00000000000E+00  0.00000000000E+00  0.32398938396E+03  0.32398938396E+03  0.00000000000E+00 0. -1.
         21   -1    0    0  501  502 -0.00000000000E+00 -0.00000000000E+00 -0.40316849832E+03  0.40316849832E+03  0.00000000000E+00 0. -1.
         25    1    1    2    0    0 -0.20508793433E+03 -0.24382394236E+03  0.77234915735E+02  0.35085810220E+03  0.12500000000E+03 0.  0.
         25    1    1    2    0    0  0.20508793433E+03  0.24382394236E+03 -0.15641403010E+03  0.37629978008E+03  0.12500000000E+03 0.  0.
</event>
<event>
 4    0  0.2193754E-002  0.2646226E+03  0.7546771E-02  0.1104397E+00
         21   -1    0    0  502  501  0.00000000000E+00  0.00000000000E+00  0.71996084231E+03  0.71996084231E+03  0.00000000000E+00 0.  1.
         21   -1    0    0  501  502 -0.00000000000E+00 -0.00000000000E+00 -0.97262428347E+02  0.97262428347E+02  0.00000000000E+00 0.  1.
         25    1    1    2    0    0 -0.12644922597E+03 -0.10422405211E+03  0.56763787555E+03  0.60389553529E+03  0.12500000000E+03 0.  0.
         25    1    1    2    0    0  0.12644922597E+03  0.10422405211E+03  0.55060538418E+02  0.21332773537E+03  0.12500000000E+03 0.  0.
</event>
<event>
 4    0  0.2193754E-002  0.2935993E+03  0.7546771E-02  0.1088485E+00
         21   -1    0    0  502  501  0.00000000000E+00  0.00000000000E+00  0.12826300590E+04  0.12826300590E+04  0.00000000000E+00 0.  1.
         21   -1    0    0  501  502 -0.00000000000E+00 -0.00000000000E+00 -0.67206108463E+02  0.67206108463E+02  0.00000000000E+00 0.  1.
         25    1    1    2    0    0  0.12922924378E+03  0.22211205485E+03  0.45279428183E+03  0.53542658135E+03  0.12500000000E+03 0.  0.
         25    1    1    2    0    0 -0.12922924378E+03 -0.22211205485E+03  0.76262966869E+03  0.81440958609E+03  0.12500000000E+03 0.  0.
</event>
<event>
 4    0  0.2193754E-002  0.2133843E+03  0.7546771E-02  0.1138914E+00
         21   -1    0    0  502  501  0.00000000000E+00  0.00000000000E+00  0.10668217919E+03  0.10668217919E+03  0.00000000000E+00 0. -1.
         21   -1    0    0  501  502 -0.00000000000E+00 -0.00000000000E+00 -0.42680843229E+03  0.42680843229E+03  0.00000000000E+00 0. -1.
         25    1    1    2    0    0  0.95930393595E+02  0.91889007259E+01 -0.33957239085E+03  0.37446159341E+03  0.12500000000E+03 0.  0.
         25    1    1    2    0    0 -0.95930393595E+02 -0.91889007259E+01  0.19446137751E+02  0.15902901806E+03  0.12500000000E+03 0.  0.
</event>
<event>
 4    0  0.2193754E-002  0.3217733E+03  0.7546771E-02  0.1074836E+00
         21   -1    0    0  502  501  0.00000000000E+00  0.00000000000E+00  0.11200014853E+04  0.11200014853E+04  0.00000000000E+00 0.  1.
         21   -1    0    0  501  502 -0.00000000000E+00 -0.00000000000E+00 -0.92444596721E+02  0.92444596721E+02  0.00000000000E+00 0.  1.
         25    1    1    2    0    0  0.18208689406E+03 -0.46580231287E+02  0.94581907207E+03  0.97238062097E+03  0.12500000000E+03 0.  0.
         25    1    1    2    0    0 -0.18208689406E+03  0.46580231287E+02  0.81737816477E+02  0.24006546103E+03  0.12500000000E+03 0.  0.
</event>
<event>
 4    0  0.2193754E-002  0.2089368E+03  0.7546771E-02  0.1142411E+00
         21   -1    0    0  502  501  0.00000000000E+00  0.00000000000E+00  0.19462638756E+03  0.19462638756E+03  0.00000000000E+00 0.  1.
         21   -1    0    0  501  502 -0.00000000000E+00 -0.00000000000E+00 -0.22429950548E+03  0.22429950548E+03  0.00000000000E+00 0.  1.
         25    1    1    2    0    0 -0.39098328654E+02  0.12900757503E+03  0.84700753024E+02  0.20241257689E+03  0.12500000000E+03 0.  0.
         25    1    1    2    0    0  0.39098328654E+02 -0.12900757503E+03 -0.11437387093E+03  0.21651331615E+03  0.12500000000E+03 0.  0.
</event>
<event>
 4    0  0.2193754E-002  0.2241780E+03  0.7546771E-02  0.1130806E+00
         21   -1    0    0  502  501  0.00000000000E+00  0.00000000000E+00  0.22779407659E+02  0.22779407659E+02  0.00000000000E+00 0. -1.
         21   -1    0    0  501  502 -0.00000000000E+00 -0.00000000000E+00 -0.22061929154E+04  0.22061929154E+04  0.00000000000E+00 0. -1.
         25    1    1    2    0    0 -0.22211254545E+02 -0.10914958857E+03 -0.35058282109E+03  0.38851034344E+03  0.12500000000E+03 0.  0.
         25    1    1    2    0    0  0.22211254545E+02  0.10914958857E+03 -0.18328306867E+04  0.18404619796E+04  0.12500000000E+03 0.  0.
</event>
<event>
 4    0  0.2193754E-002  0.2187378E+03  0.7546771E-02  0.1134828E+00
         21   -1    0    0  502  501  0.00000000000E+00  0.00000000000E+00  0.70530109907E+02  0.70530109907E+02  0.00000000000E+00 0.  1.
         21   -1    0    0  501  502 -0.00000000000E+00 -0.00000000000E+00 -0.67837987659E+03  0.67837987659E+03  0.00000000000E+00 0.  1.
         25    1    1    2    0    0  0.14736305123E+03 -0.33764034657E+02 -0.46959240364E+03  0.50891836719E+03  0.12500000000E+03 0.  0.
         25    1    1    2    0    0 -0.14736305123E+03  0.33764034657E+02 -0.13825736305E+03  0.23999161931E+03  0.12500000000E+03 0.  0.
</event>
<event>
 4    0  0.2193754E-002  0.1848426E+03  0.7546771E-02  0.1163197E+00
         21   -1    0    0  502  501  0.00000000000E+00  0.00000000000E+00  0.14323625105E+03  0.14323625105E+03  0.00000000000E+00 0. -1.
         21   -1    0    0  501  502 -0.00000000000E+00 -0.00000000000E+00 -0.23853452261E+03  0.23853452261E+03  0.00000000000E+00 0. -1.
         25    1    1    2    0    0  0.19522614758E+02  0.72034031365E+02  0.69967833367E+02  0.16152563842E+03  0.12500000000E+03 0.  0.
         25    1    1    2    0    0 -0.19522614758E+02 -0.72034031365E+02 -0.16526610492E+03  0.22024513524E+03  0.12500000000E+03 0.  0.
</event>
<event>
 4    0  0.2193754E-002  0.2180381E+03  0.7546771E-02  0.1135354E+00
         21   -1    0    0  502  501  0.00000000000E+00  0.00000000000E+00  0.54911119331E+03  0.54911119331E+03  0.00000000000E+00 0. -1.
         21   -1    0    0  501  502 -0.00000000000E+00 -0.00000000000E+00 -0.86577372339E+02  0.86577372339E+02  0.00000000000E+00 0. -1.
         25    1    1    2    0    0 -0.16020718682E+03 -0.15863418350E+01  0.34648188976E+03  0.40167593794E+03  0.12500000000E+03 0.  0.
         25    1    1    2    0    0  0.16020718682E+03  0.15863418350E+01  0.11605193122E+03  0.23401262772E+03  0.12500000000E+03 0.  0.
</event>
<event>
 4    0  0.2193754E-002  0.2756950E+03  0.7546771E-02  0.1098064E+00
         21   -1    0    0  502  501  0.00000000000E+00  0.00000000000E+00  0.92065853547E+02  0.92065853547E+02  0.00000000000E+00 0.  1.
         21   -1    0    0  501  502 -0.00000000000E+00 -0.00000000000E+00 -0.82558005235E+03  0.82558005235E+03  0.00000000000E+00 0.  1.
         25    1    1    2    0    0  0.17449430838E+03  0.15199345934E+03 -0.22919313058E+03  0.34886210233E+03  0.12500000000E+03 0.  0.
         25    1    1    2    0    0 -0.17449430838E+03 -0.15199345934E+03 -0.50432106823E+03  0.56878380357E+03  0.12500000000E+03 0.  0.
</event>
<event>
 4    0  0.2193754E-002  0.2078446E+03  0.7546771E-02  0.1143284E+00
         21   -1    0    0  502  501  0.00000000000E+00  0.00000000000E+00  0.81832448190E+02  0.81832448190E+02  0.00000000000E+00 0. -1.
         21   -1    0    0  501  502 -0.00000000000E+00 -0.00000000000E+00 -0.52790059531E+03  0.52790059531E+03  0.00000000000E+00 0. -1.
         25    1    1    2    0    0 -0.16368184121E+03  0.27504817114E+02 -0.23053313865E+03  0.31035268345E+03  0.12500000000E+03 0.  0.
         25    1    1    2    0    0  0.16368184121E+03 -0.27504817114E+02 -0.21553500846E+03  0.29938036005E+03  0.12500000000E+03 0.  0.
</event>
<event>
 4    0  0.2193754E-002  0.2131010E+03  0.7546771E-02  0.1139134E+00
         21   -1    0    0  502  501  0.00000000000E+00  0.00000000000E+00  0.88026806214E+03  0.88026806214E+03  0.00000000000E+00 0. -1.
         21   -1    0    0  501  502 -0.00000000000E+00 -0.00000000000E+00 -0.51588873100E+02  0.51588873100E+02  0.00000000000E+00 0. -1.
         25    1    1    2    0    0  0.97161521351E+02 -0.22777190045E+02  0.10646642191E+03  0.19214385395E+03  0.12500000000E+03 0.  0.
         25    1    1    2    0    0 -0.97161521351E+02  0.22777190045E+02  0.72221276713E+03  0.73971308129E+03  0.12500000000E+03 0.  0.
</event>
<event>
 4    0  0.2193754E-002  0.3301880E+03  0.7546771E-02  0.1071054E+00
         21   -1    0    0  502  501  0.00000000000E+00  0.00000000000E+00  0.93322439443E+03  0.93322439443E+03  0.00000000000E+00 0. -1.
         21   -1    0    0  501  502 -0.00000000000E+00 -0.00000000000E+00 -0.11682517462E+03  0.11682517462E+03  0.00000000000E+00 0. -1.
         25    1    1    2    0    0 -0.82014155493E+01  0.44674179289E+02 -0.72351599865E+02  0.15140277248E+03  0.12500000000E+03 0.  0.
         25    1    1    2    0    0  0.82014155493E+01 -0.44674179289E+02  0.88875081967E+03  0.89864679656E+03  0.12500000000E+03 0.  0.
</event>
<event>
 4    0  0.2193754E-002  0.1850378E+03  0.7546771E-02  0.1163015E+00
         21   -1    0    0  502  501  0.00000000000E+00  0.00000000000E+00  0.78508542589E+03  0.78508542589E+03  0.00000000000E+00 0.  1.
         21   -1    0    0  501  502 -0.00000000000E+00 -0.00000000000E+00 -0.43611813335E+02  0.43611813335E+02  0.00000000000E+00 0.  1.
         25    1    1    2    0    0  0.10226849365E+03  0.71763901958E+02  0.49349050508E+03  0.52418201134E+03  0.12500000000E+03 0.  0.
         25    1    1    2    0    0 -0.10226849365E+03 -0.71763901958E+02  0.24798310748E+03  0.30451522789E+03  0.12500000000E+03 0.  0.
</event>
<event>
 4    0  0.2193754E-002  0.2161028E+03  0.7546771E-02  0.1136822E+00
         21   -1    0    0  502  501  0.00000000000E+00  0.00000000000E+00  0.85744878330E+02  0.85744878330E+02  0.00000000000E+00 0. -1.
         21   -1    0    0  501  502 -0.00000000000E+00 -0.00000000000E+00 -0.54464369029E+03  0.54464369029E+03  0.00000000000E+00 0. -1.
         25    1    1    2    0    0  0.31997173666E+02 -0.17198404847E+03 -0.26117304194E+03  0.33828788019E+03  0.12500000000E+03 0.  0.
         25    1    1    2    0    0 -0.31997173666E+02  0.17198404847E+03 -0.19772577002E+03  0.29210068843E+03  0.12500000000E+03 0.  0.
</event>
<event>
 4    0  0.2193754E-002  0.1810243E+03  0.7546771E-02  0.1166815E+00
         21   -1    0    0  502  501  0.00000000000E+00  0.00000000000E+00  0.32092594881E+03  0.32092594881E+03  0.00000000000E+00 0. -1.
         21   -1    0    0  501  502 -0.00000000000E+00 -0.00000000000E+00 -0.10211009820E+03  0.10211009820E+03  0.00000000000E+00 0. -1.
         25    1    1    2    0    0 -0.76693705107E+02  0.10510355571E+03  0.92231360547E+02  0.20263342689E+03  0.12500000000E+03 0.  0.
         25    1    1    2    0    0  0.76693705107E+02 -0.10510355571E+03  0.12658449007E+03  0.22040262011E+03  0.12500000000E+03 0.  0.
</event>
<event>
 4    0  0.2193754E-002  0.3247417E+03  0.7546771E-02  0.1073487E+00
         21   -1    0    0  502  501  0.00000000000E+00  0.00000000000E+00  0.47220864686E+03  0.47220864686E+03  0.00000000000E+00 0.  1.
         21   -1    0    0  501  502 -0.00000000000E+00 -0.00000000000E+00 -0.22332750806E+03  0.22332750806E+03  0.00000000000E+00 0.  1.
         25    1    1    2    0    0 -0.21347721857E+03 -0.38523897580E+02  0.34592822359E+03  0.42702218843E+03  0.12500000000E+03 0.  0.
         25    1    1    2    0    0  0.21347721857E+03  0.38523897580E+02 -0.97047084791E+02  0.26851396649E+03  0.12500000000E+03 0.  0.
</event>
<event>
 4    0  0.2193754E-002  0.2399617E+03  0.7546771E-02  0.1119818E+00
         21   -1    0    0  502  501  0.00000000000E+00  0.00000000000E+00  0.29060433465E+02  0.29060433465E+02  0.00000000000E+00 0.  1.
         21   -1    0    0  501  502 -0.00000000000E+00 -0.00000000000E+00 -0.19814430674E+04  0.19814430674E+04  0.00000000000E+00 0.  1.
         25    1    1    2    0    0 -0.26402822278E+02 -0.10294610687E+03 -0.24264035354E+03  0.29290672767E+03  0.12500000000E+03 0.  0.
         25    1    1    2    0    0  0.26402822278E+02  0.10294610687E+03 -0.17097422804E+04  0.17175967732E+04  0.12500000000E+03 0.  0.
</event>
<event>
 4    0  0.2193754E-002  0.2604205E+03  0.7546771E-02  0.1106891E+00
         21   -1    0    0  502  501  0.00000000000E+00  0.00000000000E+00  0.59021872400E+02  0.59021872400E+02  0.00000000000E+00 0.  1.
         21   -1    0    0  501  502 -0.00000000000E+00 -0.00000000000E+00 -0.11490459021E+04  0.11490459021E+04  0.00000000000E+00 0.  1.
         25    1    1    2    0    0 -0.86161099965E+02  0.52673858043E+02 -0.69690071304E+02  0.17515700530E+03  0.12500000000E+03 0.  0.
         25    1    1    2    0    0  0.86161099965E+02 -0.52673858043E+02 -0.10203339584E+04  0.10329107692E+04  0.12500000000E+03 0.  0.
</event>
<event>
 4    0  0.2193754E-002  0.2389207E+03  0.7546771E-02  0.1120514E+00
         21   -1    0    0  502  501  0.00000000000E+00  0.00000000000E+00  0.79712848177E+02  0.79712848177E+02  0.00000000000E+00 0.  1.
         21   -1    0    0  501  502 -0.00000000000E+00 -0.00000000000E+00 -0.71610916608E+03  0.71610916608E+03  0.00000000000E+00 0.  1.
         25    1    1    2    0    0  0.33051960902E+02  0.41473511322E+02 -0.64560088840E+03  0.65972569403E+03  0.12500000000E+03 0.  0.
         25    1    1    2    0    0 -0.33051960902E+02 -0.41473511322E+02  0.92045704974E+01  0.13609632023E+03  0.12500000000E+03 0.  0.
</event>
<event>
 4    0  0.2193754E-002  0.2753101E+03  0.7546771E-02  0.1098278E+00
         21   -1    0    0  502  501  0.00000000000E+00  0.00000000000E+00  0.11162825300E+04  0.11162825300E+04  0.00000000000E+00 0. -1.
         21   -1    0    0  501  502 -0.00000000000E+00 -0.00000000000E+00 -0.67900083211E+02  0.67900083211E+02  0.00000000000E+00 0. -1.
         25    1    1    2    0    0 -0.14633718849E+03  0.10120015834E+03  0.16102926281E+03  0.27057617830E+03  0.12500000000E+03 0.  0.
         25    1    1    2    0    0  0.14633718849E+03 -0.10120015834E+03  0.88735318399E+03  0.91360643492E+03  0.12500000000E+03 0.  0.
</event>
<event>
 4    0  0.2193754E-002  0.2122651E+03  0.7546771E-02  0.1139785E+00
         21   -1    0    0  502  501  0.00000000000E+00  0.00000000000E+00  0.28969992456E+02  0.28969992456E+02  0.00000000000E+00 0. -1.
         21   -1    0    0  501  502 -0.00000000000E+00 -0.00000000000E+00 -0.15552812005E+04  0.15552812005E+04  0.00000000000E+00 0. -1.
         25    1    1    2    0    0 -0.12397692737E+03 -0.72258661074E+02 -0.11140196564E+04  0.11301576826E+04  0.12500000000E+03 0.  0.
         25    1    1    2    0    0  0.12397692737E+03  0.72258661074E+02 -0.41229155163E+03  0.45409351038E+03  0.12500000000E+03 0.  0.
</event>
<event>
 4    0  0.2193754E-002  0.1864220E+03  0.7546771E-02  0.1161729E+00
         21   -1    0    0  502  501  0.00000000000E+00  0.00000000000E+00  0.21712508733E+03  0.21712508733E+03  0.00000000000E+00 0. -1.
         21   -1    0    0  501  502 -0.00000000000E+00 -0.00000000000E+00 -0.16006049939E+03  0.16006049939E+03  0.00000000000E+00 0. -1.
         25    1    1    2    0    0  0.74184673006E+02  0.25421256350E+02  0.14378230934E+03  0.20602902335E+03  0.12500000000E+03 0.  0.
         25    1    1    2    0    0 -0.74184673006E+02 -0.25421256350E+02 -0.86717721396E+02  0.17115656338E+03  0.12500000000E+03 0.  0.
</event>
<event>
 4    0  0.2193754E-002  0.2384678E+03  0.7546771E-02  0.1120818E+00
         21   -1    0    0  502  501  0.00000000000E+00  0.00000000000E+00  0.19863594252E+03  0.19863594252E+03  0.00000000000E+00 0.  1.
         21   -1    0    0  501  502 -0.00000000000E+00 -0.00000000000E+00 -0.28628697975E+03  0.28628697975E+03  0.00000000000E+00 0.  1.
         25    1    1    2    0    0 -0.16198625224E+03 -0.11257920655E+03 -0.92885657888E+02  0.25132920464E+03  0.12500000000E+03 0.  0.
         25    1    1    2    0    0  0.16198625224E+03  0.11257920655E+03  0.52346206640E+01  0.23359371763E+03  0.12500000000E+03 0.  0.
</event>
<event>
 4    0  0.2193754E-002  0.2325270E+03  0.7546771E-02  0.1124874E+00
         21   -1    0    0  502  501  0.00000000000E+00  0.00000000000E+00  0.15639305281E+04  0.15639305281E+04  0.00000000000E+00 0.  1.
         21   -1    0    0  501  502 -0.00000000000E+00 -0.00000000000E+00 -0.34572378280E+02  0.34572378280E+02  0.00000000000E+00 0.  1.
         25    1    1    2    0    0  0.16377871827E+03  0.91536345702E+02  0.56898477360E+03  0.61202209415E+03  0.12500000000E+03 0.  0.
         25    1    1    2    0    0 -0.16377871827E+03 -0.91536345702E+02  0.96037337625E+03  0.98648081226E+03  0.12500000000E+03 0.  0.
</event>
<event>
 4    0  0.2193754E-002  0.2944842E+03  0.7546771E-02  0.1088031E+00
         21   -1    0    0  502  501  0.00000000000E+00  0.00000000000E+00  0.32209282387E+03  0.32209282387E+03  0.00000000000E+00 0. -1.
         21   -1    0    0  501  502 -0.00000000000E+00 -0.00000000000E+00 -0.26924213205E+03  0.26924213205E+03  0.00000000000E+00 0. -1.
         25    1    1    2    0    0  0.40232834358E+02 -0.25241637653E+03 -0.49795764406E+02  0.28885519945E+03  0.12500000000E+03 0.  0.
         25    1    1    2    0    0 -0.40232834358E+02  0.25241637653E+03  0.10264645623E+03  0.30247975647E+03  0.12500000000E+03 0.  0.
</event>
<event>
 4    0  0.2193754E-002  0.2333313E+03  0.7546771E-02  0.1124317E+00
         21   -1    0    0  502  501  0.00000000000E+00  0.00000000000E+00  0.48741780216E+03  0.48741780216E+03  0.00000000000E+00 0. -1.
         21   -1    0    0  501  502 -0.00000000000E+00 -0.00000000000E+00 -0.11169776264E+03  0.11169776264E+03  0.00000000000E+00 0. -1.
         25    1    1    2    0    0  0.17524760045E+02 -0.19587971246E+03  0.17253455736E+03  0.28994680969E+03  0.12500000000E+03 0.  0.
         25    1    1    2    0    0 -0.17524760045E+02  0.19587971246E+03  0.20318548217E+03  0.30916875510E+03  0.12500000000E+03 0.  0.
</event>
<event>
 4    0  0.2193754E-002  0.1552660E+03  0.7546771E-02  0.1194147E+00
         21   -1    0    0  502  501  0.00000000000E+00  0.00000000000E+00  0.58420583008E+01  0.58420583008E+01  0.00000000000E+00 0. -1.
         21   -1    0    0  501  502 -0.00000000000E+00 -0.00000000000E+00 -0.41265479133E+04  0.41265479133E+04  0.00000000000E+00 0. -1.
         25    1    1    2    0    0 -0.94964043569E+01 -0.78256361018E+02 -0.26941417306E+04  0.26981917842E+04  0.12500000000E+03 0.  0.
         25    1    1    2    0    0  0.94964043569E+01  0.78256361018E+02 -0.14265641243E+04  0.14341981874E+04  0.12500000000E+03 0.  0.
</event>
<event>
 4    0  0.2193754E-002  0.2582124E+03  0.7546771E-02  0.1108222E+00
         21   -1    0    0  502  501  0.00000000000E+00  0.00000000000E+00  0.45064756213E+03  0.45064756213E+03  0.00000000000E+00 0. -1.
         21   -1    0    0  501  502 -0.00000000000E+00 -0.00000000000E+00 -0.14795072820E+03  0.14795072820E+03  0.00000000000E+00 0. -1.
         25    1    1    2    0    0  0.11708515304E+01 -0.92200505533E+02  0.39043734589E+03  0.42020069631E+03  0.12500000000E+03 0.  0.
         25    1    1    2    0    0 -0.11708515304E+01  0.92200505533E+02 -0.87740511955E+02  0.17839759402E+03  0.12500000000E+03 0.  0.
</event>
<event>
 4    0  0.2193754E-002  0.1323151E+03  0.7546771E-02  0.1224060E+00
         21   -1    0    0  502  501  0.00000000000E+00  0.00000000000E+00  0.47456023798E+03  0.47456023798E+03  0.00000000000E+00 0.  1.
         21   -1    0    0  501  502 -0.00000000000E+00 -0.00000000000E+00 -0.36891579331E+02  0.36891579331E+02  0.00000000000E+00 0.  1.
         25    1    1    2    0    0  0.28098516654E+02 -0.56710561180E+01  0.28177610968E+03  0.30958757001E+03  0.12500000000E+03 0.  0.
         25    1    1    2    0    0 -0.28098516654E+02  0.56710561180E+01  0.15589254896E+03  0.20186424730E+03  0.12500000000E+03 0.  0.
</event>
<event>
 4    0  0.2193754E-002  0.2444060E+03  0.7546771E-02  0.1116892E+00
         21   -1    0    0  502  501  0.00000000000E+00  0.00000000000E+00  0.90197057218E+02  0.90197057218E+02  0.00000000000E+00 0. -1.
         21   -1    0    0  501  502 -0.00000000000E+00 -0.00000000000E+00 -0.66226454248E+03  0.66226454248E+03  0.00000000000E+00 0. -1.
         25    1    1    2    0    0 -0.16370998813E+03 -0.10235911487E+03 -0.41326195208E+03  0.47295749243E+03  0.12500000000E+03 0.  0.
         25    1    1    2    0    0  0.16370998813E+03  0.10235911487E+03 -0.15880553318E+03  0.27950410727E+03  0.12500000000E+03 0.  0.
</event>
<event>
 4    0  0.2193754E-002  0.1609929E+03  0.7546771E-02  0.1187580E+00
         21   -1    0    0  502  501  0.00000000000E+00  0.00000000000E+00  0.27066217555E+02  0.27066217555E+02  0.00000000000E+00 0. -1.
         21   -1    0    0  501  502 -0.00000000000E+00 -0.00000000000E+00 -0.95760415631E+03  0.95760415631E+03  0.00000000000E+00 0. -1.
         25    1    1    2    0    0  0.72203653279E+02  0.24377473521E+01 -0.68311364737E+03  0.69820381364E+03  0.12500000000E+03 0.  0.
         25    1    1    2    0    0 -0.72203653279E+02 -0.24377473521E+01 -0.24742429138E+03  0.28646656022E+03  0.12500000000E+03 0.  0.
</event>
<event>
 4    0  0.2193754E-002  0.2358533E+03  0.7546771E-02  0.1122586E+00
         21   -1    0    0  502  501  0.00000000000E+00  0.00000000000E+00  0.17735827080E+03  0.17735827080E+03  0.00000000000E+00 0.  1.
         21   -1    0    0  501  502 -0.00000000000E+00 -0.00000000000E+00 -0.31364083751E+03  0.31364083751E+03  0.00000000000E+00 0.  1.
         25    1    1    2    0    0 -0.14375000456E+03  0.11466067795E+03 -0.15004002307E+03  0.26823151083E+03  0.12500000000E+03 0.  0.
         25    1    1    2    0    0  0.14375000456E+03 -0.11466067795E+03  0.13757456362E+02  0.22276759747E+03  0.12500000000E+03 0.  0.
</event>
<event>
 4    0  0.2193754E-002  0.2401094E+03  0.7546771E-02  0.1119720E+00
         21   -1    0    0  502  501  0.00000000000E+00  0.00000000000E+00  0.17334624259E+04  0.17334624259E+04  0.00000000000E+00 0.  1.
         21   -1    0    0  501  502 -0.00000000000E+00 -0.00000000000E+00 -0.33258588516E+02  0.33258588516E+02  0.00000000000E+00 0.  1.
         25    1    1    2    0    0  0.84446465302E+02  0.15683874925E+03  0.12234410412E+04  0.12426433841E+04  0.12500000000E+03 0.  0.
         25    1    1    2    0    0 -0.84446465302E+02 -0.15683874925E+03  0.47676279621E+03  0.52407763034E+03  0.12500000000E+03 0.  0.
</event>
<event>
 4    0  0.2193754E-002  0.2181162E+03  0.7546771E-02  0.1135295E+00
         21   -1    0    0  502  501  0.00000000000E+00  0.00000000000E+00  0.32385486666E+03  0.32385486666E+03  0.00000000000E+00 0. -1.
         21   -1    0    0  501  502 -0.00000000000E+00 -0.00000000000E+00 -0.14690126543E+03  0.14690126543E+03  0.00000000000E+00 0. -1.
         25    1    1    2    0    0 -0.15902075029E+03 -0.45832874743E+02  0.16136024862E+03  0.26277439233E+03  0.12500000000E+03 0.  0.
         25    1    1    2    0    0  0.15902075029E+03  0.45832874743E+02  0.15593352618E+02  0.20798173976E+03  0.12500000000E+03 0.  0.
</event>
<event>
 4    0  0.2193754E-002  0.3141285E+03  0.7546771E-02  0.1078384E+00
         21   -1    0    0  502  501  0.00000000000E+00  0.00000000000E+00  0.32523388696E+03  0.32523388696E+03  0.00000000000E+00 0.  1.
         21   -1    0    0  501  502 -0.00000000000E+00 -0.00000000000E+00 -0.30340222812E+03  0.30340222812E+03  0.00000000000E+00 0. -1.
         25    1    1    2    0    0  0.26918597557E+03 -0.99975995426E+02 -0.13499653814E+02  0.31347014173E+03  0.12500000000E+03 0.  0.
         25    1    1    2    0    0 -0.26918597557E+03  0.99975995426E+02  0.35331312653E+02  0.31516597335E+03  0.12500000000E+03 0.  0.
</event>
<event>
 4    0  0.2193754E-002  0.2098097E+03  0.7546771E-02  0.1141717E+00
         21   -1    0    0  502  501  0.00000000000E+00  0.00000000000E+00  0.54594021863E+03  0.54594021863E+03  0.00000000000E+00 0.  1.
         21   -1    0    0  501  502 -0.00000000000E+00 -0.00000000000E+00 -0.80631774843E+02  0.80631774843E+02  0.00000000000E+00 0.  1.
         25    1    1    2    0    0 -0.15329392378E+02  0.13204410278E+03  0.38728777060E+03  0.42812083879E+03  0.12500000000E+03 0.  0.
         25    1    1    2    0    0  0.15329392378E+02 -0.13204410278E+03  0.78020673191E+02  0.19845115469E+03  0.12500000000E+03 0.  0.
</event>
<event>
 4    0  0.2193754E-002  0.2181264E+03  0.7546771E-02  0.1135288E+00
         21   -1    0    0  502  501  0.00000000000E+00  0.00000000000E+00  0.50085468625E+03  0.50085468625E+03  0.00000000000E+00 0. -1.
         21   -1    0    0  501  502 -0.00000000000E+00 -0.00000000000E+00 -0.94995868051E+02  0.94995868051E+02  0.00000000000E+00 0. -1.
         25    1    1    2    0    0  0.10110412682E+03 -0.10045242263E+03  0.55561955118E+02  0.19754711977E+03  0.12500000000E+03 0.  0.
         25    1    1    2    0    0 -0.10110412682E+03  0.10045242263E+03  0.35029686308E+03  0.39830343453E+03  0.12500000000E+03 0.  0.
</event>
<event>
 4    0  0.2193754E-002  0.2509692E+03  0.7546771E-02  0.1112694E+00
         21   -1    0    0  502  501  0.00000000000E+00  0.00000000000E+00  0.66087139778E+03  0.66087139778E+03  0.00000000000E+00 0.  1.
         21   -1    0    0  501  502 -0.00000000000E+00 -0.00000000000E+00 -0.95306811106E+02  0.95306811106E+02  0.00000000000E+00 0.  1.
         25    1    1    2    0    0 -0.10517836780E+03 -0.11927707502E+03  0.58969415032E+02  0.21069385750E+03  0.12500000000E+03 0.  0.
         25    1    1    2    0    0  0.10517836780E+03  0.11927707502E+03  0.50659517164E+03  0.54548435139E+03  0.12500000000E+03 0.  0.
</event>
<event>
 4    0  0.2193754E-002  0.2718875E+03  0.7546771E-02  0.1100204E+00
         21   -1    0    0  502  501  0.00000000000E+00  0.00000000000E+00  0.20203608175E+03  0.20203608175E+03  0.00000000000E+00 0. -1.
         21   -1    0    0  501  502 -0.00000000000E+00 -0.00000000000E+00 -0.36588917664E+03  0.36588917664E+03  0.00000000000E+00 0. -1.
         25    1    1    2    0    0 -0.10414370107E+03  0.21465608310E+03 -0.12064975669E+03  0.29513472902E+03  0.12500000000E+03 0.  0.
         25    1    1    2    0    0  0.10414370107E+03 -0.21465608310E+03 -0.43203338203E+02  0.27279052938E+03  0.12500000000E+03 0.  0.
</event>
<event>
 4    0  0.2193754E-002  0.1732132E+03  0.7546771E-02  0.1174538E+00
         21   -1    0    0  502  501  0.00000000000E+00  0.00000000000E+00  0.10267398024E+03  0.10267398024E+03  0.00000000000E+00 0. -1.
         21   -1    0    0  501  502 -0.00000000000E+00 -0.00000000000E+00 -0.29221436657E+03  0.29221436657E+03  0.00000000000E+00 0. -1.
         25    1    1    2    0    0 -0.59157798312E+01 -0.19991153810E+02  0.39829507263E+02  0.13283836920E+03  0.12500000000E+03 0.  0.
         25    1    1    2    0    0  0.59157798312E+01  0.19991153810E+02 -0.22936989359E+03  0.26204997761E+03  0.12500000000E+03 0.  0.
</event>
<event>
 4    0  0.2193754E-002  0.3512753E+03  0.7546771E-02  0.1062093E+00
         21   -1    0    0  502  501  0.00000000000E+00  0.00000000000E+00  0.45821051402E+03  0.45821051402E+03  0.00000000000E+00 0.  1.
         21   -1    0    0  501  502 -0.00000000000E+00 -0.00000000000E+00 -0.26929618423E+03  0.26929618423E+03  0.00000000000E+00 0.  1.
         25    1    1    2    0    0 -0.11730226171E+03 -0.28311545841E+03  0.21634634120E+03  0.39540475812E+03  0.12500000000E+03 0.  0.
         25    1    1    2    0    0  0.11730226171E+03  0.28311545841E+03 -0.27432011404E+02  0.33210194014E+03  0.12500000000E+03 0.  0.
</event>
<event>
 4    0  0.2193754E-002  0.2334949E+03  0.7546771E-02  0.1124204E+00
         21   -1    0    0  502  501  0.00000000000E+00  0.00000000000E+00  0.11783532936E+03  0.11783532936E+03  0.00000000000E+00 0.  1.
         21   -1    0    0  501  502 -0.00000000000E+00 -0.00000000000E+00 -0.46267837208E+03  0.46267837208E+03  0.00000000000E+00 0.  1.
         25    1    1    2    0    0  0.29516549208E+02  0.88378687249E+02 -0.38849471447E+03  0.41861099151E+03  0.12500000000E+03 0.  0.
         25    1    1    2    0    0 -0.29516549208E+02 -0.88378687249E+02  0.43651671747E+02  0.16190270993E+03  0.12500000000E+03 0.  0.
</event>
<event>
 4    0  0.2193754E-002  0.2217265E+03  0.7546771E-02  0.1132602E+00
         21   -1    0    0  502  501  0.00000000000E+00  0.00000000000E+00  0.14609147505E+02  0.14609147505E+02  0.00000000000E+00 0.  1.
         21   -1    0    0  501  502 -0.00000000000E+00 -0.00000000000E+00 -0.33651970511E+04  0.33651970511E+04  0.00000000000E+00 0.  1.
         25    1    1    2    0    0  0.52150588968E+02 -0.16945413233E+03 -0.20248299911E+04  0.20364174129E+04  0.12500000000E+03 0.  0.
         25    1    1    2    0    0 -0.52150588968E+02  0.16945413233E+03 -0.13257579125E+04  0.13433887857E+04  0.12500000000E+03 0.  0.
</event>
<event>
 4    0  0.2193754E-002  0.2062477E+03  0.7546771E-02  0.1144572E+00
         21   -1    0    0  502  501  0.00000000000E+00  0.00000000000E+00  0.64731042605E+03  0.64731042605E+03  0.00000000000E+00 0.  1.
         21   -1    0    0  501  502 -0.00000000000E+00 -0.00000000000E+00 -0.65715156081E+02  0.65715156081E+02  0.00000000000E+00 0.  1.
         25    1    1    2    0    0  0.16350785930E+03 -0.91402123364E+01  0.27397253500E+03  0.34278902180E+03  0.12500000000E+03 0.  0.
         25    1    1    2    0    0 -0.16350785930E+03  0.91402123364E+01  0.30762273497E+03  0.37023656033E+03  0.12500000000E+03 0.  0.
</event>
<event>
 4    0  0.2193754E-002  0.2873770E+03  0.7546771E-02  0.1091727E+00
         21   -1    0    0  502  501  0.00000000000E+00  0.00000000000E+00  0.41715623026E+02  0.41715623026E+02  0.00000000000E+00 0.  1.
         21   -1    0    0  501  502 -0.00000000000E+00 -0.00000000000E+00 -0.19797272016E+04  0.19797272016E+04  0.00000000000E+00 0.  1.
         25    1    1    2    0    0 -0.83390687862E+01  0.23731922614E+03 -0.13306064474E+04  0.13573976842E+04  0.12500000000E+03 0.  0.
         25    1    1    2    0    0  0.83390687862E+01 -0.23731922614E+03 -0.60740513112E+03  0.66404514039E+03  0.12500000000E+03 0.  0.
</event>
<event>
 4    0  0.2193754E-002  0.2349598E+03  0.7546771E-02  0.1123197E+00
         21   -1    0    0  502  501  0.00000000000E+00  0.00000000000E+00  0.41807396624E+03  0.41807396624E+03  0.00000000000E+00 0.  1.
         21   -1    0    0  501  502 -0.00000000000E+00 -0.00000000000E+00 -0.13204863906E+03  0.13204863906E+03  0.00000000000E+00 0.  1.
         25    1    1    2    0    0 -0.24077419664E+02  0.23245342229E+02 -0.86573877321E+02  0.15569233863E+03  0.12500000000E+03 0.  0.
         25    1    1    2    0    0  0.24077419664E+02 -0.23245342229E+02  0.37259920450E+03  0.39443026667E+03  0.12500000000E+03 0.  0.
</event>
<event>
 4    0  0.2193754E-002  0.2365448E+03  0.7546771E-02  0.1122116E+00
         21   -1    0    0  502  501  0.00000000000E+00  0.00000000000E+00  0.24982824634E+03  0.24982824634E+03  0.00000000000E+00 0.  1.
         21   -1    0    0  501  502 -0.00000000000E+00 -0.00000000000E+00 -0.22396759532E+03  0.22396759532E+03  0.00000000000E+00 0.  1.
         25    1    1    2    0    0  0.10205310439E+03 -0.45937518354E+02  0.17992259619E+03  0.24601266701E+03  0.12500000000E+03 0.  0.
         25    1    1    2    0    0 -0.10205310439E+03  0.45937518354E+02 -0.15406194517E+03  0.22778317466E+03  0.12500000000E+03 0.  0.
</event>
<event>
 4    0  0.2193754E-002  0.1927906E+03  0.7546771E-02  0.1155968E+00
         21   -1    0    0  502  501  0.00000000000E+00  0.00000000000E+00  0.11050769202E+03  0.11050769202E+03  0.00000000000E+00 0.  1.
         21   -1    0    0  501  502 -0.00000000000E+00 -0.00000000000E+00 -0.33634040686E+03  0.33634040686E+03  0.00000000000E+00 0.  1.
         25    1    1    2    0    0 -0.10654549559E+03 -0.69660212493E+02 -0.28239938959E+02  0.18062940510E+03  0.12500000000E+03 0.  0.
         25    1    1    2    0    0  0.10654549559E+03  0.69660212493E+02 -0.19759277588E+03  0.26621869378E+03  0.12500000000E+03 0.  0.
</event>
<event>
 4    0  0.2193754E-002  0.2102111E+03  0.7546771E-02  0.1141399E+00
         21   -1    0    0  502  501  0.00000000000E+00  0.00000000000E+00  0.12366537241E+03  0.12366537241E+03  0.00000000000E+00 0. -1.
         21   -1    0    0  501  502 -0.00000000000E+00 -0.00000000000E+00 -0.35732482166E+03  0.35732482166E+03  0.00000000000E+00 0. -1.
         25    1    1    2    0    0  0.24488304990E+02  0.14457772511E+03 -0.21296732177E+03  0.28719762502E+03  0.12500000000E+03 0.  0.
         25    1    1    2    0    0 -0.24488304990E+02 -0.14457772511E+03 -0.20692127487E+02  0.19379256905E+03  0.12500000000E+03 0.  0.
</event>
<event>
 4    0  0.2193754E-002  0.1872402E+03  0.7546771E-02  0.1160974E+00
         21   -1    0    0  502  501  0.00000000000E+00  0.00000000000E+00  0.33731383363E+02  0.33731383363E+02  0.00000000000E+00 0.  1.
         21   -1    0    0  501  502 -0.00000000000E+00 -0.00000000000E+00 -0.10393555950E+04  0.10393555950E+04  0.00000000000E+00 0.  1.
         25    1    1    2    0    0 -0.17664221428E+02  0.11200723120E+03 -0.27043401583E+03  0.31877453079E+03  0.12500000000E+03 0.  0.
         25    1    1    2    0    0  0.17664221428E+02 -0.11200723120E+03 -0.73519019579E+03  0.75431244756E+03  0.12500000000E+03 0.  0.
</event>
<event>
 4    0  0.2193754E-002  0.2633150E+03  0.7546771E-02  0.1105168E+00
         21   -1    0    0  502  501  0.00000000000E+00  0.00000000000E+00  0.14121976167E+03  0.14121976167E+03  0.00000000000E+00 0.  1.
         21   -1    0    0  501  502 -0.00000000000E+00 -0.00000000000E+00 -0.49097085460E+03  0.49097085460E+03  0.00000000000E+00 0.  1.
         25    1    1    2    0    0 -0.48049389170E+02  0.19843120350E+03 -0.43230392908E+02  0.24326436893E+03  0.12500000000E+03 0.  0.
         25    1    1    2    0    0  0.48049389170E+02 -0.19843120350E+03 -0.30652070003E+03  0.38892624734E+03  0.12500000000E+03 0.  0.
</event>
<event>
 4    0  0.2193754E-002  0.2176440E+03  0.7546771E-02  0.1135652E+00
         21   -1    0    0  502  501  0.00000000000E+00  0.00000000000E+00  0.65120296893E+03  0.65120296893E+03  0.00000000000E+00 0.  1.
         21   -1    0    0  501  502 -0.00000000000E+00 -0.00000000000E+00 -0.72740611983E+02  0.72740611983E+02  0.00000000000E+00 0.  1.
         25    1    1    2    0    0 -0.67114282732E+02  0.74145700444E+02  0.43998852678E+02  0.16602051343E+03  0.12500000000E+03 0.  0.
         25    1    1    2    0    0  0.67114282732E+02 -0.74145700444E+02  0.53446350427E+03  0.55792306749E+03  0.12500000000E+03 0.  0.
</event>
<event>
 4    0  0.2193754E-002  0.1910230E+03  0.7546771E-02  0.1157542E+00
         21   -1    0    0  502  501  0.00000000000E+00  0.00000000000E+00  0.44317398033E+02  0.44317398033E+02  0.00000000000E+00 0.  1.
         21   -1    0    0  501  502 -0.00000000000E+00 -0.00000000000E+00 -0.82337342120E+03  0.82337342120E+03  0.00000000000E+00 0.  1.
         25    1    1    2    0    0  0.11272352435E+03  0.30610757724E+02 -0.58252602005E+03  0.60712863173E+03  0.12500000000E+03 0.  0.
         25    1    1    2    0    0 -0.11272352435E+03 -0.30610757724E+02 -0.19653000311E+03  0.26056218750E+03  0.12500000000E+03 0.  0.
</event>
<event>
 4    0  0.2193754E-002  0.2715967E+03  0.7546771E-02  0.1100369E+00
         21   -1    0    0  502  501  0.00000000000E+00  0.00000000000E+00  0.21201698071E+04  0.21201698071E+04  0.00000000000E+00 0. -1.
         21   -1    0    0  501  502 -0.00000000000E+00 -0.00000000000E+00 -0.34791909160E+02  0.34791909160E+02  0.00000000000E+00 0. -1.
         25    1    1    2    0    0 -0.41120979178E+02  0.12890665988E+03  0.25091613464E+03  0.31127442637E+03  0.12500000000E+03 0.  0.
         25    1    1    2    0    0  0.41120979178E+02 -0.12890665988E+03  0.18344617633E+04  0.18436872899E+04  0.12500000000E+03 0.  0.
</event>
<event>
 4    0  0.2193754E-002  0.3539366E+03  0.7546771E-02  0.1061011E+00
         21   -1    0    0  502  501  0.00000000000E+00  0.00000000000E+00  0.14287815277E+04  0.14287815277E+04  0.00000000000E+00 0. -1.
         21   -1    0    0  501  502 -0.00000000000E+00 -0.00000000000E+00 -0.87676877414E+02  0.87676877414E+02  0.00000000000E+00 0. -1.
         25    1    1    2    0    0 -0.13946832880E+03  0.30002094080E+03  0.64164168611E+03  0.73266160880E+03  0.12500000000E+03 0.  0.
         25    1    1    2    0    0  0.13946832880E+03 -0.30002094080E+03  0.69946296415E+03  0.78379679629E+03  0.12500000000E+03 0.  0.
</event>
<event>
 4    0  0.2193754E-002  0.2251130E+03  0.7546771E-02  0.1130127E+00
         21   -1    0    0  502  501  0.00000000000E+00  0.00000000000E+00  0.16473444407E+03  0.16473444407E+03  0.00000000000E+00 0.  1.
         21   -1    0    0  501  502 -0.00000000000E+00 -0.00000000000E+00 -0.30762163890E+03  0.30762163890E+03  0.00000000000E+00 0.  1.
         25    1    1    2    0    0  0.61171139714E+02  0.25981238332E+02  0.11218501148E+03  0.18063058955E+03  0.12500000000E+03 0.  0.
         25    1    1    2    0    0 -0.61171139714E+02 -0.25981238332E+02 -0.25507220631E+03  0.29172549342E+03  0.12500000000E+03 0.  0.
</event>
<event>
 4    0  0.2193754E-002  0.3373880E+03  0.7546771E-02  0.1067914E+00
         21   -1    0    0  502  501  0.00000000000E+00  0.00000000000E+00  0.22310686725E+03  0.22310686725E+03  0.00000000000E+00 0. -1.
         21   -1    0    0  501  502 -0.00000000000E+00 -0.00000000000E+00 -0.51020682103E+03  0.51020682103E+03  0.00000000000E+00 0. -1.
         25    1    1    2    0    0 -0.62664326889E+02  0.61994674314E+02 -0.47036321496E+03  0.49460763389E+03  0.12500000000E+03 0.  0.
         25    1    1    2    0    0  0.62664326889E+02 -0.61994674314E+02  0.18326326118E+03  0.23870605440E+03  0.12500000000E+03 0.  0.
</event>
<event>
 4    0  0.2193754E-002  0.2466587E+03  0.7546771E-02  0.1115435E+00
         21   -1    0    0  502  501  0.00000000000E+00  0.00000000000E+00  0.92543563729E+02  0.92543563729E+02  0.00000000000E+00 0. -1.
         21   -1    0    0  501  502 -0.00000000000E+00 -0.00000000000E+00 -0.65742583123E+03  0.65742583123E+03  0.00000000000E+00 0. -1.
         25    1    1    2    0    0 -0.15464380476E+03 -0.10416930300E+03 -0.43784665909E+03  0.49203724139E+03  0.12500000000E+03 0.  0.
         25    1    1    2    0    0  0.15464380476E+03  0.10416930300E+03 -0.12703560841E+03  0.25793215356E+03  0.12500000000E+03 0.  0.
</event>
<event>
 4    0  0.2193754E-002  0.1796097E+03  0.7546771E-02  0.1168181E+00
         21   -1    0    0  502  501  0.00000000000E+00  0.00000000000E+00  0.21651561784E+03  0.21651561784E+03  0.00000000000E+00 0. -1.
         21   -1    0    0  501  502 -0.00000000000E+00 -0.00000000000E+00 -0.14899457463E+03  0.14899457463E+03  0.00000000000E+00 0. -1.
         25    1    1    2    0    0  0.36483106314E+01 -0.80625631029E+02  0.13612473305E+03  0.20166493373E+03  0.12500000000E+03 0.  0.
         25    1    1    2    0    0 -0.36483106314E+01  0.80625631029E+02 -0.68603689841E+02  0.16384525873E+03  0.12500000000E+03 0.  0.
</event>
<event>
 4    0  0.2193754E-002  0.2862036E+03  0.7546771E-02  0.1092348E+00
         21   -1    0    0  502  501  0.00000000000E+00  0.00000000000E+00  0.49286820297E+02  0.49286820297E+02  0.00000000000E+00 0. -1.
         21   -1    0    0  501  502 -0.00000000000E+00 -0.00000000000E+00 -0.16619551386E+04  0.16619551386E+04  0.00000000000E+00 0. -1.
         25    1    1    2    0    0  0.20545953227E+02 -0.12722192279E+03 -0.13999265403E+03  0.22766312177E+03  0.12500000000E+03 0.  0.
         25    1    1    2    0    0 -0.20545953227E+02  0.12722192279E+03 -0.14726756643E+04  0.14835788372E+04  0.12500000000E+03 0.  0.
</event>
<event>
 4    0  0.2193754E-002  0.1461417E+03  0.7546771E-02  0.1205296E+00
         21   -1    0    0  502  501  0.00000000000E+00  0.00000000000E+00  0.63467109552E+02  0.63467109552E+02  0.00000000000E+00 0.  1.
         21   -1    0    0  501  502 -0.00000000000E+00 -0.00000000000E+00 -0.33651114401E+03  0.33651114401E+03  0.00000000000E+00 0.  1.
         25    1    1    2    0    0  0.59955473414E+01  0.75387665863E+02 -0.14148311438E+03  0.20337580585E+03  0.12500000000E+03 0.  0.
         25    1    1    2    0    0 -0.59955473414E+01 -0.75387665863E+02 -0.13156092007E+03  0.19660244770E+03  0.12500000000E+03 0.  0.
</event>
<event>
 4    0  0.2193754E-002  0.2198425E+03  0.7546771E-02  0.1134001E+00
         21   -1    0    0  502  501  0.00000000000E+00  0.00000000000E+00  0.17081616533E+04  0.17081616533E+04  0.00000000000E+00 0. -1.
         21   -1    0    0  501  502 -0.00000000000E+00 -0.00000000000E+00 -0.28294005784E+02  0.28294005784E+02  0.00000000000E+00 0. -1.
         25    1    1    2    0    0  0.16834992079E+03 -0.61092522312E+02  0.93919797192E+03  0.96425713509E+03  0.12500000000E+03 0.  0.
         25    1    1    2    0    0 -0.16834992079E+03  0.61092522312E+02  0.74066967562E+03  0.77219852402E+03  0.12500000000E+03 0.  0.
</event>
<event>
 4    0  0.2193754E-002  0.2019489E+03  0.7546771E-02  0.1148105E+00
         21   -1    0    0  502  501  0.00000000000E+00  0.00000000000E+00  0.88489345403E+02  0.88489345403E+02  0.00000000000E+00 0.  1.
         21   -1    0    0  501  502 -0.00000000000E+00 -0.00000000000E+00 -0.46088446204E+03  0.46088446204E+03  0.00000000000E+00 0.  1.
         25    1    1    2    0    0  0.14815372715E+03  0.49015564509E+02 -0.14757438357E+03  0.24850603840E+03  0.12500000000E+03 0.  0.
         25    1    1    2    0    0 -0.14815372715E+03 -0.49015564509E+02 -0.22482073306E+03  0.30086776904E+03  0.12500000000E+03 0.  0.
</event>
