<event>
 4    0  0.2259196E-002  0.2930425E+03  0.7546771E-02  0.1088771E+00
         21   -1    0    0  502  501  0.00000000000E+00  0.00000000000E+00  0.11533530179E+04  0.11533530179E+04  0.00000000000E+00 0.  1.
         21   -1    0    0  501  502 -0.00000000000E+00 -0.00000000000E+00 -0.74455869669E+02  0.74455869669E+02  0.00000000000E+00 0.  1.
         25    1    1    2    0    0 -0.22920028990E+03  0.27807478572E+02  0.26676202920E+03  0.37429000652E+03  0.12500000000E+03 0.  0.
         25    1    1    2    0    0  0.22920028990E+03 -0.27807478572E+02  0.81213511906E+03  0.85351888109E+03  0.12500000000E+03 0.  0.
</event>
<event>
 4    0  0.2259196E-002  0.3245643E+03  0.7546771E-02  0.1073568E+00
         21   -1    0    0  502  501  0.00000000000E+00  0.00000000000E+00  0.27455580745E+03  0.27455580745E+03  0.00000000000E+00 0. -1.
         21   -1    0    0  501  502 -0.00000000000E+00 -0.00000000000E+00 -0.38368155318E+03  0.38368155318E+03  0.00000000000E+00 0. -1.
         25    1    1    2    0    0 -0.10258648598E+03 -0.19285305314E+03 -0.26237939827E+03  0.36357150032E+03  0.12500000000E+03 0.  0.
         25    1    1    2    0    0  0.10258648598E+03  0.19285305314E+03  0.15325365254E+03  0.29466586030E+03  0.12500000000E+03 0.  0.
</event>
<event>
 4    0  0.2259196E-002  0.2364097E+03  0.7546771E-02  0.1122208E+00
         21   -1    0    0  502  501  0.00000000000E+00  0.00000000000E+00  0.43876782085E+02  0.43876782085E+02  0.00000000000E+00 0. -1.
         21   -1    0    0  501  502 -0.00000000000E+00 -0.00000000000E+00 -0.12737844084E+04  0.12737844084E+04  0.00000000000E+00 0. -1.
         25    1    1    2    0    0 -0.16851436640E+03  0.99248384294E+02 -0.74011966061E+03  0.77566065099E+03  0.12500000000E+03 0.  0.
         25    1    1    2    0    0  0.16851436640E+03 -0.99248384294E+02 -0.48978796574E+03  0.54200053953E+03  0.12500000000E+03 0.  0.
</event>
<event>
 4    0  0.2259196E-002  0.1659998E+03  0.7546771E-02  0.1182085E+00
         21   -1    0    0  502  501  0.00000000000E+00  0.00000000000E+00  0.27222258905E+03  0.27222258905E+03  0.00000000000E+00 0. -1.
         21   -1    0    0  501  502 -0.00000000000E+00 -0.00000000000E+00 -0.10122577485E+03  0.10122577485E+03  0.00000000000E+00 0. -1.
         25    1    1    2    0    0  0.51144745441E+02  0.27840812045E+02 -0.18451248173E+02  0.13912707990E+03  0.12500000000E+03 0.  0.
         25    1    1    2    0    0 -0.51144745441E+02 -0.27840812045E+02  0.18944806237E+03  0.23432128401E+03  0.12500000000E+03 0.  0.
</event>
<event>
 4    0  0.2259196E-002  0.2392371E+03  0.7546771E-02  0.1120302E+00
         21   -1    0    0  502  501  0.00000000000E+00  0.00000000000E+00  0.29131143307E+03  0.29131143307E+03  0.00000000000E+00 0. -1.
         21   -1    0    0  501  502 -0.00000000000E+00 -0.00000000000E+00 -0.19647145991E+03  0.19647145991E+03  0.00000000000E+00 0. -1.
         25    1    1    2    0    0 -0.11188121734E+03 -0.12918148707E+03  0.16096054690E+03  0.26596721800E+03  0.12500000000E+03 0.  0.
         25    1    1    2    0    0  0.11188121734E+03  0.12918148707E+03 -0.66120573735E+02  0.22181567497E+03  0.12500000000E+03 0.  0.
</event>
<event>
 4    0  0.2259196E-002  0.1880747E+03  0.7546771E-02  0.1160209E+00
         21   -1    0    0  502  501  0.00000000000E+00  0.00000000000E+00  0.16268082068E+03  0.16268082068E+03  0.00000000000E+00 0.  1.
         21   -1    0    0  501  502 -0.00000000000E+00 -0.00000000000E+00 -0.21743238418E+03  0.21743238418E+03  0.00000000000E+00 0.  1.
         25    1    1    2    0    0 -0.14590226761E+02 -0.17788438976E+02 -0.16746484361E+03  0.21023505208E+03  0.12500000000E+03 0.  0.
         25    1    1    2    0    0  0.14590226761E+02  0.17788438976E+02  0.11271328011E+03  0.16987815278E+03  0.12500000000E+03 0.  0.
</event>
<event>
 4    0  0.2259196E-002  0.2921945E+03  0.7546771E-02  0.1089209E+00
         21   -1    0    0  502  501  0.00000000000E+00  0.00000000000E+00  0.21558362420E+03  0.21558362420E+03  0.00000000000E+00 0.  1.
         21   -1    0    0  501  502 -0.00000000000E+00 -0.00000000000E+00 -0.39603020899E+03  0.39603020899E+03  0.00000000000E+00 0.  1.
         25    1    1    2    0    0 -0.18857550852E+03  0.14018025872E+03 -0.21642882052E+03  0.34304177836E+03  0.12500000000E+03 0.  0.
         25    1    1    2    0    0  0.18857550852E+03 -0.14018025872E+03  0.35982235731E+02  0.26857205483E+03  0.12500000000E+03 0.  0.
</event>
<event>
 4    0  0.2259196E-002  0.2239446E+03  0.7546771E-02  0.1130976E+00
         21   -1    0    0  502  501  0.00000000000E+00  0.00000000000E+00  0.48231727945E+03  0.48231727945E+03  0.00000000000E+00 0.  1.
         21   -1    0    0  501  502 -0.00000000000E+00 -0.00000000000E+00 -0.10397965952E+03  0.10397965952E+03  0.00000000000E+00 0.  1.
         25    1    1    2    0    0 -0.28901894603E+02  0.13508413071E+03  0.26496027874E+02  0.18817566626E+03  0.12500000000E+03 0.  0.
         25    1    1    2    0    0  0.28901894603E+02 -0.13508413071E+03  0.35184159206E+03  0.39812127271E+03  0.12500000000E+03 0.  0.
</event>
<event>
 4    0  0.2259196E-002  0.2264766E+03  0.7546771E-02  0.1129145E+00
         21   -1    0    0  502  501  0.00000000000E+00  0.00000000000E+00  0.54688213013E+03  0.54688213013E+03  0.00000000000E+00 0. -1.
         21   -1    0    0  501  502 -0.00000000000E+00 -0.00000000000E+00 -0.93789217959E+02  0.93789217959E+02  0.00000000000E+00 0. -1.
         25    1    1    2    0    0  0.60201047169E+02 -0.12885671805E+03  0.50801239546E+02  0.19604587679E+03  0.12500000000E+03 0.  0.
         25    1    1    2    0    0 -0.60201047169E+02  0.12885671805E+03  0.40229167263E+03  0.44462547130E+03  0.12500000000E+03 0.  0.
</event>
<event>
 4    0  0.2259196E-002  0.2006988E+03  0.7546771E-02  0.1149151E+00
         21   -1    0    0  502  501  0.00000000000E+00  0.00000000000E+00  0.14952070651E+03  0.14952070651E+03  0.00000000000E+00 0.  1.
         21   -1    0    0  501  502 -0.00000000000E+00 -0.00000000000E+00 -0.26939409195E+03  0.26939409195E+03  0.00000000000E+00 0.  1.
         25    1    1    2    0    0 -0.12795543415E+03  0.32748234787E+02  0.28680355210E+02  0.18409943722E+03  0.12500000000E+03 0.  0.
         25    1    1    2    0    0  0.12795543415E+03 -0.32748234787E+02 -0.14855374066E+03  0.23481536124E+03  0.12500000000E+03 0.  0.
</event>
<event>
 4    0  0.2259196E-002  0.2189654E+03  0.7546771E-02  0.1134657E+00
         21   -1    0    0  502  501  0.00000000000E+00  0.00000000000E+00  0.14142606470E+03  0.14142606470E+03  0.00000000000E+00 0. -1.
         21   -1    0    0  501  502 -0.00000000000E+00 -0.00000000000E+00 -0.33901703714E+03  0.33901703714E+03  0.00000000000E+00 0. -1.
         25    1    1    2    0    0 -0.15905953060E+03  0.82632425622E+02 -0.83562587788E+02  0.23395674411E+03  0.12500000000E+03 0.  0.
         25    1    1    2    0    0  0.15905953060E+03 -0.82632425622E+02 -0.11402838464E+03  0.24648635772E+03  0.12500000000E+03 0.  0.
</event>
<event>
 4    0  0.2259196E-002  0.2496510E+03  0.7546771E-02  0.1113526E+00
         21   -1    0    0  502  501  0.00000000000E+00  0.00000000000E+00  0.12503610194E+03  0.12503610194E+03  0.00000000000E+00 0.  1.
         21   -1    0    0  501  502 -0.00000000000E+00 -0.00000000000E+00 -0.49846099701E+03  0.49846099701E+03  0.00000000000E+00 0.  1.
         25    1    1    2    0    0  0.12606047525E+03  0.10179392376E+03 -0.81500926677E+01  0.20480398030E+03  0.12500000000E+03 0.  0.
         25    1    1    2    0    0 -0.12606047525E+03 -0.10179392376E+03 -0.36527480240E+03  0.41869311865E+03  0.12500000000E+03 0.  0.
</event>
<event>
 4    0  0.2259196E-002  0.1846764E+03  0.7546771E-02  0.1163352E+00
         21   -1    0    0  502  501  0.00000000000E+00  0.00000000000E+00  0.50206275875E+02  0.50206275875E+02  0.00000000000E+00 0. -1.
         21   -1    0    0  501  502 -0.00000000000E+00 -0.00000000000E+00 -0.67930531199E+03  0.67930531199E+03  0.00000000000E+00 0. -1.
         25    1    1    2    0    0 -0.23582520575E+02  0.64192470248E+02 -0.82496842705E+02  0.16464366848E+03  0.12500000000E+03 0.  0.
         25    1    1    2    0    0  0.23582520575E+02 -0.64192470248E+02 -0.54660219341E+03  0.56486791938E+03  0.12500000000E+03 0.  0.
</event>
<event>
 4    0  0.2259196E-002  0.1737708E+03  0.7546771E-02  0.1173972E+00
         21   -1    0    0  502  501  0.00000000000E+00  0.00000000000E+00  0.26766193277E+02  0.26766193277E+02  0.00000000000E+00 0.  1.
         21   -1    0    0  501  502 -0.00000000000E+00 -0.00000000000E+00 -0.11281507408E+04  0.11281507408E+04  0.00000000000E+00 0.  1.
         25    1    1    2    0    0 -0.77334451348E+02  0.75706066216E+02 -0.37299865096E+03  0.40800124932E+03  0.12500000000E+03 0.  0.
         25    1    1    2    0    0  0.77334451348E+02 -0.75706066216E+02 -0.72838589658E+03  0.74691568478E+03  0.12500000000E+03 0.  0.
</event>
<event>
 4    0  0.2259196E-002  0.2750719E+03  0.7546771E-02  0.1098411E+00
         21   -1    0    0  502  501  0.00000000000E+00  0.00000000000E+00  0.36206824718E+02  0.36206824718E+02  0.00000000000E+00 0. -1.
         21   -1    0    0  501  502 -0.00000000000E+00 -0.00000000000E+00 -0.20897870381E+04  0.20897870381E+04  0.00000000000E+00 0. -1.
         25    1    1    2    0    0  0.18543590896E+03  0.11878261799E+01 -0.40785721705E+03  0.46514556513E+03  0.12500000000E+03 0.  0.
         25    1    1    2    0    0 -0.18543590896E+03 -0.11878261799E+01 -0.16457229963E+04  0.16608482976E+04  0.12500000000E+03 0.  0.
</event>
<event>
 4    0  0.2259196E-002  0.1694975E+03  0.7546771E-02  0.1178373E+00
         21   -1    0    0  502  501  0.00000000000E+00  0.00000000000E+00  0.44227065315E+03  0.44227065315E+03  0.00000000000E+00 0.  1.
         21   -1    0    0  501  502 -0.00000000000E+00 -0.00000000000E+00 -0.64958894953E+02  0.64958894953E+02  0.00000000000E+00 0.  1.
         25    1    1    2    0    0 -0.98531552751E+02 -0.31120353255E+02  0.11493541241E+03  0.19877648830E+03  0.12500000000E+03 0.  0.
         25    1    1    2    0    0  0.98531552751E+02  0.31120353255E+02  0.26237634578E+03  0.30845305980E+03  0.12500000000E+03 0.  0.
</event>
<event>
 4    0  0.2259196E-002  0.1869704E+03  0.7546771E-02  0.1161223E+00
         21   -1    0    0  502  501  0.00000000000E+00  0.00000000000E+00  0.86890113127E+03  0.86890113127E+03  0.00000000000E+00 0. -1.
         21   -1    0    0  501  502 -0.00000000000E+00 -0.00000000000E+00 -0.40232342530E+02  0.40232342530E+02  0.00000000000E+00 0. -1.
         25    1    1    2    0    0 -0.89507525365E+01 -0.48735301856E+01  0.75146939808E+03  0.76186292961E+03  0.12500000000E+03 0.  0.
         25    1    1    2    0    0  0.89507525365E+01  0.48735301856E+01  0.77199390663E+02  0.14727054419E+03  0.12500000000E+03 0.  0.
</event>
<event>
 4    0  0.2259196E-002  0.3920264E+03  0.7546771E-02  0.1046576E+00
         21   -1    0    0  502  501  0.00000000000E+00  0.00000000000E+00  0.18891109125E+03  0.18891109125E+03  0.00000000000E+00 0.  1.
         21   -1    0    0  501  502 -0.00000000000E+00 -0.00000000000E+00 -0.81352916361E+03  0.81352916361E+03  0.00000000000E+00 0. -1.
         25    1    1    2    0    0 -0.17004795344E+03 -0.31013793801E+03 -0.45784805200E+03  0.59190513242E+03  0.12500000000E+03 0.  0.
         25    1    1    2    0    0  0.17004795344E+03  0.31013793801E+03 -0.16677002036E+03  0.41053512244E+03  0.12500000000E+03 0.  0.
</event>
<event>
 4    0  0.2259196E-002  0.2854211E+03  0.7546771E-02  0.1092764E+00
         21   -1    0    0  502  501  0.00000000000E+00  0.00000000000E+00  0.35108517829E+02  0.35108517829E+02  0.00000000000E+00 0. -1.
         21   -1    0    0  501  502 -0.00000000000E+00 -0.00000000000E+00 -0.23203836829E+04  0.23203836829E+04  0.00000000000E+00 0. -1.
         25    1    1    2    0    0 -0.25402537875E+03 -0.67431960022E+01 -0.99582618815E+03  0.10353111420E+04  0.12500000000E+03 0.  0.
         25    1    1    2    0    0  0.25402537875E+03  0.67431960022E+01 -0.12894489769E+04  0.13201810587E+04  0.12500000000E+03 0.  0.
</event>
<event>
 4    0  0.2259196E-002  0.2429528E+03  0.7546771E-02  0.1117841E+00
         21   -1    0    0  502  501  0.00000000000E+00  0.00000000000E+00  0.17692117759E+03  0.17692117759E+03  0.00000000000E+00 0. -1.
         21   -1    0    0  501  502 -0.00000000000E+00 -0.00000000000E+00 -0.33362928523E+03  0.33362928523E+03  0.00000000000E+00 0. -1.
         25    1    1    2    0    0  0.95267668993E+02 -0.18042028820E+03 -0.34102967464E+02  0.24169282476E+03  0.12500000000E+03 0.  0.
         25    1    1    2    0    0 -0.95267668993E+02  0.18042028820E+03 -0.12260514018E+03  0.26885763807E+03  0.12500000000E+03 0.  0.
</event>
<event>
 4    0  0.2259196E-002  0.2672399E+03  0.7546771E-02  0.1102870E+00
         21   -1    0    0  502  501  0.00000000000E+00  0.00000000000E+00  0.19734561818E+03  0.19734561818E+03  0.00000000000E+00 0. -1.
         21   -1    0    0  501  502 -0.00000000000E+00 -0.00000000000E+00 -0.36188885633E+03  0.36188885633E+03  0.00000000000E+00 0. -1.
         25    1    1    2    0    0  0.21578786235E+03 -0.94458710510E+02 -0.10055462971E+03  0.28499663697E+03  0.12500000000E+03 0.  0.
         25    1    1    2    0    0 -0.21578786235E+03  0.94458710510E+02 -0.63988608448E+02  0.27423783754E+03  0.12500000000E+03 0.  0.
</event>
<event>
 4    0  0.2259196E-002  0.2240922E+03  0.7546771E-02  0.1130868E+00
         21   -1    0    0  502  501  0.00000000000E+00  0.00000000000E+00  0.22228492237E+04  0.22228492237E+04  0.00000000000E+00 0.  1.
         21   -1    0    0  501  502 -0.00000000000E+00 -0.00000000000E+00 -0.22591422986E+02  0.22591422986E+02  0.00000000000E+00 0.  1.
         25    1    1    2    0    0 -0.61937145077E+02  0.13549898790E+03  0.54231664906E+03  0.57613239234E+03  0.12500000000E+03 0.  0.
         25    1    1    2    0    0  0.61937145077E+02 -0.13549898790E+03  0.16579411516E+04  0.16693082543E+04  0.12500000000E+03 0.  0.
</event>
<event>
 4    0  0.2259196E-002  0.2589589E+03  0.7546771E-02  0.1107770E+00
         21   -1    0    0  502  501  0.00000000000E+00  0.00000000000E+00  0.99271518202E+02  0.99271518202E+02  0.00000000000E+00 0. -1.
         21   -1    0    0  501  502 -0.00000000000E+00 -0.00000000000E+00 -0.67551804249E+03  0.67551804249E+03  0.00000000000E+00 0. -1.
         25    1    1    2    0    0 -0.11060273246E+03 -0.19729102257E+03 -0.26318091840E+03  0.36884401557E+03  0.12500000000E+03 0.  0.
         25    1    1    2    0    0  0.11060273246E+03  0.19729102257E+03 -0.31306560589E+03  0.40594554512E+03  0.12500000000E+03 0.  0.
</event>
<event>
 4    0  0.2259196E-002  0.1978699E+03  0.7546771E-02  0.1151549E+00
         21   -1    0    0  502  501  0.00000000000E+00  0.00000000000E+00  0.33778915718E+02  0.33778915718E+02  0.00000000000E+00 0. -1.
         21   -1    0    0  501  502 -0.00000000000E+00 -0.00000000000E+00 -0.11590804424E+04  0.11590804424E+04  0.00000000000E+00 0. -1.
         25    1    1    2    0    0 -0.14960067633E+03  0.81346829956E+01 -0.46354898830E+03  0.50294055313E+03  0.12500000000E+03 0.  0.
         25    1    1    2    0    0  0.14960067633E+03 -0.81346829956E+01 -0.66175253834E+03  0.68991880495E+03  0.12500000000E+03 0.  0.
</event>
<event>
 4    0  0.2259196E-002  0.3017002E+03  0.7546771E-02  0.1084394E+00
         21   -1    0    0  502  501  0.00000000000E+00  0.00000000000E+00  0.35736565910E+03  0.35736565910E+03  0.00000000000E+00 0.  1.
         21   -1    0    0  501  502 -0.00000000000E+00 -0.00000000000E+00 -0.25470557625E+03  0.25470557625E+03  0.00000000000E+00 0.  1.
         25    1    1    2    0    0  0.61085441496E+02 -0.23568066386E+03  0.18012393932E+03  0.32763766571E+03  0.12500000000E+03 0.  0.
         25    1    1    2    0    0 -0.61085441496E+02  0.23568066386E+03 -0.77463856474E+02  0.28443356964E+03  0.12500000000E+03 0.  0.
</event>
<event>
 4    0  0.2259196E-002  0.2756237E+03  0.7546771E-02  0.1098103E+00
         21   -1    0    0  502  501  0.00000000000E+00  0.00000000000E+00  0.18384894869E+03  0.18384894869E+03  0.00000000000E+00 0.  1.
         21   -1    0    0  501  502 -0.00000000000E+00 -0.00000000000E+00 -0.41321111014E+03  0.41321111014E+03  0.00000000000E+00 0.  1.
         25    1    1    2    0    0  0.32389151457E+02  0.59422565065E+02 -0.37044884244E+03  0.39678387472E+03  0.12500000000E+03 0.  0.
         25    1    1    2    0    0 -0.32389151457E+02 -0.59422565065E+02  0.14108668099E+03  0.20027618412E+03  0.12500000000E+03 0.  0.
</event>
<event>
 4    0  0.2259196E-002  0.2160470E+03  0.7546771E-02  0.1136865E+00
         21   -1    0    0  502  501  0.00000000000E+00  0.00000000000E+00  0.10922968524E+03  0.10922968524E+03  0.00000000000E+00 0. -1.
         21   -1    0    0  501  502 -0.00000000000E+00 -0.00000000000E+00 -0.42732271281E+03  0.42732271281E+03  0.00000000000E+00 0. -1.
         25    1    1    2    0    0 -0.15781671056E+03  0.77738308825E+02 -0.14650751572E+03  0.26084250220E+03  0.12500000000E+03 0.  0.
         25    1    1    2    0    0  0.15781671056E+03 -0.77738308825E+02 -0.17158551185E+03  0.27570989585E+03  0.12500000000E+03 0.  0.
</event>
<event>
 4    0  0.2259196E-002  0.3039569E+03  0.7546771E-02  0.1083279E+00
         21   -1    0    0  502  501  0.00000000000E+00  0.00000000000E+00  0.19986215498E+04  0.19986215498E+04  0.00000000000E+00 0. -1.
         21   -1    0    0  501  502 -0.00000000000E+00 -0.00000000000E+00 -0.46226763059E+02  0.46226763059E+02  0.00000000000E+00 0. -1.
         25    1    1    2    0    0 -0.32396904241E+02  0.19197512787E+03  0.16392911235E+04  0.16555374948E+04  0.12500000000E+03 0.  0.
         25    1    1    2    0    0  0.32396904241E+02 -0.19197512787E+03  0.31310366329E+03  0.38931081810E+03  0.12500000000E+03 0.  0.
</event>
<event>
 4    0  0.2259196E-002  0.2295996E+03  0.7546771E-02  0.1126922E+00
         21   -1    0    0  502  501  0.00000000000E+00  0.00000000000E+00  0.28573896468E+04  0.28573896468E+04  0.00000000000E+00 0.  1.
         21   -1    0    0  501  502 -0.00000000000E+00 -0.00000000000E+00 -0.18449005351E+02  0.18449005351E+02  0.00000000000E+00 0.  1.
         25    1    1    2    0    0 -0.17119888814E+01  0.18900833099E+03  0.11881801124E+04  0.12095966516E+04  0.12500000000E+03 0.  0.
         25    1    1    2    0    0  0.17119888814E+01 -0.18900833099E+03  0.16507605291E+04  0.16662420006E+04  0.12500000000E+03 0.  0.
</event>
<event>
 4    0  0.2259196E-002  0.2130970E+03  0.7546771E-02  0.1139137E+00
         21   -1    0    0  502  501  0.00000000000E+00  0.00000000000E+00  0.68341329908E+03  0.68341329908E+03  0.00000000000E+00 0.  1.
         21   -1    0    0  501  502 -0.00000000000E+00 -0.00000000000E+00 -0.66446361968E+02  0.66446361968E+02  0.00000000000E+00 0.  1.
         25    1    1    2    0    0  0.11798419005E+03 -0.10728885507E+03  0.42458150291E+03  0.47045256949E+03  0.12500000000E+03 0.  0.
         25    1    1    2    0    0 -0.11798419005E+03  0.10728885507E+03  0.19238543420E+03  0.27940709156E+03  0.12500000000E+03 0.  0.
</event>
<event>
 4    0  0.2259196E-002  0.2142364E+03  0.7546771E-02  0.1138254E+00
         21   -1    0    0  502  501  0.00000000000E+00  0.00000000000E+00  0.70736745229E+03  0.70736745229E+03  0.00000000000E+00 0.  1.
         21   -1    0    0  501  502 -0.00000000000E+00 -0.00000000000E+00 -0.64884544669E+02  0.64884544669E+02  0.00000000000E+00 0.  1.
         25    1    1    2    0    0 -0.36054039022E+02  0.15099667937E+03  0.17964243634E+03  0.26832125492E+03  0.12500000000E+03 0.  0.
         25    1    1    2    0    0  0.36054039022E+02 -0.15099667937E+03  0.46284047129E+03  0.50393074204E+03  0.12500000000E+03 0.  0.
</event>
<event>
 4    0  0.2259196E-002  0.2474809E+03  0.7546771E-02  0.1114907E+00
         21   -1    0    0  502  501  0.00000000000E+00  0.00000000000E+00  0.15697307019E+04  0.15697307019E+04  0.00000000000E+00 0.  1.
         21   -1    0    0  501  502 -0.00000000000E+00 -0.00000000000E+00 -0.39017405676E+02  0.39017405676E+02  0.00000000000E+00 0.  1.
         25    1    1    2    0    0  0.91758304086E+02  0.13823128482E+03  0.32814903338E+03  0.38837386959E+03  0.12500000000E+03 0.  0.
         25    1    1    2    0    0 -0.91758304086E+02 -0.13823128482E+03  0.12025642628E+04  0.12203742380E+04  0.12500000000E+03 0.  0.
</event>
<event>
 4    0  0.2259196E-002  0.2192717E+03  0.7546771E-02  0.1134427E+00
         21   -1    0    0  502  501  0.00000000000E+00  0.00000000000E+00  0.22134250920E+03  0.22134250920E+03  0.00000000000E+00 0.  1.
         21   -1    0    0  501  502 -0.00000000000E+00 -0.00000000000E+00 -0.21722022108E+03  0.21722022108E+03  0.00000000000E+00 0.  1.
         25    1    1    2    0    0  0.15073489232E+03  0.33216268592E+02  0.94967027226E+02  0.22015463775E+03  0.12500000000E+03 0.  0.
         25    1    1    2    0    0 -0.15073489232E+03 -0.33216268592E+02 -0.90844739107E+02  0.21840809254E+03  0.12500000000E+03 0.  0.
</event>
<event>
 4    0  0.2259196E-002  0.1693762E+03  0.7546771E-02  0.1178500E+00
         21   -1    0    0  502  501  0.00000000000E+00  0.00000000000E+00  0.18207154957E+04  0.18207154957E+04  0.00000000000E+00 0.  1.
         21   -1    0    0  501  502 -0.00000000000E+00 -0.00000000000E+00 -0.15756603723E+02  0.15756603723E+02  0.00000000000E+00 0.  1.
         25    1    1    2    0    0 -0.88352662335E+02  0.61461697578E+02  0.11110092733E+04  0.11231875794E+04  0.12500000000E+03 0.  0.
         25    1    1    2    0    0  0.88352662335E+02 -0.61461697578E+02  0.69394961869E+03  0.71328452001E+03  0.12500000000E+03 0.  0.
</event>
<event>
 4    0  0.2259196E-002  0.3368049E+03  0.7546771E-02  0.1068165E+00
         21   -1    0    0  502  501  0.00000000000E+00  0.00000000000E+00  0.22192882046E+04  0.22192882046E+04  0.00000000000E+00 0. -1.
         21   -1    0    0  501  502 -0.00000000000E+00 -0.00000000000E+00 -0.51114372993E+02  0.51114372993E+02  0.00000000000E+00 0. -1.
         25    1    1    2    0    0 -0.16422588082E+03  0.26585673516E+03  0.10411105117E+04  0.10941599706E+04  0.12500000000E+03 0.  0.
         25    1    1    2    0    0  0.16422588082E+03 -0.26585673516E+03  0.11270633198E+04  0.11762426070E+04  0.12500000000E+03 0.  0.
</event>
<event>
 4    0  0.2259196E-002  0.2315021E+03  0.7546771E-02  0.1125587E+00
         21   -1    0    0  502  501  0.00000000000E+00  0.00000000000E+00  0.39864253908E+03  0.39864253908E+03  0.00000000000E+00 0.  1.
         21   -1    0    0  501  502 -0.00000000000E+00 -0.00000000000E+00 -0.13443924960E+03  0.13443924960E+03  0.00000000000E+00 0.  1.
         25    1    1    2    0    0 -0.16710115472E+03 -0.74650393324E+02  0.20910243291E+03  0.30470363402E+03  0.12500000000E+03 0.  0.
         25    1    1    2    0    0  0.16710115472E+03  0.74650393324E+02  0.55100856565E+02  0.22837815466E+03  0.12500000000E+03 0.  0.
</event>
<event>
 4    0  0.2259196E-002  0.2255615E+03  0.7546771E-02  0.1129803E+00
         21   -1    0    0  502  501  0.00000000000E+00  0.00000000000E+00  0.20009989884E+03  0.20009989884E+03  0.00000000000E+00 0. -1.
         21   -1    0    0  501  502 -0.00000000000E+00 -0.00000000000E+00 -0.25426291030E+03  0.25426291030E+03  0.00000000000E+00 0. -1.
         25    1    1    2    0    0  0.96456685684E+02  0.89560396406E+02  0.10777567410E+03  0.21110554883E+03  0.12500000000E+03 0.  0.
         25    1    1    2    0    0 -0.96456685684E+02 -0.89560396406E+02 -0.16193868556E+03  0.24325726032E+03  0.12500000000E+03 0.  0.
</event>
<event>
 4    0  0.2259196E-002  0.2093191E+03  0.7546771E-02  0.1142106E+00
         21   -1    0    0  502  501  0.00000000000E+00  0.00000000000E+00  0.69936963256E+02  0.69936963256E+02  0.00000000000E+00 0.  1.
         21   -1    0    0  501  502 -0.00000000000E+00 -0.00000000000E+00 -0.62648530858E+03  0.62648530858E+03  0.00000000000E+00 0.  1.
         25    1    1    2    0    0 -0.11550181465E+03  0.70762660855E+02 -0.11324393814E+03  0.21632663471E+03  0.12500000000E+03 0.  0.
         25    1    1    2    0    0  0.11550181465E+03 -0.70762660855E+02 -0.44330440718E+03  0.48009563712E+03  0.12500000000E+03 0.  0.
</event>
<event>
 4    0  0.2259196E-002  0.3160606E+03  0.7546771E-02  0.1077477E+00
         21   -1    0    0  502  501  0.00000000000E+00  0.00000000000E+00  0.73173586060E+02  0.73173586060E+02  0.00000000000E+00 0.  1.
         21   -1    0    0  501  502 -0.00000000000E+00 -0.00000000000E+00 -0.13651688536E+04  0.13651688536E+04  0.00000000000E+00 0.  1.
         25    1    1    2    0    0 -0.19767453371E+03  0.11959958943E+03 -0.24607956977E+03  0.35994365910E+03  0.12500000000E+03 0.  0.
         25    1    1    2    0    0  0.19767453371E+03 -0.11959958943E+03 -0.10459156978E+04  0.10783987805E+04  0.12500000000E+03 0.  0.
</event>
<event>
 4    0  0.2259196E-002  0.2164369E+03  0.7546771E-02  0.1136568E+00
         21   -1    0    0  502  501  0.00000000000E+00  0.00000000000E+00  0.50354284866E+03  0.50354284866E+03  0.00000000000E+00 0.  1.
         21   -1    0    0  501  502 -0.00000000000E+00 -0.00000000000E+00 -0.93030646167E+02  0.93030646167E+02  0.00000000000E+00 0. -1.
         25    1    1    2    0    0 -0.14848256084E+03  0.72874411136E+02  0.11960791179E+03  0.23935079535E+03  0.12500000000E+03 0.  0.
         25    1    1    2    0    0  0.14848256084E+03 -0.72874411136E+02  0.29090429070E+03  0.35722269947E+03  0.12500000000E+03 0.  0.
</event>
<event>
 4    0  0.2259196E-002  0.2397643E+03  0.7546771E-02  0.1119950E+00
         21   -1    0    0  502  501  0.00000000000E+00  0.00000000000E+00  0.42675252446E+03  0.42675252446E+03  0.00000000000E+00 0. -1.
         21   -1    0    0  501  502 -0.00000000000E+00 -0.00000000000E+00 -0.13470783418E+03  0.13470783418E+03  0.00000000000E+00 0.  1.
         25    1    1    2    0    0 -0.19217426643E+03 -0.63374465786E+02  0.11061209936E+03  0.26231147156E+03  0.12500000000E+03 0.  0.
         25    1    1    2    0    0  0.19217426643E+03  0.63374465786E+02  0.18143259093E+03  0.29914888708E+03  0.12500000000E+03 0.  0.
</event>
<event>
 4    0  0.2259196E-002  0.2473052E+03  0.7546771E-02  0.1115020E+00
         21   -1    0    0  502  501  0.00000000000E+00  0.00000000000E+00  0.13259305140E+03  0.13259305140E+03  0.00000000000E+00 0. -1.
         21   -1    0    0  501  502 -0.00000000000E+00 -0.00000000000E+00 -0.46125980737E+03  0.46125980737E+03  0.00000000000E+00 0. -1.
         25    1    1    2    0    0  0.15478358417E+03  0.99415744226E+02 -0.29416665469E+03  0.36878241398E+03  0.12500000000E+03 0.  0.
         25    1    1    2    0    0 -0.15478358417E+03 -0.99415744226E+02 -0.34500101275E+02  0.22507044479E+03  0.12500000000E+03 0.  0.
</event>
<event>
 4    0  0.2259196E-002  0.2102709E+03  0.7546771E-02  0.1141352E+00
         21   -1    0    0  502  501  0.00000000000E+00  0.00000000000E+00  0.18034636210E+04  0.18034636210E+04  0.00000000000E+00 0. -1.
         21   -1    0    0  501  502 -0.00000000000E+00 -0.00000000000E+00 -0.24516078287E+02  0.24516078287E+02  0.00000000000E+00 0. -1.
         25    1    1    2    0    0 -0.10949670298E+03  0.90560790175E+02  0.12878119575E+04  0.13016433546E+04  0.12500000000E+03 0.  0.
         25    1    1    2    0    0  0.10949670298E+03 -0.90560790175E+02  0.49113558520E+03  0.52633634468E+03  0.12500000000E+03 0.  0.
</event>
<event>
 4    0  0.2259196E-002  0.2366035E+03  0.7546771E-02  0.1122076E+00
         21   -1    0    0  502  501  0.00000000000E+00  0.00000000000E+00  0.78966532536E+02  0.78966532536E+02  0.00000000000E+00 0. -1.
         21   -1    0    0  501  502 -0.00000000000E+00 -0.00000000000E+00 -0.70892330480E+03  0.70892330480E+03  0.00000000000E+00 0. -1.
         25    1    1    2    0    0  0.62870095546E+02 -0.13139000386E+03 -0.84628525165E+02  0.20976884731E+03  0.12500000000E+03 0.  0.
         25    1    1    2    0    0 -0.62870095546E+02  0.13139000386E+03 -0.54532824710E+03  0.57812099003E+03  0.12500000000E+03 0.  0.
</event>
<event>
 4    0  0.2259196E-002  0.1914655E+03  0.7546771E-02  0.1157146E+00
         21   -1    0    0  502  501  0.00000000000E+00  0.00000000000E+00  0.59045734071E+02  0.59045734071E+02  0.00000000000E+00 0.  1.
         21   -1    0    0  501  502 -0.00000000000E+00 -0.00000000000E+00 -0.62085813572E+03  0.62085813572E+03  0.00000000000E+00 0.  1.
         25    1    1    2    0    0  0.13732952484E+03 -0.45241016887E+02 -0.26082811865E+03  0.32336118425E+03  0.12500000000E+03 0.  0.
         25    1    1    2    0    0 -0.13732952484E+03  0.45241016887E+02 -0.30098428301E+03  0.35654268555E+03  0.12500000000E+03 0.  0.
</event>
<event>
 4    0  0.2259196E-002  0.2437950E+03  0.7546771E-02  0.1117290E+00
         21   -1    0    0  502  501  0.00000000000E+00  0.00000000000E+00  0.38814046336E+03  0.38814046336E+03  0.00000000000E+00 0. -1.
         21   -1    0    0  501  502 -0.00000000000E+00 -0.00000000000E+00 -0.15313013107E+03  0.15313013107E+03  0.00000000000E+00 0. -1.
         25    1    1    2    0    0 -0.37884461743E+02 -0.87246353640E+02 -0.89472521546E+02  0.18076916434E+03  0.12500000000E+03 0.  0.
         25    1    1    2    0    0  0.37884461743E+02  0.87246353640E+02  0.32448285384E+03  0.36050143009E+03  0.12500000000E+03 0.  0.
</event>
<event>
 4    0  0.2259196E-002  0.2840025E+03  0.7546771E-02  0.1093523E+00
         21   -1    0    0  502  501  0.00000000000E+00  0.00000000000E+00  0.80572282240E+03  0.80572282240E+03  0.00000000000E+00 0. -1.
         21   -1    0    0  501  502 -0.00000000000E+00 -0.00000000000E+00 -0.10010563402E+03  0.10010563402E+03  0.00000000000E+00 0. -1.
         25    1    1    2    0    0  0.13529697460E+03 -0.11216303274E+03  0.64749999067E+03  0.68247128523E+03  0.12500000000E+03 0.  0.
         25    1    1    2    0    0 -0.13529697460E+03  0.11216303274E+03  0.58117197709E+02  0.22335717118E+03  0.12500000000E+03 0.  0.
</event>
<event>
 4    0  0.2259196E-002  0.2177187E+03  0.7546771E-02  0.1135595E+00
         21   -1    0    0  502  501  0.00000000000E+00  0.00000000000E+00  0.40758421905E+03  0.40758421905E+03  0.00000000000E+00 0.  1.
         21   -1    0    0  501  502 -0.00000000000E+00 -0.00000000000E+00 -0.11629853033E+03  0.11629853033E+03  0.00000000000E+00 0.  1.
         25    1    1    2    0    0  0.13814524825E+03  0.28023477252E+02  0.27692625912E+03  0.33493667742E+03  0.12500000000E+03 0.  0.
         25    1    1    2    0    0 -0.13814524825E+03 -0.28023477252E+02  0.14359429606E+02  0.18894607196E+03  0.12500000000E+03 0.  0.
</event>
<event>
 4    0  0.2259196E-002  0.2577452E+03  0.7546771E-02  0.1108506E+00
         21   -1    0    0  502  501  0.00000000000E+00  0.00000000000E+00  0.12479117487E+03  0.12479117487E+03  0.00000000000E+00 0. -1.
         21   -1    0    0  501  502 -0.00000000000E+00 -0.00000000000E+00 -0.53234990265E+03  0.53234990265E+03  0.00000000000E+00 0. -1.
         25    1    1    2    0    0  0.62508499538E+02  0.21137733691E+03 -0.26384176880E+03  0.36582122688E+03  0.12500000000E+03 0.  0.
         25    1    1    2    0    0 -0.62508499538E+02 -0.21137733691E+03 -0.14371695898E+03  0.29131985063E+03  0.12500000000E+03 0.  0.
</event>
<event>
 4    0  0.2259196E-002  0.2229081E+03  0.7546771E-02  0.1131733E+00
         21   -1    0    0  502  501  0.00000000000E+00  0.00000000000E+00  0.11816923848E+03  0.11816923848E+03  0.00000000000E+00 0. -1.
         21   -1    0    0  501  502 -0.00000000000E+00 -0.00000000000E+00 -0.42048174457E+03  0.42048174457E+03  0.00000000000E+00 0. -1.
         25    1    1    2    0    0  0.65182210653E+02 -0.16527851480E+03 -0.21153540181E+03  0.30321268815E+03  0.12500000000E+03 0.  0.
         25    1    1    2    0    0 -0.65182210653E+02  0.16527851480E+03 -0.90777104283E+02  0.23543829489E+03  0.12500000000E+03 0.  0.
</event>
<event>
 4    0  0.2259196E-002  0.3146010E+03  0.7546771E-02  0.1078161E+00
         21   -1    0    0  502  501  0.00000000000E+00  0.00000000000E+00  0.45348986333E+02  0.45348986333E+02  0.00000000000E+00 0.  1.
         21   -1    0    0  501  502 -0.00000000000E+00 -0.00000000000E+00 -0.21824922300E+04  0.21824922300E+04  0.00000000000E+00 0. -1.
         25    1    1    2    0    0 -0.26249734381E+03  0.15035255409E+02 -0.64637791192E+03  0.70891488871E+03  0.12500000000E+03 0.  0.
         25    1    1    2    0    0  0.26249734381E+03 -0.15035255409E+02 -0.14907653317E+04  0.15189263276E+04  0.12500000000E+03 0.  0.
</event>
<event>
 4    0  0.2259196E-002  0.2018156E+03  0.7546771E-02  0.1148216E+00
         21   -1    0    0  502  501  0.00000000000E+00  0.00000000000E+00  0.57449430682E+02  0.57449430682E+02  0.00000000000E+00 0.  1.
         21   -1    0    0  501  502 -0.00000000000E+00 -0.00000000000E+00 -0.70896297025E+03  0.70896297025E+03  0.00000000000E+00 0.  1.
         25    1    1    2    0    0 -0.26450460821E+02 -0.14684234286E+03 -0.22452738057E+03  0.29715289862E+03  0.12500000000E+03 0.  0.
         25    1    1    2    0    0  0.26450460821E+02  0.14684234286E+03 -0.42698615900E+03  0.46925950232E+03  0.12500000000E+03 0.  0.
</event>
<event>
 4    0  0.2259196E-002  0.2000388E+03  0.7546771E-02  0.1149706E+00
         21   -1    0    0  502  501  0.00000000000E+00  0.00000000000E+00  0.14034444599E+04  0.14034444599E+04  0.00000000000E+00 0. -1.
         21   -1    0    0  501  502 -0.00000000000E+00 -0.00000000000E+00 -0.28512352055E+02  0.28512352055E+02  0.00000000000E+00 0. -1.
         25    1    1    2    0    0 -0.78663980309E+02 -0.54086268748E+02  0.11298578320E+04  0.11407528509E+04  0.12500000000E+03 0.  0.
         25    1    1    2    0    0  0.78663980309E+02  0.54086268748E+02  0.24507427587E+03  0.29120396109E+03  0.12500000000E+03 0.  0.
</event>
<event>
 4    0  0.2259196E-002  0.1802757E+03  0.7546771E-02  0.1167537E+00
         21   -1    0    0  502  501  0.00000000000E+00  0.00000000000E+00  0.96294847658E+02  0.96294847658E+02  0.00000000000E+00 0. -1.
         21   -1    0    0  501  502 -0.00000000000E+00 -0.00000000000E+00 -0.33749798496E+03  0.33749798496E+03  0.00000000000E+00 0. -1.
         25    1    1    2    0    0  0.10871628060E+03  0.55983656076E+02 -0.67870128745E+02  0.18757599471E+03  0.12500000000E+03 0.  0.
         25    1    1    2    0    0 -0.10871628060E+03 -0.55983656076E+02 -0.17333300856E+03  0.24621683791E+03  0.12500000000E+03 0.  0.
</event>
<event>
 4    0  0.2259196E-002  0.2029068E+03  0.7546771E-02  0.1147309E+00
         21   -1    0    0  502  501  0.00000000000E+00  0.00000000000E+00  0.34298126821E+02  0.34298126821E+02  0.00000000000E+00 0. -1.
         21   -1    0    0  501  502 -0.00000000000E+00 -0.00000000000E+00 -0.12003916617E+04  0.12003916617E+04  0.00000000000E+00 0. -1.
         25    1    1    2    0    0 -0.82751290754E+01 -0.15447266224E+03 -0.70535029793E+03  0.73285354876E+03  0.12500000000E+03 0.  0.
         25    1    1    2    0    0  0.82751290754E+01  0.15447266224E+03 -0.46074323694E+03  0.50183623975E+03  0.12500000000E+03 0.  0.
</event>
<event>
 4    0  0.2259196E-002  0.2754595E+03  0.7546771E-02  0.1098195E+00
         21   -1    0    0  502  501  0.00000000000E+00  0.00000000000E+00  0.77107512847E+03  0.77107512847E+03  0.00000000000E+00 0.  1.
         21   -1    0    0  501  502 -0.00000000000E+00 -0.00000000000E+00 -0.98405370315E+02  0.98405370315E+02  0.00000000000E+00 0.  1.
         25    1    1    2    0    0 -0.14567432916E+02  0.20852865368E+03  0.13325977482E+03  0.27763208945E+03  0.12500000000E+03 0.  0.
         25    1    1    2    0    0  0.14567432916E+02 -0.20852865368E+03  0.53940998334E+03  0.59184840934E+03  0.12500000000E+03 0.  0.
</event>
<event>
 4    0  0.2259196E-002  0.2338431E+03  0.7546771E-02  0.1123964E+00
         21   -1    0    0  502  501  0.00000000000E+00  0.00000000000E+00  0.53665199907E+02  0.53665199907E+02  0.00000000000E+00 0.  1.
         21   -1    0    0  501  502 -0.00000000000E+00 -0.00000000000E+00 -0.10189582590E+04  0.10189582590E+04  0.00000000000E+00 0.  1.
         25    1    1    2    0    0 -0.14818206402E+03 -0.12816712964E+03 -0.54213811531E+03  0.58985038212E+03  0.12500000000E+03 0.  0.
         25    1    1    2    0    0  0.14818206402E+03  0.12816712964E+03 -0.42315494375E+03  0.48277307676E+03  0.12500000000E+03 0.  0.
</event>
<event>
 4    0  0.2259196E-002  0.1798079E+03  0.7546771E-02  0.1167989E+00
         21   -1    0    0  502  501  0.00000000000E+00  0.00000000000E+00  0.83601491995E+02  0.83601491995E+02  0.00000000000E+00 0. -1.
         21   -1    0    0  501  502 -0.00000000000E+00 -0.00000000000E+00 -0.38672618072E+03  0.38672618072E+03  0.00000000000E+00 0. -1.
         25    1    1    2    0    0 -0.11024364400E+03  0.10792261774E+02 -0.23866779891E+03  0.29130302469E+03  0.12500000000E+03 0.  0.
         25    1    1    2    0    0  0.11024364400E+03 -0.10792261774E+02 -0.64456889819E+02  0.17902464803E+03  0.12500000000E+03 0.  0.
</event>
<event>
 4    0  0.2259196E-002  0.2001716E+03  0.7546771E-02  0.1149594E+00
         21   -1    0    0  502  501  0.00000000000E+00  0.00000000000E+00  0.89553344698E+02  0.89553344698E+02  0.00000000000E+00 0.  1.
         21   -1    0    0  501  502 -0.00000000000E+00 -0.00000000000E+00 -0.44742781859E+03  0.44742781859E+03  0.00000000000E+00 0.  1.
         25    1    1    2    0    0  0.62768461534E+02 -0.13994677698E+03 -0.13828277644E+03  0.24139616072E+03  0.12500000000E+03 0.  0.
         25    1    1    2    0    0 -0.62768461534E+02  0.13994677698E+03 -0.21959169746E+03  0.29558500257E+03  0.12500000000E+03 0.  0.
</event>
<event>
 4    0  0.2259196E-002  0.2511427E+03  0.7546771E-02  0.1112585E+00
         21   -1    0    0  502  501  0.00000000000E+00  0.00000000000E+00  0.14471355218E+03  0.14471355218E+03  0.00000000000E+00 0. -1.
         21   -1    0    0  501  502 -0.00000000000E+00 -0.00000000000E+00 -0.43584471661E+03  0.43584471661E+03  0.00000000000E+00 0. -1.
         25    1    1    2    0    0  0.12026012606E+03  0.15764919670E+03 -0.41336110135E+02  0.23801143070E+03  0.12500000000E+03 0.  0.
         25    1    1    2    0    0 -0.12026012606E+03 -0.15764919670E+03 -0.24979505429E+03  0.34254683810E+03  0.12500000000E+03 0.  0.
</event>
<event>
 4    0  0.2259196E-002  0.2075120E+03  0.7546771E-02  0.1143552E+00
         21   -1    0    0  502  501  0.00000000000E+00  0.00000000000E+00  0.27983489732E+03  0.27983489732E+03  0.00000000000E+00 0. -1.
         21   -1    0    0  501  502 -0.00000000000E+00 -0.00000000000E+00 -0.15388078033E+03  0.15388078033E+03  0.00000000000E+00 0. -1.
         25    1    1    2    0    0  0.76844219831E+02 -0.14184795786E+03  0.23731261302E+02  0.20546058024E+03  0.12500000000E+03 0.  0.
         25    1    1    2    0    0 -0.76844219831E+02  0.14184795786E+03  0.10222285569E+03  0.22825509741E+03  0.12500000000E+03 0.  0.
</event>
<event>
 4    0  0.2259196E-002  0.1887610E+03  0.7546771E-02  0.1159584E+00
         21   -1    0    0  502  501  0.00000000000E+00  0.00000000000E+00  0.75866196474E+03  0.75866196474E+03  0.00000000000E+00 0. -1.
         21   -1    0    0  501  502 -0.00000000000E+00 -0.00000000000E+00 -0.46965213309E+02  0.46965213309E+02  0.00000000000E+00 0. -1.
         25    1    1    2    0    0  0.10969986329E+03 -0.88455900848E+02  0.38174047450E+03  0.42568685236E+03  0.12500000000E+03 0.  0.
         25    1    1    2    0    0 -0.10969986329E+03  0.88455900848E+02  0.32995627693E+03  0.37994032569E+03  0.12500000000E+03 0.  0.
</event>
<event>
 4    0  0.2259196E-002  0.2263311E+03  0.7546771E-02  0.1129249E+00
         21   -1    0    0  502  501  0.00000000000E+00  0.00000000000E+00  0.16925732422E+03  0.16925732422E+03  0.00000000000E+00 0.  1.
         21   -1    0    0  501  502 -0.00000000000E+00 -0.00000000000E+00 -0.30265019937E+03  0.30265019937E+03  0.00000000000E+00 0.  1.
         25    1    1    2    0    0 -0.10764948528E+03 -0.15238075310E+03 -0.96043905031E+02  0.24424933427E+03  0.12500000000E+03 0.  0.
         25    1    1    2    0    0  0.10764948528E+03  0.15238075310E+03 -0.37348970120E+02  0.22765818932E+03  0.12500000000E+03 0.  0.
</event>
<event>
 4    0  0.2259196E-002  0.1853566E+03  0.7546771E-02  0.1162717E+00
         21   -1    0    0  502  501  0.00000000000E+00  0.00000000000E+00  0.15545848294E+03  0.15545848294E+03  0.00000000000E+00 0. -1.
         21   -1    0    0  501  502 -0.00000000000E+00 -0.00000000000E+00 -0.22100486666E+03  0.22100486666E+03  0.00000000000E+00 0. -1.
         25    1    1    2    0    0  0.90871016664E+02 -0.76491969978E+02 -0.10182433277E+03  0.20025423313E+03  0.12500000000E+03 0.  0.
         25    1    1    2    0    0 -0.90871016664E+02  0.76491969978E+02  0.36277949054E+02  0.17620911647E+03  0.12500000000E+03 0.  0.
</event>
<event>
 4    0  0.2259196E-002  0.1733797E+03  0.7546771E-02  0.1174368E+00
         21   -1    0    0  502  501  0.00000000000E+00  0.00000000000E+00  0.27051778390E+03  0.27051778390E+03  0.00000000000E+00 0. -1.
         21   -1    0    0  501  502 -0.00000000000E+00 -0.00000000000E+00 -0.11112220832E+03  0.11112220832E+03  0.00000000000E+00 0. -1.
         25    1    1    2    0    0 -0.82894000808E+02 -0.35921505354E+02 -0.74767425318E+01  0.15441072371E+03  0.12500000000E+03 0.  0.
         25    1    1    2    0    0  0.82894000808E+02  0.35921505354E+02  0.16687231811E+03  0.22722926851E+03  0.12500000000E+03 0.  0.
</event>
<event>
 4    0  0.2259196E-002  0.2010432E+03  0.7546771E-02  0.1148862E+00
         21   -1    0    0  502  501  0.00000000000E+00  0.00000000000E+00  0.61450811118E+03  0.61450811118E+03  0.00000000000E+00 0. -1.
         21   -1    0    0  501  502 -0.00000000000E+00 -0.00000000000E+00 -0.65773527192E+02  0.65773527192E+02  0.00000000000E+00 0. -1.
         25    1    1    2    0    0 -0.79648156117E+02  0.10826628609E+03  0.13559246131E+03  0.22820108028E+03  0.12500000000E+03 0.  0.
         25    1    1    2    0    0  0.79648156117E+02 -0.10826628609E+03  0.41314212267E+03  0.45208055809E+03  0.12500000000E+03 0.  0.
</event>
<event>
 4    0  0.2259196E-002  0.2034153E+03  0.7546771E-02  0.1146889E+00
         21   -1    0    0  502  501  0.00000000000E+00  0.00000000000E+00  0.77248938400E+02  0.77248938400E+02  0.00000000000E+00 0.  1.
         21   -1    0    0  501  502 -0.00000000000E+00 -0.00000000000E+00 -0.53564200513E+03  0.53564200513E+03  0.00000000000E+00 0.  1.
         25    1    1    2    0    0  0.78358093397E+02  0.97713039363E+02 -0.38033513146E+03  0.41948497123E+03  0.12500000000E+03 0.  0.
         25    1    1    2    0    0 -0.78358093397E+02 -0.97713039363E+02 -0.78057935264E+02  0.19340597230E+03  0.12500000000E+03 0.  0.
</event>
<event>
 4    0  0.2259196E-002  0.2292749E+03  0.7546771E-02  0.1127151E+00
         21   -1    0    0  502  501  0.00000000000E+00  0.00000000000E+00  0.36363476563E+03  0.36363476563E+03  0.00000000000E+00 0. -1.
         21   -1    0    0  501  502 -0.00000000000E+00 -0.00000000000E+00 -0.14455978686E+03  0.14455978686E+03  0.00000000000E+00 0. -1.
         25    1    1    2    0    0  0.13953936026E+03 -0.13217316444E+03  0.11063783259E+03  0.25457161754E+03  0.12500000000E+03 0.  0.
         25    1    1    2    0    0 -0.13953936026E+03  0.13217316444E+03  0.10843714619E+03  0.25362293495E+03  0.12500000000E+03 0.  0.
</event>
<event>
 4    0  0.2259196E-002  0.2924942E+03  0.7546771E-02  0.1089054E+00
         21   -1    0    0  502  501  0.00000000000E+00  0.00000000000E+00  0.14680666214E+04  0.14680666214E+04  0.00000000000E+00 0. -1.
         21   -1    0    0  501  502 -0.00000000000E+00 -0.00000000000E+00 -0.58275865134E+02  0.58275865134E+02  0.00000000000E+00 0. -1.
         25    1    1    2    0    0 -0.98421924216E+02  0.15510906689E+03  0.12012041639E+04  0.12215818193E+04  0.12500000000E+03 0.  0.
         25    1    1    2    0    0  0.98421924216E+02 -0.15510906689E+03  0.20858659238E+03  0.30476066728E+03  0.12500000000E+03 0.  0.
</event>
<event>
 4    0  0.2259196E-002  0.2167015E+03  0.7546771E-02  0.1136366E+00
         21   -1    0    0  502  501  0.00000000000E+00  0.00000000000E+00  0.21746037110E+03  0.21746037110E+03  0.00000000000E+00 0. -1.
         21   -1    0    0  501  502 -0.00000000000E+00 -0.00000000000E+00 -0.21594519801E+03  0.21594519801E+03  0.00000000000E+00 0. -1.
         25    1    1    2    0    0 -0.16882113426E+03  0.21592231399E+02 -0.47901965472E+02  0.21653267219E+03  0.12500000000E+03 0.  0.
         25    1    1    2    0    0  0.16882113426E+03 -0.21592231399E+02  0.49417138563E+02  0.21687289691E+03  0.12500000000E+03 0.  0.
</event>
<event>
 4    0  0.2259196E-002  0.2158499E+03  0.7546771E-02  0.1137015E+00
         21   -1    0    0  502  501  0.00000000000E+00  0.00000000000E+00  0.17000530349E+04  0.17000530349E+04  0.00000000000E+00 0. -1.
         21   -1    0    0  501  502 -0.00000000000E+00 -0.00000000000E+00 -0.27405715592E+02  0.27405715592E+02  0.00000000000E+00 0. -1.
         25    1    1    2    0    0  0.10499694449E+03  0.12176313347E+03  0.55012203893E+03  0.58660879361E+03  0.12500000000E+03 0.  0.
         25    1    1    2    0    0 -0.10499694449E+03 -0.12176313347E+03  0.11225252804E+04  0.11408499569E+04  0.12500000000E+03 0.  0.
</event>
<event>
 4    0  0.2259196E-002  0.2835790E+03  0.7546771E-02  0.1093750E+00
         21   -1    0    0  502  501  0.00000000000E+00  0.00000000000E+00  0.69333154628E+02  0.69333154628E+02  0.00000000000E+00 0. -1.
         21   -1    0    0  501  502 -0.00000000000E+00 -0.00000000000E+00 -0.11598639840E+04  0.11598639840E+04  0.00000000000E+00 0. -1.
         25    1    1    2    0    0 -0.17231324580E+03  0.12156869010E+03 -0.85421847814E+03  0.88869849189E+03  0.12500000000E+03 0.  0.
         25    1    1    2    0    0  0.17231324580E+03 -0.12156869010E+03 -0.23631235126E+03  0.34049864677E+03  0.12500000000E+03 0.  0.
</event>
<event>
 4    0  0.2259196E-002  0.2762652E+03  0.7546771E-02  0.1097746E+00
         21   -1    0    0  502  501  0.00000000000E+00  0.00000000000E+00  0.27920943860E+03  0.27920943860E+03  0.00000000000E+00 0.  1.
         21   -1    0    0  501  502 -0.00000000000E+00 -0.00000000000E+00 -0.27335202673E+03  0.27335202673E+03  0.00000000000E+00 0.  1.
         25    1    1    2    0    0 -0.19640895612E+02  0.21067228376E+03 -0.12328809219E+03  0.27494277514E+03  0.12500000000E+03 0.  0.
         25    1    1    2    0    0  0.19640895612E+02 -0.21067228376E+03  0.12914550406E+03  0.27761869019E+03  0.12500000000E+03 0.  0.
</event>
<event>
 4    0  0.2259196E-002  0.2008688E+03  0.7546771E-02  0.1149008E+00
         21   -1    0    0  502  501  0.00000000000E+00  0.00000000000E+00  0.49255419456E+03  0.49255419456E+03  0.00000000000E+00 0.  1.
         21   -1    0    0  501  502 -0.00000000000E+00 -0.00000000000E+00 -0.81916418728E+02  0.81916418728E+02  0.00000000000E+00 0.  1.
         25    1    1    2    0    0  0.11256531120E+03 -0.10724796977E+03  0.23886061073E+03  0.31121129103E+03  0.12500000000E+03 0.  0.
         25    1    1    2    0    0 -0.11256531120E+03  0.10724796977E+03  0.17177716510E+03  0.26325932226E+03  0.12500000000E+03 0.  0.
</event>
<event>
 4    0  0.2259196E-002  0.3803811E+03  0.7546771E-02  0.1050793E+00
         21   -1    0    0  502  501  0.00000000000E+00  0.00000000000E+00  0.68159577459E+03  0.68159577459E+03  0.00000000000E+00 0.  1.
         21   -1    0    0  501  502 -0.00000000000E+00 -0.00000000000E+00 -0.21228097127E+03  0.21228097127E+03  0.00000000000E+00 0. -1.
         25    1    1    2    0    0 -0.24244960708E+03 -0.78908521668E+02  0.53203625770E+03  0.60307209045E+03  0.12500000000E+03 0.  0.
         25    1    1    2    0    0  0.24244960708E+03  0.78908521668E+02 -0.62721454383E+02  0.29080465541E+03  0.12500000000E+03 0.  0.
</event>
<event>
 4    0  0.2259196E-002  0.1932845E+03  0.7546771E-02  0.1155532E+00
         21   -1    0    0  502  501  0.00000000000E+00  0.00000000000E+00  0.85157673407E+02  0.85157673407E+02  0.00000000000E+00 0.  1.
         21   -1    0    0  501  502 -0.00000000000E+00 -0.00000000000E+00 -0.43870272475E+03  0.43870272475E+03  0.00000000000E+00 0.  1.
         25    1    1    2    0    0  0.19231594230E+02  0.29852145182E+02  0.17127640257E+02  0.13107006084E+03  0.12500000000E+03 0.  0.
         25    1    1    2    0    0 -0.19231594230E+02 -0.29852145182E+02 -0.37067269160E+03  0.39279033731E+03  0.12500000000E+03 0.  0.
</event>
<event>
 4    0  0.2259196E-002  0.2569461E+03  0.7546771E-02  0.1108992E+00
         21   -1    0    0  502  501  0.00000000000E+00  0.00000000000E+00  0.27011786909E+03  0.27011786909E+03  0.00000000000E+00 0. -1.
         21   -1    0    0  501  502 -0.00000000000E+00 -0.00000000000E+00 -0.24441664818E+03  0.24441664818E+03  0.00000000000E+00 0. -1.
         25    1    1    2    0    0  0.28605736662E+02  0.17646089457E+03  0.14881270568E+03  0.26405862390E+03  0.12500000000E+03 0.  0.
         25    1    1    2    0    0 -0.28605736662E+02 -0.17646089457E+03 -0.12311148477E+03  0.25047589338E+03  0.12500000000E+03 0.  0.
</event>
<event>
 4    0  0.2259196E-002  0.2467841E+03  0.7546771E-02  0.1115354E+00
         21   -1    0    0  502  501  0.00000000000E+00  0.00000000000E+00  0.76814439358E+03  0.76814439358E+03  0.00000000000E+00 0.  1.
         21   -1    0    0  501  502 -0.00000000000E+00 -0.00000000000E+00 -0.79285061681E+02  0.79285061681E+02  0.00000000000E+00 0.  1.
         25    1    1    2    0    0  0.15213500233E+02 -0.21216882295E+03  0.35388309930E+03  0.43139924431E+03  0.12500000000E+03 0.  0.
         25    1    1    2    0    0 -0.15213500233E+02  0.21216882295E+03  0.33497623260E+03  0.41603021095E+03  0.12500000000E+03 0.  0.
</event>
<event>
 4    0  0.2259196E-002  0.1870764E+03  0.7546771E-02  0.1161125E+00
         21   -1    0    0  502  501  0.00000000000E+00  0.00000000000E+00  0.12884848699E+03  0.12884848699E+03  0.00000000000E+00 0.  1.
         21   -1    0    0  501  502 -0.00000000000E+00 -0.00000000000E+00 -0.27161814451E+03  0.27161814451E+03  0.00000000000E+00 0.  1.
         25    1    1    2    0    0  0.41155291362E+02  0.84548647920E+02  0.38449676066E+02  0.16107640877E+03  0.12500000000E+03 0.  0.
         25    1    1    2    0    0 -0.41155291362E+02 -0.84548647920E+02 -0.18121933359E+03  0.23939022273E+03  0.12500000000E+03 0.  0.
</event>
<event>
 4    0  0.2259196E-002  0.2455720E+03  0.7546771E-02  0.1116136E+00
         21   -1    0    0  502  501  0.00000000000E+00  0.00000000000E+00  0.57546251582E+02  0.57546251582E+02  0.00000000000E+00 0.  1.
         21   -1    0    0  501  502 -0.00000000000E+00 -0.00000000000E+00 -0.10479502965E+04  0.10479502965E+04  0.00000000000E+00 0.  1.
         25    1    1    2    0    0 -0.13110609852E+03 -0.16517777141E+03 -0.46273137014E+03  0.52365811953E+03  0.12500000000E+03 0.  0.
         25    1    1    2    0    0  0.13110609852E+03  0.16517777141E+03 -0.52767267482E+03  0.58183842860E+03  0.12500000000E+03 0.  0.
</event>
<event>
 4    0  0.2259196E-002  0.1825593E+03  0.7546771E-02  0.1165349E+00
         21   -1    0    0  502  501  0.00000000000E+00  0.00000000000E+00  0.14413389152E+03  0.14413389152E+03  0.00000000000E+00 0. -1.
         21   -1    0    0  501  502 -0.00000000000E+00 -0.00000000000E+00 -0.23122871642E+03  0.23122871642E+03  0.00000000000E+00 0. -1.
         25    1    1    2    0    0  0.41180816688E+02 -0.10197366774E+03  0.33443027312E+02  0.16981732730E+03  0.12500000000E+03 0.  0.
         25    1    1    2    0    0 -0.41180816688E+02  0.10197366774E+03 -0.12053785221E+03  0.20554528063E+03  0.12500000000E+03 0.  0.
</event>
<event>
 4    0  0.2259196E-002  0.2021068E+03  0.7546771E-02  0.1147974E+00
         21   -1    0    0  502  501  0.00000000000E+00  0.00000000000E+00  0.18113316607E+03  0.18113316607E+03  0.00000000000E+00 0.  1.
         21   -1    0    0  501  502 -0.00000000000E+00 -0.00000000000E+00 -0.22550890724E+03  0.22550890724E+03  0.00000000000E+00 0.  1.
         25    1    1    2    0    0 -0.15586144390E+02 -0.15804219152E+03 -0.23567293416E+02  0.20347156931E+03  0.12500000000E+03 0.  0.
         25    1    1    2    0    0  0.15586144390E+02  0.15804219152E+03 -0.20808447747E+02  0.20317050400E+03  0.12500000000E+03 0.  0.
</event>
<event>
 4    0  0.2259196E-002  0.2557715E+03  0.7546771E-02  0.1109711E+00
         21   -1    0    0  502  501  0.00000000000E+00  0.00000000000E+00  0.46281722302E+02  0.46281722302E+02  0.00000000000E+00 0.  1.
         21   -1    0    0  501  502 -0.00000000000E+00 -0.00000000000E+00 -0.14134962615E+04  0.14134962615E+04  0.00000000000E+00 0.  1.
         25    1    1    2    0    0  0.92607591869E+02 -0.13782127254E+02 -0.12616294711E+04  0.12712592322E+04  0.12500000000E+03 0.  0.
         25    1    1    2    0    0 -0.92607591869E+02  0.13782127254E+02 -0.10558506811E+03  0.18851875162E+03  0.12500000000E+03 0.  0.
</event>
<event>
 4    0  0.2259196E-002  0.2094236E+03  0.7546771E-02  0.1142023E+00
         21   -1    0    0  502  501  0.00000000000E+00  0.00000000000E+00  0.21645855797E+02  0.21645855797E+02  0.00000000000E+00 0.  1.
         21   -1    0    0  501  502 -0.00000000000E+00 -0.00000000000E+00 -0.20261730636E+04  0.20261730636E+04  0.00000000000E+00 0.  1.
         25    1    1    2    0    0  0.71975685776E+02  0.12611895907E+03 -0.58893975206E+03  0.61932343952E+03  0.12500000000E+03 0.  0.
         25    1    1    2    0    0 -0.71975685776E+02 -0.12611895907E+03 -0.14155874557E+04  0.14284954799E+04  0.12500000000E+03 0.  0.
</event>
<event>
 4    0  0.2259196E-002  0.2946735E+03  0.7546771E-02  0.1087934E+00
         21   -1    0    0  502  501  0.00000000000E+00  0.00000000000E+00  0.13331407358E+04  0.13331407358E+04  0.00000000000E+00 0.  1.
         21   -1    0    0  501  502 -0.00000000000E+00 -0.00000000000E+00 -0.65133744738E+02  0.65133744738E+02  0.00000000000E+00 0.  1.
         25    1    1    2    0    0  0.16613034782E+03 -0.24313106379E+01  0.13858087048E+03  0.24986968884E+03  0.12500000000E+03 0.  0.
         25    1    1    2    0    0 -0.16613034782E+03  0.24313106379E+01  0.11294261206E+04  0.11484047917E+04  0.12500000000E+03 0.  0.
</event>
<event>
 4    0  0.2259196E-002  0.2052953E+03  0.7546771E-02  0.1145347E+00
         21   -1    0    0  502  501  0.00000000000E+00  0.00000000000E+00  0.96564307733E+02  0.96564307733E+02  0.00000000000E+00 0. -1.
         21   -1    0    0  501  502 -0.00000000000E+00 -0.00000000000E+00 -0.43645677862E+03  0.43645677862E+03  0.00000000000E+00 0. -1.
         25    1    1    2    0    0 -0.15652706105E+03 -0.39097507759E+02 -0.19873575759E+03  0.28486880717E+03  0.12500000000E+03 0.  0.
         25    1    1    2    0    0  0.15652706105E+03  0.39097507759E+02 -0.14115671329E+03  0.24815227918E+03  0.12500000000E+03 0.  0.
</event>
<event>
 4    0  0.2259196E-002  0.2811136E+03  0.7546771E-02  0.1095082E+00
         21   -1    0    0  502  501  0.00000000000E+00  0.00000000000E+00  0.16546301719E+04  0.16546301719E+04  0.00000000000E+00 0.  1.
         21   -1    0    0  501  502 -0.00000000000E+00 -0.00000000000E+00 -0.47759844645E+02  0.47759844645E+02  0.00000000000E+00 0.  1.
         25    1    1    2    0    0  0.19675611461E+01 -0.46132941221E+02  0.15529205138E+04  0.15586273582E+04  0.12500000000E+03 0.  0.
         25    1    1    2    0    0 -0.19675611461E+01  0.46132941221E+02  0.53949813462E+02  0.14376265835E+03  0.12500000000E+03 0.  0.
</event>
<event>
 4    0  0.2259196E-002  0.2285813E+03  0.7546771E-02  0.1127642E+00
         21   -1    0    0  502  501  0.00000000000E+00  0.00000000000E+00  0.59103976936E+02  0.59103976936E+02  0.00000000000E+00 0.  1.
         21   -1    0    0  501  502 -0.00000000000E+00 -0.00000000000E+00 -0.88402566538E+03  0.88402566538E+03  0.00000000000E+00 0.  1.
         25    1    1    2    0    0 -0.57207840920E+02  0.14107949933E+03 -0.65170086175E+03  0.68081948812E+03  0.12500000000E+03 0.  0.
         25    1    1    2    0    0  0.57207840920E+02 -0.14107949933E+03 -0.17322082669E+03  0.26231015420E+03  0.12500000000E+03 0.  0.
</event>
<event>
 4    0  0.2259196E-002  0.2624030E+03  0.7546771E-02  0.1105708E+00
         21   -1    0    0  502  501  0.00000000000E+00  0.00000000000E+00  0.21037054804E+03  0.21037054804E+03  0.00000000000E+00 0. -1.
         21   -1    0    0  501  502 -0.00000000000E+00 -0.00000000000E+00 -0.32730505280E+03  0.32730505280E+03  0.00000000000E+00 0. -1.
         25    1    1    2    0    0 -0.11003531064E+03  0.10826706006E+03  0.11720420819E+03  0.23063250486E+03  0.12500000000E+03 0.  0.
         25    1    1    2    0    0  0.11003531064E+03 -0.10826706006E+03 -0.23413871296E+03  0.30704309598E+03  0.12500000000E+03 0.  0.
</event>
<event>
 4    0  0.2259196E-002  0.2522363E+03  0.7546771E-02  0.1111900E+00
         21   -1    0    0  502  501  0.00000000000E+00  0.00000000000E+00  0.80635654454E+02  0.80635654454E+02  0.00000000000E+00 0. -1.
         21   -1    0    0  501  502 -0.00000000000E+00 -0.00000000000E+00 -0.78902018637E+03  0.78902018637E+03  0.00000000000E+00 0. -1.
         25    1    1    2    0    0  0.16104590846E+02  0.14671129015E+03 -0.75078398919E+02  0.20747367662E+03  0.12500000000E+03 0.  0.
         25    1    1    2    0    0 -0.16104590846E+02 -0.14671129015E+03 -0.63330613299E+03  0.66218216420E+03  0.12500000000E+03 0.  0.
</event>
<event>
 4    0  0.2259196E-002  0.1547283E+03  0.7546771E-02  0.1194780E+00
         21   -1    0    0  502  501  0.00000000000E+00  0.00000000000E+00  0.85092910793E+02  0.85092910793E+02  0.00000000000E+00 0.  1.
         21   -1    0    0  501  502 -0.00000000000E+00 -0.00000000000E+00 -0.28134962868E+03  0.28134962868E+03  0.00000000000E+00 0.  1.
         25    1    1    2    0    0  0.32758066852E+02 -0.23006884219E+02 -0.19515230710E+03  0.23518467347E+03  0.12500000000E+03 0.  0.
         25    1    1    2    0    0 -0.32758066852E+02  0.23006884219E+02 -0.11044107832E+01  0.13125786601E+03  0.12500000000E+03 0.  0.
</event>
<event>
 4    0  0.2259196E-002  0.2167608E+03  0.7546771E-02  0.1136321E+00
         21   -1    0    0  502  501  0.00000000000E+00  0.00000000000E+00  0.71640545549E+02  0.71640545549E+02  0.00000000000E+00 0.  1.
         21   -1    0    0  501  502 -0.00000000000E+00 -0.00000000000E+00 -0.65584714262E+03  0.65584714262E+03  0.00000000000E+00 0.  1.
         25    1    1    2    0    0 -0.14983844668E+03  0.88848651400E+02 -0.34555520611E+03  0.40666822279E+03  0.12500000000E+03 0.  0.
         25    1    1    2    0    0  0.14983844668E+03 -0.88848651400E+02 -0.23865139096E+03  0.32081946538E+03  0.12500000000E+03 0.  0.
</event>
<event>
 4    0  0.2259196E-002  0.2556427E+03  0.7546771E-02  0.1109790E+00
         21   -1    0    0  502  501  0.00000000000E+00  0.00000000000E+00  0.17373190667E+03  0.17373190667E+03  0.00000000000E+00 0. -1.
         21   -1    0    0  501  502 -0.00000000000E+00 -0.00000000000E+00 -0.37617256905E+03  0.37617256905E+03  0.00000000000E+00 0. -1.
         25    1    1    2    0    0  0.91628413990E+02 -0.14988628454E+03 -0.24895068065E+03  0.32933737404E+03  0.12500000000E+03 0.  0.
         25    1    1    2    0    0 -0.91628413990E+02  0.14988628454E+03  0.46510018269E+02  0.22056710168E+03  0.12500000000E+03 0.  0.
</event>
<event>
 4    0  0.2259196E-002  0.2022479E+03  0.7546771E-02  0.1147856E+00
         21   -1    0    0  502  501  0.00000000000E+00  0.00000000000E+00  0.13566573089E+03  0.13566573089E+03  0.00000000000E+00 0. -1.
         21   -1    0    0  501  502 -0.00000000000E+00 -0.00000000000E+00 -0.30150723177E+03  0.30150723177E+03  0.00000000000E+00 0. -1.
         25    1    1    2    0    0  0.53456710971E+02 -0.10485158259E+02 -0.24435850362E+03  0.27982786992E+03  0.12500000000E+03 0.  0.
         25    1    1    2    0    0 -0.53456710971E+02  0.10485158259E+02  0.78517002741E+02  0.15734509274E+03  0.12500000000E+03 0.  0.
</event>
<event>
 4    0  0.2259196E-002  0.2218198E+03  0.7546771E-02  0.1132534E+00
         21   -1    0    0  502  501  0.00000000000E+00  0.00000000000E+00  0.18971783908E+03  0.18971783908E+03  0.00000000000E+00 0. -1.
         21   -1    0    0  501  502 -0.00000000000E+00 -0.00000000000E+00 -0.25935362942E+03  0.25935362942E+03  0.00000000000E+00 0. -1.
         25    1    1    2    0    0 -0.67370698378E+02  0.13706188720E+03 -0.13732097607E+03  0.24043049389E+03  0.12500000000E+03 0.  0.
         25    1    1    2    0    0  0.67370698378E+02 -0.13706188720E+03  0.67685185720E+02  0.20864097461E+03  0.12500000000E+03 0.  0.
</event>
<event>
 4    0  0.2259196E-002  0.1984717E+03  0.7546771E-02  0.1151035E+00
         21   -1    0    0  502  501  0.00000000000E+00  0.00000000000E+00  0.16609052606E+03  0.16609052606E+03  0.00000000000E+00 0. -1.
         21   -1    0    0  501  502 -0.00000000000E+00 -0.00000000000E+00 -0.23716585765E+03  0.23716585765E+03  0.00000000000E+00 0. -1.
         25    1    1    2    0    0  0.42884418996E+02  0.14158837550E+03 -0.79582244373E+02  0.20939120108E+03  0.12500000000E+03 0.  0.
         25    1    1    2    0    0 -0.42884418996E+02 -0.14158837550E+03  0.85069127785E+01  0.19386518263E+03  0.12500000000E+03 0.  0.
</event>
<event>
 4    0  0.2259196E-002  0.1669447E+03  0.7546771E-02  0.1181072E+00
         21   -1    0    0  502  501  0.00000000000E+00  0.00000000000E+00  0.38626418176E+03  0.38626418176E+03  0.00000000000E+00 0.  1.
         21   -1    0    0  501  502 -0.00000000000E+00 -0.00000000000E+00 -0.72154109743E+02  0.72154109743E+02  0.00000000000E+00 0.  1.
         25    1    1    2    0    0 -0.44661555338E+02 -0.39186411244E+02  0.28522929829E+03  0.31703466996E+03  0.12500000000E+03 0.  0.
         25    1    1    2    0    0  0.44661555338E+02  0.39186411244E+02  0.28880773730E+02  0.14138362155E+03  0.12500000000E+03 0.  0.
</event>
<event>
 4    0  0.2259196E-002  0.2078402E+03  0.7546771E-02  0.1143288E+00
         21   -1    0    0  502  501  0.00000000000E+00  0.00000000000E+00  0.34057322845E+02  0.34057322845E+02  0.00000000000E+00 0. -1.
         21   -1    0    0  501  502 -0.00000000000E+00 -0.00000000000E+00 -0.12683780195E+04  0.12683780195E+04  0.00000000000E+00 0. -1.
         25    1    1    2    0    0 -0.48758944606E+02  0.94093556411E+02 -0.10176975846E+04  0.10308076473E+04  0.12500000000E+03 0.  0.
         25    1    1    2    0    0  0.48758944606E+02 -0.94093556411E+02 -0.21662311205E+03  0.27162769504E+03  0.12500000000E+03 0.  0.
</event>
<event>
 4    0  0.2259196E-002  0.1998880E+03  0.7546771E-02  0.1149834E+00
         21   -1    0    0  502  501  0.00000000000E+00  0.00000000000E+00  0.78483923173E+02  0.78483923173E+02  0.00000000000E+00 0.  1.
         21   -1    0    0  501  502 -0.00000000000E+00 -0.00000000000E+00 -0.50908776081E+03  0.50908776081E+03  0.00000000000E+00 0.  1.
         25    1    1    2    0    0 -0.62280915276E+02 -0.11307626043E+03 -0.86624682486E+02  0.19948430689E+03  0.12500000000E+03 0.  0.
         25    1    1    2    0    0  0.62280915276E+02  0.11307626043E+03 -0.34397915515E+03  0.38808737709E+03  0.12500000000E+03 0.  0.
</event>
<event>
 4    0  0.2259196E-002  0.3124105E+03  0.7546771E-02  0.1079196E+00
         21   -1    0    0  502  501  0.00000000000E+00  0.00000000000E+00  0.11447239375E+03  0.11447239375E+03  0.00000000000E+00 0.  1.
         21   -1    0    0  501  502 -0.00000000000E+00 -0.00000000000E+00 -0.85260996540E+03  0.85260996540E+03  0.00000000000E+00 0.  1.
         25    1    1    2    0    0 -0.78455234422E+02 -0.25494524044E+03 -0.20804805421E+03  0.36064011465E+03  0.12500000000E+03 0.  0.
         25    1    1    2    0    0  0.78455234422E+02  0.25494524044E+03 -0.53008951743E+03  0.60644224450E+03  0.12500000000E+03 0.  0.
</event>
<event>
 4    0  0.2259196E-002  0.2901174E+03  0.7546771E-02  0.1090288E+00
         21   -1    0    0  502  501  0.00000000000E+00  0.00000000000E+00  0.33876333746E+03  0.33876333746E+03  0.00000000000E+00 0.  1.
         21   -1    0    0  501  502 -0.00000000000E+00 -0.00000000000E+00 -0.24845701908E+03  0.24845701908E+03  0.00000000000E+00 0.  1.
         25    1    1    2    0    0  0.16720528423E+03 -0.12965256110E+03  0.20120333017E+03  0.31760852279E+03  0.12500000000E+03 0.  0.
         25    1    1    2    0    0 -0.16720528423E+03  0.12965256110E+03 -0.11089701179E+03  0.26961183375E+03  0.12500000000E+03 0.  0.
</event>
<event>
 4    0  0.2259196E-002  0.2804504E+03  0.7546771E-02  0.1095443E+00
         21   -1    0    0  502  501  0.00000000000E+00  0.00000000000E+00  0.13001823200E+03  0.13001823200E+03  0.00000000000E+00 0. -1.
         21   -1    0    0  501  502 -0.00000000000E+00 -0.00000000000E+00 -0.60493402231E+03  0.60493402231E+03  0.00000000000E+00 0. -1.
         25    1    1    2    0    0  0.14894769690E+03 -0.20208869624E+03 -0.23939896123E+03  0.36873041670E+03  0.12500000000E+03 0.  0.
         25    1    1    2    0    0 -0.14894769690E+03  0.20208869624E+03 -0.23551682908E+03  0.36622183760E+03  0.12500000000E+03 0.  0.
</event>
<event>
 4    0  0.2259196E-002  0.2497614E+03  0.7546771E-02  0.1113456E+00
         21   -1    0    0  502  501  0.00000000000E+00  0.00000000000E+00  0.37697285466E+03  0.37697285466E+03  0.00000000000E+00 0. -1.
         21   -1    0    0  501  502 -0.00000000000E+00 -0.00000000000E+00 -0.16547804814E+03  0.16547804814E+03  0.00000000000E+00 0. -1.
         25    1    1    2    0    0 -0.50672439372E+02  0.16899822067E+03  0.24150116442E+03  0.32415414099E+03  0.12500000000E+03 0.  0.
         25    1    1    2    0    0  0.50672439372E+02 -0.16899822067E+03 -0.30006357902E+02  0.21829676181E+03  0.12500000000E+03 0.  0.
</event>
<event>
 4    0  0.2259196E-002  0.1855834E+03  0.7546771E-02  0.1162506E+00
         21   -1    0    0  502  501  0.00000000000E+00  0.00000000000E+00  0.36970358269E+03  0.36970358269E+03  0.00000000000E+00 0. -1.
         21   -1    0    0  501  502 -0.00000000000E+00 -0.00000000000E+00 -0.93158928613E+02  0.93158928613E+02  0.00000000000E+00 0. -1.
         25    1    1    2    0    0  0.38333557376E+02 -0.49707369155E+02 -0.13826072721E+02  0.14055761970E+03  0.12500000000E+03 0.  0.
         25    1    1    2    0    0 -0.38333557376E+02  0.49707369155E+02  0.29037072680E+03  0.32230489161E+03  0.12500000000E+03 0.  0.
</event>
<event>
 4    0  0.2259196E-002  0.2142345E+03  0.7546771E-02  0.1138256E+00
         21   -1    0    0  502  501  0.00000000000E+00  0.00000000000E+00  0.47998300627E+03  0.47998300627E+03  0.00000000000E+00 0. -1.
         21   -1    0    0  501  502 -0.00000000000E+00 -0.00000000000E+00 -0.95620915280E+02  0.95620915280E+02  0.00000000000E+00 0. -1.
         25    1    1    2    0    0 -0.12939180288E+03  0.87448961624E+02  0.29521052846E+03  0.35660035847E+03  0.12500000000E+03 0.  0.
         25    1    1    2    0    0  0.12939180288E+03 -0.87448961624E+02  0.89151562521E+02  0.21900356308E+03  0.12500000000E+03 0.  0.
</event>
<event>
 4    0  0.2259196E-002  0.2463162E+03  0.7546771E-02  0.1115655E+00
         21   -1    0    0  502  501  0.00000000000E+00  0.00000000000E+00  0.13874490646E+04  0.13874490646E+04  0.00000000000E+00 0. -1.
         21   -1    0    0  501  502 -0.00000000000E+00 -0.00000000000E+00 -0.43728933927E+02  0.43728933927E+02  0.00000000000E+00 0. -1.
         25    1    1    2    0    0  0.20489899510E+03  0.46119640919E+02  0.58297680460E+03  0.63213730643E+03  0.12500000000E+03 0.  0.
         25    1    1    2    0    0 -0.20489899510E+03 -0.46119640919E+02  0.76074332610E+03  0.79904069213E+03  0.12500000000E+03 0.  0.
</event>
<event>
 4    0  0.2259196E-002  0.3019456E+03  0.7546771E-02  0.1084272E+00
         21   -1    0    0  502  501  0.00000000000E+00  0.00000000000E+00  0.18784256213E+03  0.18784256213E+03  0.00000000000E+00 0.  1.
         21   -1    0    0  501  502 -0.00000000000E+00 -0.00000000000E+00 -0.48535938902E+03  0.48535938902E+03  0.00000000000E+00 0.  1.
         25    1    1    2    0    0 -0.50181482696E+02 -0.83810766998E+02  0.13764017636E+03  0.21002915040E+03  0.12500000000E+03 0.  0.
         25    1    1    2    0    0  0.50181482696E+02  0.83810766998E+02 -0.43515700326E+03  0.46317280075E+03  0.12500000000E+03 0.  0.
</event>
<event>
 4    0  0.2259196E-002  0.1897690E+03  0.7546771E-02  0.1158670E+00
         21   -1    0    0  502  501  0.00000000000E+00  0.00000000000E+00  0.36334028263E+03  0.36334028263E+03  0.00000000000E+00 0.  1.
         21   -1    0    0  501  502 -0.00000000000E+00 -0.00000000000E+00 -0.99114469036E+02  0.99114469036E+02  0.00000000000E+00 0.  1.
         25    1    1    2    0    0 -0.25525809132E+02  0.75112130450E+02  0.27676650226E+03  0.31387592428E+03  0.12500000000E+03 0.  0.
         25    1    1    2    0    0  0.25525809132E+02 -0.75112130450E+02 -0.12540688669E+02  0.14857882738E+03  0.12500000000E+03 0.  0.
</event>
<event>
 4    0  0.2259196E-002  0.3493502E+03  0.7546771E-02  0.1062882E+00
         21   -1    0    0  502  501  0.00000000000E+00  0.00000000000E+00  0.26786787659E+03  0.26786787659E+03  0.00000000000E+00 0.  1.
         21   -1    0    0  501  502 -0.00000000000E+00 -0.00000000000E+00 -0.45561857731E+03  0.45561857731E+03  0.00000000000E+00 0. -1.
         25    1    1    2    0    0 -0.27569243515E+03  0.16145183973E+03 -0.16215046615E+03  0.37946118250E+03  0.12500000000E+03 0.  0.
         25    1    1    2    0    0  0.27569243515E+03 -0.16145183973E+03 -0.25600234568E+02  0.34402527140E+03  0.12500000000E+03 0.  0.
</event>
<event>
 4    0  0.2259196E-002  0.1889679E+03  0.7546771E-02  0.1159396E+00
         21   -1    0    0  502  501  0.00000000000E+00  0.00000000000E+00  0.81053138560E+03  0.81053138560E+03  0.00000000000E+00 0. -1.
         21   -1    0    0  501  502 -0.00000000000E+00 -0.00000000000E+00 -0.44056125279E+02  0.44056125279E+02  0.00000000000E+00 0. -1.
         25    1    1    2    0    0  0.52349137069E+02 -0.20690278343E+02  0.67732678197E+03  0.69106084345E+03  0.12500000000E+03 0.  0.
         25    1    1    2    0    0 -0.52349137069E+02  0.20690278343E+02  0.89148478351E+02  0.16352666743E+03  0.12500000000E+03 0.  0.
</event>
<event>
 4    0  0.2259196E-002  0.1866482E+03  0.7546771E-02  0.1161520E+00
         21   -1    0    0  502  501  0.00000000000E+00  0.00000000000E+00  0.11449036539E+03  0.11449036539E+03  0.00000000000E+00 0. -1.
         21   -1    0    0  501  502 -0.00000000000E+00 -0.00000000000E+00 -0.30428364277E+03  0.30428364277E+03  0.00000000000E+00 0. -1.
         25    1    1    2    0    0 -0.11629906638E+03 -0.74314981748E+02 -0.80514653161E+02  0.20286892006E+03  0.12500000000E+03 0.  0.
         25    1    1    2    0    0  0.11629906638E+03  0.74314981748E+02 -0.10927862422E+03  0.21590508810E+03  0.12500000000E+03 0.  0.
</event>
<event>
 4    0  0.2259196E-002  0.2391272E+03  0.7546771E-02  0.1120376E+00
         21   -1    0    0  502  501  0.00000000000E+00  0.00000000000E+00  0.22191041677E+04  0.22191041677E+04  0.00000000000E+00 0.  1.
         21   -1    0    0  501  502 -0.00000000000E+00 -0.00000000000E+00 -0.25767965712E+02  0.25767965712E+02  0.00000000000E+00 0.  1.
         25    1    1    2    0    0 -0.15833187610E+03  0.12270456989E+03  0.91907991781E+03  0.94892480723E+03  0.12500000000E+03 0.  0.
         25    1    1    2    0    0  0.15833187610E+03 -0.12270456989E+03  0.12742562841E+04  0.12959473261E+04  0.12500000000E+03 0.  0.
</event>
<event>
 4    0  0.2259196E-002  0.2256776E+03  0.7546771E-02  0.1129720E+00
         21   -1    0    0  502  501  0.00000000000E+00  0.00000000000E+00  0.51792876262E+02  0.51792876262E+02  0.00000000000E+00 0.  1.
         21   -1    0    0  501  502 -0.00000000000E+00 -0.00000000000E+00 -0.98334760607E+03  0.98334760607E+03  0.00000000000E+00 0.  1.
         25    1    1    2    0    0  0.95237553628E+02 -0.64243340687E+02 -0.80677824689E+03  0.82444741379E+03  0.12500000000E+03 0.  0.
         25    1    1    2    0    0 -0.95237553628E+02  0.64243340687E+02 -0.12477648292E+03  0.21069306854E+03  0.12500000000E+03 0.  0.
</event>
<event>
 4    0  0.2259196E-002  0.2395848E+03  0.7546771E-02  0.1120070E+00
         21   -1    0    0  502  501  0.00000000000E+00  0.00000000000E+00  0.26420786344E+02  0.26420786344E+02  0.00000000000E+00 0.  1.
         21   -1    0    0  501  502 -0.00000000000E+00 -0.00000000000E+00 -0.21725642245E+04  0.21725642245E+04  0.00000000000E+00 0.  1.
         25    1    1    2    0    0 -0.13757761320E+03  0.12979306009E+03 -0.14286061832E+04  0.14464834824E+04  0.12500000000E+03 0.  0.
         25    1    1    2    0    0  0.13757761320E+03 -0.12979306009E+03 -0.71753725492E+03  0.75250152843E+03  0.12500000000E+03 0.  0.
</event>
<event>
 4    0  0.2259196E-002  0.4081185E+03  0.7546771E-02  0.1041004E+00
         21   -1    0    0  502  501  0.00000000000E+00  0.00000000000E+00  0.78818840098E+03  0.78818840098E+03  0.00000000000E+00 0.  1.
         21   -1    0    0  501  502 -0.00000000000E+00 -0.00000000000E+00 -0.21132089419E+03  0.21132089419E+03  0.00000000000E+00 0.  1.
         25    1    1    2    0    0  0.24322634174E+03 -0.29353895435E+03  0.19670397532E+03  0.44681274035E+03  0.12500000000E+03 0.  0.
         25    1    1    2    0    0 -0.24322634174E+03  0.29353895435E+03  0.38016353147E+03  0.55269655481E+03  0.12500000000E+03 0.  0.
</event>
<event>
 4    0  0.2259196E-002  0.1949352E+03  0.7546771E-02  0.1154084E+00
         21   -1    0    0  502  501  0.00000000000E+00  0.00000000000E+00  0.14690567421E+03  0.14690567421E+03  0.00000000000E+00 0.  1.
         21   -1    0    0  501  502 -0.00000000000E+00 -0.00000000000E+00 -0.25866751685E+03  0.25866751685E+03  0.00000000000E+00 0.  1.
         25    1    1    2    0    0 -0.11671945008E+03  0.78798453427E+02 -0.34309446998E+01  0.18833320915E+03  0.12500000000E+03 0.  0.
         25    1    1    2    0    0  0.11671945008E+03 -0.78798453427E+02 -0.10833089795E+03  0.21723998191E+03  0.12500000000E+03 0.  0.
</event>
<event>
 4    0  0.2259196E-002  0.3814992E+03  0.7546771E-02  0.1050381E+00
         21   -1    0    0  502  501  0.00000000000E+00  0.00000000000E+00  0.20416919152E+03  0.20416919152E+03  0.00000000000E+00 0. -1.
         21   -1    0    0  501  502 -0.00000000000E+00 -0.00000000000E+00 -0.71284801596E+03  0.71284801596E+03  0.00000000000E+00 0. -1.
         25    1    1    2    0    0 -0.57982798188E+02  0.20800864155E+03  0.92511251864E+02  0.26610699271E+03  0.12500000000E+03 0.  0.
         25    1    1    2    0    0  0.57982798188E+02 -0.20800864155E+03 -0.60119007631E+03  0.65091021477E+03  0.12500000000E+03 0.  0.
</event>
<event>
 4    0  0.2259196E-002  0.2607261E+03  0.7546771E-02  0.1106708E+00
         21   -1    0    0  502  501  0.00000000000E+00  0.00000000000E+00  0.22154123740E+03  0.22154123740E+03  0.00000000000E+00 0. -1.
         21   -1    0    0  501  502 -0.00000000000E+00 -0.00000000000E+00 -0.30684183376E+03  0.30684183376E+03  0.00000000000E+00 0. -1.
         25    1    1    2    0    0 -0.43774970591E+02  0.20591040606E+03 -0.13349555976E+03  0.27885732525E+03  0.12500000000E+03 0.  0.
         25    1    1    2    0    0  0.43774970591E+02 -0.20591040606E+03  0.48194963403E+02  0.24952574591E+03  0.12500000000E+03 0.  0.
</event>
<event>
 4    0  0.2259196E-002  0.2038784E+03  0.7546771E-02  0.1146507E+00
         21   -1    0    0  502  501  0.00000000000E+00  0.00000000000E+00  0.82061503357E+02  0.82061503357E+02  0.00000000000E+00 0. -1.
         21   -1    0    0  501  502 -0.00000000000E+00 -0.00000000000E+00 -0.50652756818E+03  0.50652756818E+03  0.00000000000E+00 0. -1.
         25    1    1    2    0    0 -0.12862184171E+03  0.86155662390E+02 -0.14808274840E+03  0.24803200741E+03  0.12500000000E+03 0.  0.
         25    1    1    2    0    0  0.12862184171E+03 -0.86155662390E+02 -0.27638331642E+03  0.34055706412E+03  0.12500000000E+03 0.  0.
</event>
<event>
 4    0  0.2259196E-002  0.1990132E+03  0.7546771E-02  0.1150574E+00
         21   -1    0    0  502  501  0.00000000000E+00  0.00000000000E+00  0.68917160353E+02  0.68917160353E+02  0.00000000000E+00 0.  1.
         21   -1    0    0  501  502 -0.00000000000E+00 -0.00000000000E+00 -0.57469370165E+03  0.57469370165E+03  0.00000000000E+00 0.  1.
         25    1    1    2    0    0  0.12483589284E+03 -0.85408503666E+02 -0.19919382186E+03  0.27961007011E+03  0.12500000000E+03 0.  0.
         25    1    1    2    0    0 -0.12483589284E+03  0.85408503666E+02 -0.30658271944E+03  0.36400079190E+03  0.12500000000E+03 0.  0.
</event>
<event>
 4    0  0.2259196E-002  0.1954908E+03  0.7546771E-02  0.1153600E+00
         21   -1    0    0  502  501  0.00000000000E+00  0.00000000000E+00  0.59501018324E+03  0.59501018324E+03  0.00000000000E+00 0.  1.
         21   -1    0    0  501  502 -0.00000000000E+00 -0.00000000000E+00 -0.64228570313E+02  0.64228570313E+02  0.00000000000E+00 0.  1.
         25    1    1    2    0    0 -0.69610571471E+02  0.43586059618E+02  0.47764194607E+03  0.50051194282E+03  0.12500000000E+03 0.  0.
         25    1    1    2    0    0  0.69610571471E+02 -0.43586059618E+02  0.53139666855E+02  0.15872681074E+03  0.12500000000E+03 0.  0.
</event>
<event>
 4    0  0.2259196E-002  0.1963431E+03  0.7546771E-02  0.1152862E+00
         21   -1    0    0  502  501  0.00000000000E+00  0.00000000000E+00  0.18726874570E+03  0.18726874570E+03  0.00000000000E+00 0.  1.
         21   -1    0    0  501  502 -0.00000000000E+00 -0.00000000000E+00 -0.20585716367E+03  0.20585716367E+03  0.00000000000E+00 0.  1.
         25    1    1    2    0    0  0.59786972744E+02  0.12968738148E+03 -0.59672657674E+02  0.19894503035E+03  0.12500000000E+03 0.  0.
         25    1    1    2    0    0 -0.59786972744E+02 -0.12968738148E+03  0.41084239709E+02  0.19418087902E+03  0.12500000000E+03 0.  0.
</event>
<event>
 4    0  0.2259196E-002  0.2336813E+03  0.7546771E-02  0.1124075E+00
         21   -1    0    0  502  501  0.00000000000E+00  0.00000000000E+00  0.19573043659E+04  0.19573043659E+04  0.00000000000E+00 0.  1.
         21   -1    0    0  501  502 -0.00000000000E+00 -0.00000000000E+00 -0.27899059207E+02  0.27899059207E+02  0.00000000000E+00 0.  1.
         25    1    1    2    0    0 -0.13254308258E+03  0.79697413726E+02  0.14860186917E+04  0.14992651195E+04  0.12500000000E+03 0.  0.
         25    1    1    2    0    0  0.13254308258E+03 -0.79697413726E+02  0.44338661502E+03  0.48593830562E+03  0.12500000000E+03 0.  0.
</event>
<event>
 4    0  0.2259196E-002  0.2947149E+03  0.7546771E-02  0.1087913E+00
         21   -1    0    0  502  501  0.00000000000E+00  0.00000000000E+00  0.19123944905E+03  0.19123944905E+03  0.00000000000E+00 0.  1.
         21   -1    0    0  501  502 -0.00000000000E+00 -0.00000000000E+00 -0.45417878177E+03  0.45417878177E+03  0.00000000000E+00 0.  1.
         25    1    1    2    0    0 -0.23438474426E+03  0.11696588883E+03 -0.18746060141E+03  0.34551947062E+03  0.12500000000E+03 0.  0.
         25    1    1    2    0    0  0.23438474426E+03 -0.11696588883E+03 -0.75478731300E+02  0.29989876020E+03  0.12500000000E+03 0.  0.
</event>
<event>
 4    0  0.2259196E-002  0.2176471E+03  0.7546771E-02  0.1135650E+00
         21   -1    0    0  502  501  0.00000000000E+00  0.00000000000E+00  0.61255162894E+03  0.61255162894E+03  0.00000000000E+00 0. -1.
         21   -1    0    0  501  502 -0.00000000000E+00 -0.00000000000E+00 -0.77332652828E+02  0.77332652828E+02  0.00000000000E+00 0. -1.
         25    1    1    2    0    0 -0.64126087203E+02 -0.16578554740E+03  0.24831311560E+03  0.32997182632E+03  0.12500000000E+03 0.  0.
         25    1    1    2    0    0  0.64126087203E+02  0.16578554740E+03  0.28690586052E+03  0.35991245545E+03  0.12500000000E+03 0.  0.
</event>
<event>
 4    0  0.2259196E-002  0.1709813E+03  0.7546771E-02  0.1176828E+00
         21   -1    0    0  502  501  0.00000000000E+00  0.00000000000E+00  0.30811497753E+03  0.30811497753E+03  0.00000000000E+00 0.  1.
         21   -1    0    0  501  502 -0.00000000000E+00 -0.00000000000E+00 -0.94882088833E+02  0.94882088833E+02  0.00000000000E+00 0.  1.
         25    1    1    2    0    0 -0.37103530995E+02 -0.89415627933E+02  0.18333348801E+03  0.24209088037E+03  0.12500000000E+03 0.  0.
         25    1    1    2    0    0  0.37103530995E+02  0.89415627933E+02  0.29899400689E+02  0.16090618600E+03  0.12500000000E+03 0.  0.
</event>
<event>
 4    0  0.2259196E-002  0.2740065E+03  0.7546771E-02  0.1099008E+00
         21   -1    0    0  502  501  0.00000000000E+00  0.00000000000E+00  0.38667197408E+03  0.38667197408E+03  0.00000000000E+00 0.  1.
         21   -1    0    0  501  502 -0.00000000000E+00 -0.00000000000E+00 -0.19416863826E+03  0.19416863826E+03  0.00000000000E+00 0.  1.
         25    1    1    2    0    0 -0.19198797392E+03 -0.28472291949E+02 -0.60185540547E+02  0.23857357949E+03  0.12500000000E+03 0.  0.
         25    1    1    2    0    0  0.19198797392E+03  0.28472291949E+02  0.25268887637E+03  0.34226703285E+03  0.12500000000E+03 0.  0.
</event>
<event>
 4    0  0.2259196E-002  0.1777565E+03  0.7546771E-02  0.1169992E+00
         21   -1    0    0  502  501  0.00000000000E+00  0.00000000000E+00  0.24985701134E+03  0.24985701134E+03  0.00000000000E+00 0. -1.
         21   -1    0    0  501  502 -0.00000000000E+00 -0.00000000000E+00 -0.12646178930E+03  0.12646178930E+03  0.00000000000E+00 0. -1.
         25    1    1    2    0    0 -0.54548501282E+02 -0.33851621820E+02  0.17693038987E+03  0.22594431648E+03  0.12500000000E+03 0.  0.
         25    1    1    2    0    0  0.54548501282E+02  0.33851621820E+02 -0.53535167820E+02  0.15037448416E+03  0.12500000000E+03 0.  0.
</event>
<event>
 4    0  0.2259196E-002  0.1493678E+03  0.7546771E-02  0.1201252E+00
         21   -1    0    0  502  501  0.00000000000E+00  0.00000000000E+00  0.35143137491E+03  0.35143137491E+03  0.00000000000E+00 0. -1.
         21   -1    0    0  501  502 -0.00000000000E+00 -0.00000000000E+00 -0.63485296978E+02  0.63485296978E+02  0.00000000000E+00 0. -1.
         25    1    1    2    0    0 -0.51766883791E+02 -0.53620733226E+02  0.19067701679E+03  0.23987021078E+03  0.12500000000E+03 0.  0.
         25    1    1    2    0    0  0.51766883791E+02  0.53620733226E+02  0.97269061136E+02  0.17504646110E+03  0.12500000000E+03 0.  0.
</event>
<event>
 4    0  0.2259196E-002  0.1779802E+03  0.7546771E-02  0.1169772E+00
         21   -1    0    0  502  501  0.00000000000E+00  0.00000000000E+00  0.49161104411E+03  0.49161104411E+03  0.00000000000E+00 0.  1.
         21   -1    0    0  501  502 -0.00000000000E+00 -0.00000000000E+00 -0.64435004337E+02  0.64435004337E+02  0.00000000000E+00 0.  1.
         25    1    1    2    0    0  0.47951120548E+02 -0.21426513454E+02  0.39369459753E+03  0.41638784992E+03  0.12500000000E+03 0.  0.
         25    1    1    2    0    0 -0.47951120548E+02  0.21426513454E+02  0.33481442248E+02  0.13965819853E+03  0.12500000000E+03 0.  0.
</event>
<event>
 4    0  0.2259196E-002  0.1912969E+03  0.7546771E-02  0.1157297E+00
         21   -1    0    0  502  501  0.00000000000E+00  0.00000000000E+00  0.79704531658E+02  0.79704531658E+02  0.00000000000E+00 0.  1.
         21   -1    0    0  501  502 -0.00000000000E+00 -0.00000000000E+00 -0.45912678936E+03  0.45912678936E+03  0.00000000000E+00 0.  1.
         25    1    1    2    0    0 -0.11223285793E+03  0.16873807924E+02 -0.31637426603E+03  0.35860649186E+03  0.12500000000E+03 0.  0.
         25    1    1    2    0    0  0.11223285793E+03 -0.16873807924E+02 -0.63047991668E+02  0.18022482916E+03  0.12500000000E+03 0.  0.
</event>
<event>
 4    0  0.2259196E-002  0.2449711E+03  0.7546771E-02  0.1116525E+00
         21   -1    0    0  502  501  0.00000000000E+00  0.00000000000E+00  0.27203181753E+03  0.27203181753E+03  0.00000000000E+00 0.  1.
         21   -1    0    0  501  502 -0.00000000000E+00 -0.00000000000E+00 -0.22060227404E+03  0.22060227404E+03  0.00000000000E+00 0.  1.
         25    1    1    2    0    0  0.11830410155E+02  0.11715880320E+03  0.20137348984E+03  0.26465529690E+03  0.12500000000E+03 0.  0.
         25    1    1    2    0    0 -0.11830410155E+02 -0.11715880320E+03 -0.14994394635E+03  0.22797879467E+03  0.12500000000E+03 0.  0.
</event>
<event>
 4    0  0.2259196E-002  0.2206555E+03  0.7546771E-02  0.1133395E+00
         21   -1    0    0  502  501  0.00000000000E+00  0.00000000000E+00  0.85329638584E+03  0.85329638584E+03  0.00000000000E+00 0.  1.
         21   -1    0    0  501  502 -0.00000000000E+00 -0.00000000000E+00 -0.57059697808E+02  0.57059697808E+02  0.00000000000E+00 0.  1.
         25    1    1    2    0    0  0.13956123115E+03 -0.99777878500E+02  0.52241861179E+03  0.56389641622E+03  0.12500000000E+03 0.  0.
         25    1    1    2    0    0 -0.13956123115E+03  0.99777878500E+02  0.27381807624E+03  0.34645966743E+03  0.12500000000E+03 0.  0.
</event>
<event>
 4    0  0.2259196E-002  0.2127981E+03  0.7546771E-02  0.1139369E+00
         21   -1    0    0  502  501  0.00000000000E+00  0.00000000000E+00  0.80509862521E+03  0.80509862521E+03  0.00000000000E+00 0.  1.
         21   -1    0    0  501  502 -0.00000000000E+00 -0.00000000000E+00 -0.56245328550E+02  0.56245328550E+02  0.00000000000E+00 0. -1.
         25    1    1    2    0    0 -0.16168605447E+03  0.39784045690E+02  0.46340451397E+03  0.50802942244E+03  0.12500000000E+03 0.  0.
         25    1    1    2    0    0  0.16168605447E+03 -0.39784045690E+02  0.28544878269E+03  0.35331453131E+03  0.12500000000E+03 0.  0.
</event>
<event>
 4    0  0.2259196E-002  0.1665592E+03  0.7546771E-02  0.1181484E+00
         21   -1    0    0  502  501  0.00000000000E+00  0.00000000000E+00  0.28385441021E+03  0.28385441021E+03  0.00000000000E+00 0.  1.
         21   -1    0    0  501  502 -0.00000000000E+00 -0.00000000000E+00 -0.97733097615E+02  0.97733097615E+02  0.00000000000E+00 0.  1.
         25    1    1    2    0    0  0.92723737854E+02 -0.58233696632E+02  0.10602638225E+03  0.19711785489E+03  0.12500000000E+03 0.  0.
         25    1    1    2    0    0 -0.92723737854E+02  0.58233696632E+02  0.80094930347E+02  0.18446965293E+03  0.12500000000E+03 0.  0.
</event>
<event>
 4    0  0.2259196E-002  0.2347234E+03  0.7546771E-02  0.1123359E+00
         21   -1    0    0  502  501  0.00000000000E+00  0.00000000000E+00  0.22425403411E+03  0.22425403411E+03  0.00000000000E+00 0. -1.
         21   -1    0    0  501  502 -0.00000000000E+00 -0.00000000000E+00 -0.24568160952E+03  0.24568160952E+03  0.00000000000E+00 0. -1.
         25    1    1    2    0    0  0.14569752006E+03  0.13410987310E+03 -0.26757533696E+02  0.23569936577E+03  0.12500000000E+03 0.  0.
         25    1    1    2    0    0 -0.14569752006E+03 -0.13410987310E+03  0.53299582858E+01  0.23423627787E+03  0.12500000000E+03 0.  0.
</event>
<event>
 4    0  0.2259196E-002  0.1954068E+03  0.7546771E-02  0.1153673E+00
         21   -1    0    0  502  501  0.00000000000E+00  0.00000000000E+00  0.55729309878E+03  0.55729309878E+03  0.00000000000E+00 0.  1.
         21   -1    0    0  501  502 -0.00000000000E+00 -0.00000000000E+00 -0.68516599722E+02  0.68516599722E+02  0.00000000000E+00 0.  1.
         25    1    1    2    0    0  0.13053122223E+03  0.40845269113E+02  0.14500323711E+03  0.23528211738E+03  0.12500000000E+03 0.  0.
         25    1    1    2    0    0 -0.13053122223E+03 -0.40845269113E+02  0.34377326194E+03  0.39052758112E+03  0.12500000000E+03 0.  0.
</event>
<event>
 4    0  0.2281621E-002  0.2275570E+03  0.7546771E-02  0.1128371E+00
         21   -1    0    0  502  501  0.00000000000E+00  0.00000000000E+00  0.20020182444E+03  0.20020182444E+03  0.00000000000E+00 0.  1.
         21   -1    0    0  501  502 -0.00000000000E+00 -0.00000000000E+00 -0.25864994450E+03  0.25864994450E+03  0.00000000000E+00 0.  1.
         25    1    1    2    0    0  0.28252879666E+02  0.19120424363E+02  0.15937742998E+03  0.20540199859E+03  0.12500000000E+03 0.  0.
         25    1    1    2    0    0 -0.28252879666E+02 -0.19120424363E+02 -0.21782555005E+03  0.25344977035E+03  0.12500000000E+03 0.  0.
</event>
<event>
 4    0  0.2259196E-002  0.3281824E+03  0.7546771E-02  0.1071944E+00
         21   -1    0    0  502  501  0.00000000000E+00  0.00000000000E+00  0.88169431221E+03  0.88169431221E+03  0.00000000000E+00 0.  1.
         21   -1    0    0  501  502 -0.00000000000E+00 -0.00000000000E+00 -0.12215533114E+03  0.12215533114E+03  0.00000000000E+00 0. -1.
         25    1    1    2    0    0  0.25099247618E+03 -0.16679173544E+03  0.43410019057E+03  0.54303285496E+03  0.12500000000E+03 0.  0.
         25    1    1    2    0    0 -0.25099247618E+03  0.16679173544E+03  0.32543879050E+03  0.46081678840E+03  0.12500000000E+03 0.  0.
</event>
<event>
 4    0  0.2259196E-002  0.2023207E+03  0.7546771E-02  0.1147796E+00
         21   -1    0    0  502  501  0.00000000000E+00  0.00000000000E+00  0.74070481510E+03  0.74070481510E+03  0.00000000000E+00 0.  1.
         21   -1    0    0  501  502 -0.00000000000E+00 -0.00000000000E+00 -0.55263135235E+02  0.55263135235E+02  0.00000000000E+00 0.  1.
         25    1    1    2    0    0  0.63258603781E+02 -0.52242571039E+02  0.74605537160E+02  0.16709854385E+03  0.12500000000E+03 0.  0.
         25    1    1    2    0    0 -0.63258603781E+02  0.52242571039E+02  0.61083614270E+03  0.62886940648E+03  0.12500000000E+03 0.  0.
</event>
<event>
 4    0  0.2259196E-002  0.1846637E+03  0.7546771E-02  0.1163364E+00
         21   -1    0    0  502  501  0.00000000000E+00  0.00000000000E+00  0.19936785071E+03  0.19936785071E+03  0.00000000000E+00 0.  1.
         21   -1    0    0  501  502 -0.00000000000E+00 -0.00000000000E+00 -0.17104404686E+03  0.17104404686E+03  0.00000000000E+00 0.  1.
         25    1    1    2    0    0 -0.92351992002E+02 -0.99706899725E+02  0.11846938891E+02  0.18502893352E+03  0.12500000000E+03 0.  0.
         25    1    1    2    0    0  0.92351992002E+02  0.99706899725E+02  0.16476864958E+02  0.18538296405E+03  0.12500000000E+03 0.  0.
</event>
<event>
 4    0  0.2259196E-002  0.1893740E+03  0.7546771E-02  0.1159027E+00
         21   -1    0    0  502  501  0.00000000000E+00  0.00000000000E+00  0.84462500734E+02  0.84462500734E+02  0.00000000000E+00 0.  1.
         21   -1    0    0  501  502 -0.00000000000E+00 -0.00000000000E+00 -0.42459673647E+03  0.42459673647E+03  0.00000000000E+00 0.  1.
         25    1    1    2    0    0 -0.11309033321E+03  0.71813731246E+02 -0.23439776839E+03  0.29751293970E+03  0.12500000000E+03 0.  0.
         25    1    1    2    0    0  0.11309033321E+03 -0.71813731246E+02 -0.10573646735E+03  0.21154629751E+03  0.12500000000E+03 0.  0.
</event>
<event>
 4    0  0.2259196E-002  0.1954259E+03  0.7546771E-02  0.1153657E+00
         21   -1    0    0  502  501  0.00000000000E+00  0.00000000000E+00  0.60809993853E+02  0.60809993853E+02  0.00000000000E+00 0.  1.
         21   -1    0    0  501  502 -0.00000000000E+00 -0.00000000000E+00 -0.62804283949E+03  0.62804283949E+03  0.00000000000E+00 0.  1.
         25    1    1    2    0    0  0.12389077360E+03 -0.19492843728E+02 -0.13788292004E+03  0.22442280272E+03  0.12500000000E+03 0.  0.
         25    1    1    2    0    0 -0.12389077360E+03  0.19492843728E+02 -0.42934992560E+03  0.46443003063E+03  0.12500000000E+03 0.  0.
</event>
<event>
 4    0  0.2259196E-002  0.2841720E+03  0.7546771E-02  0.1093432E+00
         21   -1    0    0  502  501  0.00000000000E+00  0.00000000000E+00  0.84425788140E+03  0.84425788140E+03  0.00000000000E+00 0. -1.
         21   -1    0    0  501  502 -0.00000000000E+00 -0.00000000000E+00 -0.95650524978E+02  0.95650524978E+02  0.00000000000E+00 0. -1.
         25    1    1    2    0    0  0.43569684596E+02 -0.12350296602E+03  0.12066772772E+02  0.18144395013E+03  0.12500000000E+03 0.  0.
         25    1    1    2    0    0 -0.43569684596E+02  0.12350296602E+03  0.73654058365E+03  0.75846445625E+03  0.12500000000E+03 0.  0.
</event>
<event>
 4    0  0.2259196E-002  0.2489410E+03  0.7546771E-02  0.1113976E+00
         21   -1    0    0  502  501  0.00000000000E+00  0.00000000000E+00  0.83888116038E+03  0.83888116038E+03  0.00000000000E+00 0.  1.
         21   -1    0    0  501  502 -0.00000000000E+00 -0.00000000000E+00 -0.73874134903E+02  0.73874134903E+02  0.00000000000E+00 0.  1.
         25    1    1    2    0    0 -0.16657608088E+03  0.46038694427E+02  0.61784556336E+03  0.65362473352E+03  0.12500000000E+03 0.  0.
         25    1    1    2    0    0  0.16657608088E+03 -0.46038694427E+02  0.14716146211E+03  0.25913056176E+03  0.12500000000E+03 0.  0.
</event>
<event>
 4    0  0.2259196E-002  0.2735831E+03  0.7546771E-02  0.1099246E+00
         21   -1    0    0  502  501  0.00000000000E+00  0.00000000000E+00  0.46729207464E+03  0.46729207464E+03  0.00000000000E+00 0. -1.
         21   -1    0    0  501  502 -0.00000000000E+00 -0.00000000000E+00 -0.16017333126E+03  0.16017333126E+03  0.00000000000E+00 0. -1.
         25    1    1    2    0    0 -0.45105924909E+01  0.21855601201E+03  0.30928178716E+02  0.25370973191E+03  0.12500000000E+03 0.  0.
         25    1    1    2    0    0  0.45105924909E+01 -0.21855601201E+03  0.27619056466E+03  0.37375567398E+03  0.12500000000E+03 0.  0.
</event>
<event>
 4    0  0.2259196E-002  0.2269872E+03  0.7546771E-02  0.1128778E+00
         21   -1    0    0  502  501  0.00000000000E+00  0.00000000000E+00  0.89820956652E+03  0.89820956652E+03  0.00000000000E+00 0.  1.
         21   -1    0    0  501  502 -0.00000000000E+00 -0.00000000000E+00 -0.57362125905E+02  0.57362125905E+02  0.00000000000E+00 0.  1.
         25    1    1    2    0    0 -0.15025891246E+03  0.10088995965E+03  0.30244242026E+03  0.37396917294E+03  0.12500000000E+03 0.  0.
         25    1    1    2    0    0  0.15025891246E+03 -0.10088995965E+03  0.53840502035E+03  0.58160251949E+03  0.12500000000E+03 0.  0.
</event>
<event>
 4    0  0.2259196E-002  0.2764391E+03  0.7546771E-02  0.1097650E+00
         21   -1    0    0  502  501  0.00000000000E+00  0.00000000000E+00  0.23423171940E+04  0.23423171940E+04  0.00000000000E+00 0. -1.
         21   -1    0    0  501  502 -0.00000000000E+00 -0.00000000000E+00 -0.32625199752E+02  0.32625199752E+02  0.00000000000E+00 0. -1.
         25    1    1    2    0    0 -0.19411523199E+03 -0.12750924580E+03  0.79921210285E+03  0.84160817273E+03  0.12500000000E+03 0.  0.
         25    1    1    2    0    0  0.19411523199E+03  0.12750924580E+03  0.15104798914E+04  0.15333342210E+04  0.12500000000E+03 0.  0.
</event>
<event>
 4    0  0.2259196E-002  0.1929932E+03  0.7546771E-02  0.1155789E+00
         21   -1    0    0  502  501  0.00000000000E+00  0.00000000000E+00  0.18676548716E+03  0.18676548716E+03  0.00000000000E+00 0. -1.
         21   -1    0    0  501  502 -0.00000000000E+00 -0.00000000000E+00 -0.19942862502E+03  0.19942862502E+03  0.00000000000E+00 0. -1.
         25    1    1    2    0    0 -0.52235688720E+02  0.77442650959E+02  0.10728767454E+03  0.18937153025E+03  0.12500000000E+03 0.  0.
         25    1    1    2    0    0  0.52235688720E+02 -0.77442650959E+02 -0.11995081239E+03  0.19682258193E+03  0.12500000000E+03 0.  0.
</event>
<event>
 4    0  0.2259196E-002  0.2551979E+03  0.7546771E-02  0.1110063E+00
         21   -1    0    0  502  501  0.00000000000E+00  0.00000000000E+00  0.43905479981E+03  0.43905479981E+03  0.00000000000E+00 0.  1.
         21   -1    0    0  501  502 -0.00000000000E+00 -0.00000000000E+00 -0.14833218934E+03  0.14833218934E+03  0.00000000000E+00 0.  1.
         25    1    1    2    0    0  0.70913789954E+02 -0.14287846146E+03  0.32386469657E+03  0.38204235634E+03  0.12500000000E+03 0.  0.
         25    1    1    2    0    0 -0.70913789954E+02  0.14287846146E+03 -0.33142086094E+02  0.20534463281E+03  0.12500000000E+03 0.  0.
</event>
<event>
 4    0  0.2259196E-002  0.2363814E+03  0.7546771E-02  0.1122227E+00
         21   -1    0    0  502  501  0.00000000000E+00  0.00000000000E+00  0.11528134755E+04  0.11528134755E+04  0.00000000000E+00 0. -1.
         21   -1    0    0  501  502 -0.00000000000E+00 -0.00000000000E+00 -0.48469406652E+02  0.48469406652E+02  0.00000000000E+00 0. -1.
         25    1    1    2    0    0 -0.74293974747E+02  0.88152065660E+01  0.79153815064E+02  0.16579393532E+03  0.12500000000E+03 0.  0.
         25    1    1    2    0    0  0.74293974747E+02 -0.88152065660E+01  0.10251902537E+04  0.10354889468E+04  0.12500000000E+03 0.  0.
</event>
<event>
 4    0  0.2259196E-002  0.2862859E+03  0.7546771E-02  0.1092304E+00
         21   -1    0    0  502  501  0.00000000000E+00  0.00000000000E+00  0.15508122235E+03  0.15508122235E+03  0.00000000000E+00 0. -1.
         21   -1    0    0  501  502 -0.00000000000E+00 -0.00000000000E+00 -0.52849494906E+03  0.52849494906E+03  0.00000000000E+00 0.  1.
         25    1    1    2    0    0  0.23779721580E+03  0.98728597169E+02 -0.17917592471E+03  0.33767419762E+03  0.12500000000E+03 0.  0.
         25    1    1    2    0    0 -0.23779721580E+03 -0.98728597169E+02 -0.19423780200E+03  0.34590197378E+03  0.12500000000E+03 0.  0.
</event>
<event>
 4    0  0.2259196E-002  0.1768006E+03  0.7546771E-02  0.1170936E+00
         21   -1    0    0  502  501  0.00000000000E+00  0.00000000000E+00  0.18319949839E+03  0.18319949839E+03  0.00000000000E+00 0. -1.
         21   -1    0    0  501  502 -0.00000000000E+00 -0.00000000000E+00 -0.17062523203E+03  0.17062523203E+03  0.00000000000E+00 0. -1.
         25    1    1    2    0    0  0.77741717553E+02  0.37518127956E+02  0.96799115974E+02  0.18012899108E+03  0.12500000000E+03 0.  0.
         25    1    1    2    0    0 -0.77741717553E+02 -0.37518127956E+02 -0.84224849613E+02  0.17369573934E+03  0.12500000000E+03 0.  0.
</event>
<event>
 4    0  0.2259196E-002  0.2028868E+03  0.7546771E-02  0.1147326E+00
         21   -1    0    0  502  501  0.00000000000E+00  0.00000000000E+00  0.40401516829E+03  0.40401516829E+03  0.00000000000E+00 0.  1.
         21   -1    0    0  501  502 -0.00000000000E+00 -0.00000000000E+00 -0.10188490144E+03  0.10188490144E+03  0.00000000000E+00 0.  1.
         25    1    1    2    0    0  0.57881515112E+02  0.37977082474E+02  0.33063899625E+03  0.36019394002E+03  0.12500000000E+03 0.  0.
         25    1    1    2    0    0 -0.57881515112E+02 -0.37977082474E+02 -0.28508729401E+02  0.14570612972E+03  0.12500000000E+03 0.  0.
</event>
<event>
 4    0  0.2259196E-002  0.2449404E+03  0.7546771E-02  0.1116545E+00
         21   -1    0    0  502  501  0.00000000000E+00  0.00000000000E+00  0.61248728712E+02  0.61248728712E+02  0.00000000000E+00 0. -1.
         21   -1    0    0  501  502 -0.00000000000E+00 -0.00000000000E+00 -0.97954367663E+03  0.97954367663E+03  0.00000000000E+00 0. -1.
         25    1    1    2    0    0  0.20225870475E+02  0.20966841869E+03 -0.45716206221E+03  0.51864446662E+03  0.12500000000E+03 0.  0.
         25    1    1    2    0    0 -0.20225870475E+02 -0.20966841869E+03 -0.46113288571E+03  0.52214793872E+03  0.12500000000E+03 0.  0.
</event>
<event>
 4    0  0.2259196E-002  0.3049801E+03  0.7546771E-02  0.1082777E+00
         21   -1    0    0  502  501  0.00000000000E+00  0.00000000000E+00  0.63722699448E+03  0.63722699448E+03  0.00000000000E+00 0. -1.
         21   -1    0    0  501  502 -0.00000000000E+00 -0.00000000000E+00 -0.14596501152E+03  0.14596501152E+03  0.00000000000E+00 0. -1.
         25    1    1    2    0    0  0.15042908888E+03 -0.13429045519E+03  0.49169479736E+03  0.54594103242E+03  0.12500000000E+03 0.  0.
         25    1    1    2    0    0 -0.15042908888E+03  0.13429045519E+03 -0.43281439490E+00  0.23725097358E+03  0.12500000000E+03 0.  0.
</event>
<event>
 4    0  0.2259196E-002  0.1860639E+03  0.7546771E-02  0.1162060E+00
         21   -1    0    0  502  501  0.00000000000E+00  0.00000000000E+00  0.13462861302E+04  0.13462861302E+04  0.00000000000E+00 0. -1.
         21   -1    0    0  501  502 -0.00000000000E+00 -0.00000000000E+00 -0.25715018605E+02  0.25715018605E+02  0.00000000000E+00 0. -1.
         25    1    1    2    0    0 -0.46627195537E+02  0.12695686618E+03  0.75801517970E+03  0.78006676246E+03  0.12500000000E+03 0.  0.
         25    1    1    2    0    0  0.46627195537E+02 -0.12695686618E+03  0.56255593194E+03  0.59193438640E+03  0.12500000000E+03 0.  0.
</event>
<event>
 4    0  0.2259196E-002  0.2155531E+03  0.7546771E-02  0.1137242E+00
         21   -1    0    0  502  501  0.00000000000E+00  0.00000000000E+00  0.10987804706E+03  0.10987804706E+03  0.00000000000E+00 0. -1.
         21   -1    0    0  501  502 -0.00000000000E+00 -0.00000000000E+00 -0.42286087366E+03  0.42286087366E+03  0.00000000000E+00 0. -1.
         25    1    1    2    0    0 -0.88369082330E+02  0.24973911959E+02  0.28480566108E+02  0.15769887012E+03  0.12500000000E+03 0.  0.
         25    1    1    2    0    0  0.88369082330E+02 -0.24973911959E+02 -0.34146339272E+03  0.37504005060E+03  0.12500000000E+03 0.  0.
</event>
<event>
 4    0  0.2259196E-002  0.2652611E+03  0.7546771E-02  0.1104023E+00
         21   -1    0    0  502  501  0.00000000000E+00  0.00000000000E+00  0.48560102276E+03  0.48560102276E+03  0.00000000000E+00 0. -1.
         21   -1    0    0  501  502 -0.00000000000E+00 -0.00000000000E+00 -0.14489967502E+03  0.14489967502E+03  0.00000000000E+00 0. -1.
         25    1    1    2    0    0 -0.22423596015E+03 -0.37302080735E+02  0.23614869798E+03  0.35080538566E+03  0.12500000000E+03 0.  0.
         25    1    1    2    0    0  0.22423596015E+03  0.37302080735E+02  0.10455264976E+03  0.27969531212E+03  0.12500000000E+03 0.  0.
</event>
<event>
 4    0  0.2259196E-002  0.2395767E+03  0.7546771E-02  0.1120075E+00
         21   -1    0    0  502  501  0.00000000000E+00  0.00000000000E+00  0.15587653797E+03  0.15587653797E+03  0.00000000000E+00 0.  1.
         21   -1    0    0  501  502 -0.00000000000E+00 -0.00000000000E+00 -0.36822084534E+03  0.36822084534E+03  0.00000000000E+00 0.  1.
         25    1    1    2    0    0  0.56200888992E+02  0.34838351705E+02  0.10535772757E+03  0.17634483670E+03  0.12500000000E+03 0.  0.
         25    1    1    2    0    0 -0.56200888992E+02 -0.34838351705E+02 -0.31770203494E+03  0.34775254661E+03  0.12500000000E+03 0.  0.
</event>
<event>
 4    0  0.2259196E-002  0.2793064E+03  0.7546771E-02  0.1096068E+00
         21   -1    0    0  502  501  0.00000000000E+00  0.00000000000E+00  0.26451562675E+03  0.26451562675E+03  0.00000000000E+00 0. -1.
         21   -1    0    0  501  502 -0.00000000000E+00 -0.00000000000E+00 -0.29492423939E+03  0.29492423939E+03  0.00000000000E+00 0. -1.
         25    1    1    2    0    0  0.23051515479E+03 -0.34499912123E+02 -0.10511243861E+03  0.28460693118E+03  0.12500000000E+03 0.  0.
         25    1    1    2    0    0 -0.23051515479E+03  0.34499912123E+02  0.74703825963E+02  0.27483293496E+03  0.12500000000E+03 0.  0.
</event>
<event>
 4    0  0.2259196E-002  0.6764944E+03  0.7546771E-02  0.9758296E-01
         21   -1    0    0  502  501  0.00000000000E+00  0.00000000000E+00  0.41020061490E+03  0.41020061490E+03  0.00000000000E+00 0. -1.
         21   -1    0    0  501  502 -0.00000000000E+00 -0.00000000000E+00 -0.11156606958E+04  0.11156606958E+04  0.00000000000E+00 0.  1.
         25    1    1    2    0    0  0.54926090993E+03 -0.52075343082E+02  0.65641485466E+02  0.56950258397E+03  0.12500000000E+03 0.  0.
         25    1    1    2    0    0 -0.54926090993E+03  0.52075343082E+02 -0.77110156638E+03  0.95635872674E+03  0.12500000000E+03 0.  0.
</event>
<event>
 4    0  0.2259196E-002  0.3207668E+03  0.7546771E-02  0.1075297E+00
         21   -1    0    0  502  501  0.00000000000E+00  0.00000000000E+00  0.37015659070E+03  0.37015659070E+03  0.00000000000E+00 0.  1.
         21   -1    0    0  501  502 -0.00000000000E+00 -0.00000000000E+00 -0.27796704331E+03  0.27796704331E+03  0.00000000000E+00 0.  1.
         25    1    1    2    0    0 -0.27751239684E+03  0.76064433348E+02 -0.21430462513E+02  0.31445698139E+03  0.12500000000E+03 0.  0.
         25    1    1    2    0    0  0.27751239684E+03 -0.76064433348E+02  0.11362000990E+03  0.33366665262E+03  0.12500000000E+03 0.  0.
</event>
<event>
 4    0  0.2259196E-002  0.1791977E+03  0.7546771E-02  0.1168582E+00
         21   -1    0    0  502  501  0.00000000000E+00  0.00000000000E+00  0.49223377199E+02  0.49223377199E+02  0.00000000000E+00 0.  1.
         21   -1    0    0  501  502 -0.00000000000E+00 -0.00000000000E+00 -0.65236945285E+03  0.65236945285E+03  0.00000000000E+00 0.  1.
         25    1    1    2    0    0  0.12827223097E+03  0.54109638433E+01 -0.30538098926E+03  0.35407003879E+03  0.12500000000E+03 0.  0.
         25    1    1    2    0    0 -0.12827223097E+03 -0.54109638433E+01 -0.29776508639E+03  0.34752279126E+03  0.12500000000E+03 0.  0.
</event>
<event>
 4    0  0.2259196E-002  0.1995905E+03  0.7546771E-02  0.1150085E+00
         21   -1    0    0  502  501  0.00000000000E+00  0.00000000000E+00  0.11433755619E+03  0.11433755619E+03  0.00000000000E+00 0.  1.
         21   -1    0    0  501  502 -0.00000000000E+00 -0.00000000000E+00 -0.34841015067E+03  0.34841015067E+03  0.00000000000E+00 0.  1.
         25    1    1    2    0    0  0.17255540693E+02 -0.15172987156E+03 -0.15165202590E+03  0.24888359642E+03  0.12500000000E+03 0.  0.
         25    1    1    2    0    0 -0.17255540693E+02  0.15172987156E+03 -0.82420568571E+02  0.21386411044E+03  0.12500000000E+03 0.  0.
</event>
<event>
 4    0  0.2259196E-002  0.2132605E+03  0.7546771E-02  0.1139010E+00
         21   -1    0    0  502  501  0.00000000000E+00  0.00000000000E+00  0.65544730924E+03  0.65544730924E+03  0.00000000000E+00 0. -1.
         21   -1    0    0  501  502 -0.00000000000E+00 -0.00000000000E+00 -0.69387808412E+02  0.69387808412E+02  0.00000000000E+00 0. -1.
         25    1    1    2    0    0 -0.11467054861E+03  0.53274921906E+02  0.92906363281E+02  0.20060943238E+03  0.12500000000E+03 0.  0.
         25    1    1    2    0    0  0.11467054861E+03 -0.53274921906E+02  0.49315313755E+03  0.52422568527E+03  0.12500000000E+03 0.  0.
</event>
<event>
 4    0  0.2259196E-002  0.1908924E+03  0.7546771E-02  0.1157659E+00
         21   -1    0    0  502  501  0.00000000000E+00  0.00000000000E+00  0.10167621512E+04  0.10167621512E+04  0.00000000000E+00 0. -1.
         21   -1    0    0  501  502 -0.00000000000E+00 -0.00000000000E+00 -0.35839154352E+02  0.35839154352E+02  0.00000000000E+00 0. -1.
         25    1    1    2    0    0 -0.44271690453E+02  0.12979366734E+03  0.36690001770E+03  0.41115325810E+03  0.12500000000E+03 0.  0.
         25    1    1    2    0    0  0.44271690453E+02 -0.12979366734E+03  0.61402297915E+03  0.64144804745E+03  0.12500000000E+03 0.  0.
</event>
<event>
 4    0  0.2259196E-002  0.1700239E+03  0.7546771E-02  0.1177823E+00
         21   -1    0    0  502  501  0.00000000000E+00  0.00000000000E+00  0.72108309634E+02  0.72108309634E+02  0.00000000000E+00 0.  1.
         21   -1    0    0  501  502 -0.00000000000E+00 -0.00000000000E+00 -0.40089880581E+03  0.40089880581E+03  0.00000000000E+00 0.  1.
         25    1    1    2    0    0 -0.10901884517E+03 -0.30578660963E+02 -0.13446536257E+03  0.21569908864E+03  0.12500000000E+03 0.  0.
         25    1    1    2    0    0  0.10901884517E+03  0.30578660963E+02 -0.19432513360E+03  0.25730802680E+03  0.12500000000E+03 0.  0.
</event>
<event>
 4    0  0.2259196E-002  0.3174658E+03  0.7546771E-02  0.1076822E+00
         21   -1    0    0  502  501  0.00000000000E+00  0.00000000000E+00  0.62368202651E+03  0.62368202651E+03  0.00000000000E+00 0. -1.
         21   -1    0    0  501  502 -0.00000000000E+00 -0.00000000000E+00 -0.16159604879E+03  0.16159604879E+03  0.00000000000E+00 0. -1.
         25    1    1    2    0    0  0.10348149427E+03  0.11407005012E+03 -0.75519569143E+02  0.21224655784E+03  0.12500000000E+03 0.  0.
         25    1    1    2    0    0 -0.10348149427E+03 -0.11407005012E+03  0.53760554686E+03  0.57303151746E+03  0.12500000000E+03 0.  0.
</event>
<event>
 4    0  0.2259196E-002  0.2531818E+03  0.7546771E-02  0.1111310E+00
         21   -1    0    0  502  501  0.00000000000E+00  0.00000000000E+00  0.32134877467E+03  0.32134877467E+03  0.00000000000E+00 0. -1.
         21   -1    0    0  501  502 -0.00000000000E+00 -0.00000000000E+00 -0.19947500267E+03  0.19947500267E+03  0.00000000000E+00 0. -1.
         25    1    1    2    0    0  0.16137436069E+03 -0.32940642132E+02 -0.89349566987E+02  0.22524456777E+03  0.12500000000E+03 0.  0.
         25    1    1    2    0    0 -0.16137436069E+03  0.32940642132E+02  0.21122333899E+03  0.29557920956E+03  0.12500000000E+03 0.  0.
</event>
<event>
 4    0  0.2259196E-002  0.2134734E+03  0.7546771E-02  0.1138845E+00
         21   -1    0    0  502  501  0.00000000000E+00  0.00000000000E+00  0.26817419372E+03  0.26817419372E+03  0.00000000000E+00 0.  1.
         21   -1    0    0  501  502 -0.00000000000E+00 -0.00000000000E+00 -0.16993013162E+03  0.16993013162E+03  0.00000000000E+00 0.  1.
         25    1    1    2    0    0  0.13655693289E+03 -0.73222671759E+02  0.12818440325E+03  0.23678174933E+03  0.12500000000E+03 0.  0.
         25    1    1    2    0    0 -0.13655693289E+03  0.73222671759E+02 -0.29940341157E+02  0.20132257600E+03  0.12500000000E+03 0.  0.
</event>
<event>
 4    0  0.2259196E-002  0.2541621E+03  0.7546771E-02  0.1110702E+00
         21   -1    0    0  502  501  0.00000000000E+00  0.00000000000E+00  0.88191161653E+02  0.88191161653E+02  0.00000000000E+00 0. -1.
         21   -1    0    0  501  502 -0.00000000000E+00 -0.00000000000E+00 -0.73248103871E+03  0.73248103871E+03  0.00000000000E+00 0. -1.
         25    1    1    2    0    0  0.78455834054E+02  0.31196028088E+02  0.81104985424E+01  0.15106055161E+03  0.12500000000E+03 0.  0.
         25    1    1    2    0    0 -0.78455834054E+02 -0.31196028088E+02 -0.65240037560E+03  0.66961164876E+03  0.12500000000E+03 0.  0.
</event>
<event>
 4    0  0.2259196E-002  0.1490943E+03  0.7546771E-02  0.1201590E+00
         21   -1    0    0  502  501  0.00000000000E+00  0.00000000000E+00  0.11878163952E+03  0.11878163952E+03  0.00000000000E+00 0.  1.
         21   -1    0    0  501  502 -0.00000000000E+00 -0.00000000000E+00 -0.18714262688E+03  0.18714262688E+03  0.00000000000E+00 0.  1.
         25    1    1    2    0    0  0.28741082640E+02  0.48552210610E+02  0.25823894705E+02  0.13955371913E+03  0.12500000000E+03 0.  0.
         25    1    1    2    0    0 -0.28741082640E+02 -0.48552210610E+02 -0.94184882067E+02  0.16637054726E+03  0.12500000000E+03 0.  0.
</event>
<event>
 4    0  0.2259196E-002  0.2346909E+03  0.7546771E-02  0.1123381E+00
         21   -1    0    0  502  501  0.00000000000E+00  0.00000000000E+00  0.75239755605E+02  0.75239755605E+02  0.00000000000E+00 0.  1.
         21   -1    0    0  501  502 -0.00000000000E+00 -0.00000000000E+00 -0.73205721236E+03  0.73205721236E+03  0.00000000000E+00 0. -1.
         25    1    1    2    0    0  0.38486427327E+02 -0.19226349223E+03 -0.27379361712E+03  0.35921358592E+03  0.12500000000E+03 0.  0.
         25    1    1    2    0    0 -0.38486427327E+02  0.19226349223E+03 -0.38302383963E+03  0.44808338204E+03  0.12500000000E+03 0.  0.
</event>
<event>
 4    0  0.2259196E-002  0.2019089E+03  0.7546771E-02  0.1148138E+00
         21   -1    0    0  502  501  0.00000000000E+00  0.00000000000E+00  0.96139391453E+03  0.96139391453E+03  0.00000000000E+00 0.  1.
         21   -1    0    0  501  502 -0.00000000000E+00 -0.00000000000E+00 -0.42404250232E+02  0.42404250232E+02  0.00000000000E+00 0.  1.
         25    1    1    2    0    0  0.50687118420E+02  0.59111802054E+02  0.11614523724E+03  0.18755827161E+03  0.12500000000E+03 0.  0.
         25    1    1    2    0    0 -0.50687118420E+02 -0.59111802054E+02  0.80284442706E+03  0.81623989315E+03  0.12500000000E+03 0.  0.
</event>
<event>
 4    0  0.2259196E-002  0.1635561E+03  0.7546771E-02  0.1184739E+00
         21   -1    0    0  502  501  0.00000000000E+00  0.00000000000E+00  0.27133623702E+02  0.27133623702E+02  0.00000000000E+00 0. -1.
         21   -1    0    0  501  502 -0.00000000000E+00 -0.00000000000E+00 -0.98588372873E+03  0.98588372873E+03  0.00000000000E+00 0. -1.
         25    1    1    2    0    0 -0.80514382649E+02 -0.50000915492E+02 -0.33601596702E+03  0.37082932389E+03  0.12500000000E+03 0.  0.
         25    1    1    2    0    0  0.80514382649E+02  0.50000915492E+02 -0.62273413801E+03  0.64218802854E+03  0.12500000000E+03 0.  0.
</event>
<event>
 4    0  0.2259196E-002  0.2851843E+03  0.7546771E-02  0.1092891E+00
         21   -1    0    0  502  501  0.00000000000E+00  0.00000000000E+00  0.28071028196E+03  0.28071028196E+03  0.00000000000E+00 0. -1.
         21   -1    0    0  501  502 -0.00000000000E+00 -0.00000000000E+00 -0.28972972183E+03  0.28972972183E+03  0.00000000000E+00 0. -1.
         25    1    1    2    0    0 -0.25286977629E+03 -0.33099818166E+02  0.21308041813E+02  0.28481178762E+03  0.12500000000E+03 0.  0.
         25    1    1    2    0    0  0.25286977629E+03  0.33099818166E+02 -0.30327481682E+02  0.28562821616E+03  0.12500000000E+03 0.  0.
</event>
<event>
 4    0  0.2259196E-002  0.3418299E+03  0.7546771E-02  0.1066019E+00
         21   -1    0    0  502  501  0.00000000000E+00  0.00000000000E+00  0.25579047507E+04  0.25579047507E+04  0.00000000000E+00 0.  1.
         21   -1    0    0  501  502 -0.00000000000E+00 -0.00000000000E+00 -0.45681004080E+02  0.45681004080E+02  0.00000000000E+00 0.  1.
         25    1    1    2    0    0 -0.42289536680E+02  0.25005555552E+03  0.19877277974E+04  0.20077357849E+04  0.12500000000E+03 0.  0.
         25    1    1    2    0    0  0.42289536680E+02 -0.25005555552E+03  0.52449594924E+03  0.59584996981E+03  0.12500000000E+03 0.  0.
</event>
<event>
 4    0  0.2259196E-002  0.2378106E+03  0.7546771E-02  0.1121260E+00
         21   -1    0    0  502  501  0.00000000000E+00  0.00000000000E+00  0.88446716582E+02  0.88446716582E+02  0.00000000000E+00 0.  1.
         21   -1    0    0  501  502 -0.00000000000E+00 -0.00000000000E+00 -0.63941184623E+03  0.63941184623E+03  0.00000000000E+00 0.  1.
         25    1    1    2    0    0  0.15985579604E+01 -0.40285603661E+02  0.27907130465E+02  0.13427320351E+03  0.12500000000E+03 0.  0.
         25    1    1    2    0    0 -0.15985579604E+01  0.40285603661E+02 -0.57887226011E+03  0.59358535930E+03  0.12500000000E+03 0.  0.
</event>
<event>
 4    0  0.2259196E-002  0.1938083E+03  0.7546771E-02  0.1155071E+00
         21   -1    0    0  502  501  0.00000000000E+00  0.00000000000E+00  0.23300970625E+04  0.23300970625E+04  0.00000000000E+00 0. -1.
         21   -1    0    0  501  502 -0.00000000000E+00 -0.00000000000E+00 -0.16120211709E+02  0.16120211709E+02  0.00000000000E+00 0. -1.
         25    1    1    2    0    0  0.77101165412E+02 -0.65950938169E+02  0.50387326913E+03  0.52896822901E+03  0.12500000000E+03 0.  0.
         25    1    1    2    0    0 -0.77101165412E+02  0.65950938169E+02  0.18101035817E+04  0.18172490452E+04  0.12500000000E+03 0.  0.
</event>
<event>
 4    0  0.2259196E-002  0.1894024E+03  0.7546771E-02  0.1159001E+00
         21   -1    0    0  502  501  0.00000000000E+00  0.00000000000E+00  0.37946990654E+02  0.37946990654E+02  0.00000000000E+00 0. -1.
         21   -1    0    0  501  502 -0.00000000000E+00 -0.00000000000E+00 -0.94535202990E+03  0.94535202990E+03  0.00000000000E+00 0. -1.
         25    1    1    2    0    0  0.92812881039E+02 -0.64993466108E+02 -0.23025484518E+03  0.28544820065E+03  0.12500000000E+03 0.  0.
         25    1    1    2    0    0 -0.92812881039E+02  0.64993466108E+02 -0.67715019406E+03  0.69785081990E+03  0.12500000000E+03 0.  0.
</event>
<event>
 4    0  0.2259196E-002  0.2229428E+03  0.7546771E-02  0.1131708E+00
         21   -1    0    0  502  501  0.00000000000E+00  0.00000000000E+00  0.10871021558E+04  0.10871021558E+04  0.00000000000E+00 0. -1.
         21   -1    0    0  501  502 -0.00000000000E+00 -0.00000000000E+00 -0.45721084910E+02  0.45721084910E+02  0.00000000000E+00 0. -1.
         25    1    1    2    0    0 -0.15916829108E+03 -0.88596801592E+02  0.44470315584E+03  0.49655798750E+03  0.12500000000E+03 0.  0.
         25    1    1    2    0    0  0.15916829108E+03  0.88596801592E+02  0.59667791510E+03  0.63626525326E+03  0.12500000000E+03 0.  0.
</event>
<event>
 4    0  0.2259196E-002  0.2011069E+03  0.7546771E-02  0.1148808E+00
         21   -1    0    0  502  501  0.00000000000E+00  0.00000000000E+00  0.19512869425E+03  0.19512869425E+03  0.00000000000E+00 0.  1.
         21   -1    0    0  501  502 -0.00000000000E+00 -0.00000000000E+00 -0.20726829035E+03  0.20726829035E+03  0.00000000000E+00 0.  1.
         25    1    1    2    0    0 -0.96810905793E+02  0.72575725145E+02 -0.10700877180E+03  0.20424364030E+03  0.12500000000E+03 0.  0.
         25    1    1    2    0    0  0.96810905793E+02 -0.72575725145E+02  0.94869175702E+02  0.19815334430E+03  0.12500000000E+03 0.  0.
</event>
<event>
 4    0  0.2259196E-002  0.2359887E+03  0.7546771E-02  0.1122494E+00
         21   -1    0    0  502  501  0.00000000000E+00  0.00000000000E+00  0.43217427335E+03  0.43217427335E+03  0.00000000000E+00 0.  1.
         21   -1    0    0  501  502 -0.00000000000E+00 -0.00000000000E+00 -0.12886155874E+03  0.12886155874E+03  0.00000000000E+00 0.  1.
         25    1    1    2    0    0 -0.19077801493E+03  0.29870027621E+02  0.89013501279E+02  0.24665131854E+03  0.12500000000E+03 0.  0.
         25    1    1    2    0    0  0.19077801493E+03 -0.29870027621E+02  0.21429921333E+03  0.31438451355E+03  0.12500000000E+03 0.  0.
</event>
<event>
 4    0  0.2259196E-002  0.1813332E+03  0.7546771E-02  0.1166519E+00
         21   -1    0    0  502  501  0.00000000000E+00  0.00000000000E+00  0.13236063989E+03  0.13236063989E+03  0.00000000000E+00 0.  1.
         21   -1    0    0  501  502 -0.00000000000E+00 -0.00000000000E+00 -0.24842515181E+03  0.24842515181E+03  0.00000000000E+00 0.  1.
         25    1    1    2    0    0  0.15854166811E+02 -0.32153200283E+02  0.74660366679E+02  0.14994783508E+03  0.12500000000E+03 0.  0.
         25    1    1    2    0    0 -0.15854166811E+02  0.32153200283E+02 -0.19072487860E+03  0.23083795661E+03  0.12500000000E+03 0.  0.
</event>
<event>
 4    0  0.2259196E-002  0.2042413E+03  0.7546771E-02  0.1146209E+00
         21   -1    0    0  502  501  0.00000000000E+00  0.00000000000E+00  0.30210943791E+03  0.30210943791E+03  0.00000000000E+00 0.  1.
         21   -1    0    0  501  502 -0.00000000000E+00 -0.00000000000E+00 -0.13807753395E+03  0.13807753395E+03  0.00000000000E+00 0.  1.
         25    1    1    2    0    0 -0.82948328378E+02 -0.10305054618E+03  0.18188988985E+03  0.25731065325E+03  0.12500000000E+03 0.  0.
         25    1    1    2    0    0  0.82948328378E+02  0.10305054618E+03 -0.17857985882E+02  0.18287631861E+03  0.12500000000E+03 0.  0.
</event>
<event>
 4    0  0.2259196E-002  0.1629751E+03  0.7546771E-02  0.1185378E+00
         21   -1    0    0  502  501  0.00000000000E+00  0.00000000000E+00  0.37882633311E+02  0.37882633311E+02  0.00000000000E+00 0.  1.
         21   -1    0    0  501  502 -0.00000000000E+00 -0.00000000000E+00 -0.70113581536E+03  0.70113581536E+03  0.00000000000E+00 0.  1.
         25    1    1    2    0    0 -0.61068899692E+02  0.79243657622E+02 -0.26259922182E+03  0.30755864332E+03  0.12500000000E+03 0.  0.
         25    1    1    2    0    0  0.61068899692E+02 -0.79243657622E+02 -0.40065396023E+03  0.43145980535E+03  0.12500000000E+03 0.  0.
</event>
<event>
 4    0  0.2259196E-002  0.2332708E+03  0.7546771E-02  0.1124359E+00
         21   -1    0    0  502  501  0.00000000000E+00  0.00000000000E+00  0.16688566959E+03  0.16688566959E+03  0.00000000000E+00 0. -1.
         21   -1    0    0  501  502 -0.00000000000E+00 -0.00000000000E+00 -0.32606317386E+03  0.32606317386E+03  0.00000000000E+00 0. -1.
         25    1    1    2    0    0 -0.13540304479E+03 -0.10773895046E+03  0.19802660881E+02  0.21438006289E+03  0.12500000000E+03 0.  0.
         25    1    1    2    0    0  0.13540304479E+03  0.10773895046E+03 -0.17898016515E+03  0.27856878056E+03  0.12500000000E+03 0.  0.
</event>
<event>
 4    0  0.2259196E-002  0.1443142E+03  0.7546771E-02  0.1207639E+00
         21   -1    0    0  502  501  0.00000000000E+00  0.00000000000E+00  0.44335305790E+02  0.44335305790E+02  0.00000000000E+00 0.  1.
         21   -1    0    0  501  502 -0.00000000000E+00 -0.00000000000E+00 -0.46975166053E+03  0.46975166053E+03  0.00000000000E+00 0.  1.
         25    1    1    2    0    0  0.49751057456E+02  0.46457841964E+02 -0.25516076180E+03  0.29217377220E+03  0.12500000000E+03 0.  0.
         25    1    1    2    0    0 -0.49751057456E+02 -0.46457841964E+02 -0.17025559293E+03  0.22191319412E+03  0.12500000000E+03 0.  0.
</event>
<event>
 4    0  0.2259196E-002  0.2376810E+03  0.7546771E-02  0.1121347E+00
         21   -1    0    0  502  501  0.00000000000E+00  0.00000000000E+00  0.30670037108E+03  0.30670037108E+03  0.00000000000E+00 0. -1.
         21   -1    0    0  501  502 -0.00000000000E+00 -0.00000000000E+00 -0.18419367790E+03  0.18419367790E+03  0.00000000000E+00 0. -1.
         25    1    1    2    0    0  0.16668569145E+03 -0.11371698178E+03  0.73968146830E+02  0.24862010865E+03  0.12500000000E+03 0.  0.
         25    1    1    2    0    0 -0.16668569145E+03  0.11371698178E+03  0.48538546348E+02  0.24227394032E+03  0.12500000000E+03 0.  0.
</event>
<event>
 4    0  0.2259196E-002  0.3402274E+03  0.7546771E-02  0.1066699E+00
         21   -1    0    0  502  501  0.00000000000E+00  0.00000000000E+00  0.48813383122E+03  0.48813383122E+03  0.00000000000E+00 0. -1.
         21   -1    0    0  501  502 -0.00000000000E+00 -0.00000000000E+00 -0.23713725119E+03  0.23713725119E+03  0.00000000000E+00 0. -1.
         25    1    1    2    0    0  0.22745241819E+03 -0.20418140361E+03  0.38220733959E+02  0.33243115472E+03  0.12500000000E+03 0.  0.
         25    1    1    2    0    0 -0.22745241819E+03  0.20418140361E+03  0.21277584607E+03  0.39283992770E+03  0.12500000000E+03 0.  0.
</event>
<event>
 4    0  0.2259196E-002  0.1883005E+03  0.7546771E-02  0.1160003E+00
         21   -1    0    0  502  501  0.00000000000E+00  0.00000000000E+00  0.18358143099E+03  0.18358143099E+03  0.00000000000E+00 0. -1.
         21   -1    0    0  501  502 -0.00000000000E+00 -0.00000000000E+00 -0.19314083900E+03  0.19314083900E+03  0.00000000000E+00 0. -1.
         25    1    1    2    0    0  0.85661181160E+01 -0.12406246172E+03  0.61326367402E+02  0.18668367932E+03  0.12500000000E+03 0.  0.
         25    1    1    2    0    0 -0.85661181160E+01  0.12406246172E+03 -0.70885775407E+02  0.19003859067E+03  0.12500000000E+03 0.  0.
</event>
<event>
 4    0  0.2259196E-002  0.2298962E+03  0.7546771E-02  0.1126713E+00
         21   -1    0    0  502  501  0.00000000000E+00  0.00000000000E+00  0.50856007074E+03  0.50856007074E+03  0.00000000000E+00 0.  1.
         21   -1    0    0  501  502 -0.00000000000E+00 -0.00000000000E+00 -0.10392530815E+03  0.10392530815E+03  0.00000000000E+00 0.  1.
         25    1    1    2    0    0 -0.47497298570E+02 -0.16876501678E+03  0.95006399158E+02  0.23534833788E+03  0.12500000000E+03 0.  0.
         25    1    1    2    0    0  0.47497298570E+02  0.16876501678E+03  0.30962836343E+03  0.37713704101E+03  0.12500000000E+03 0.  0.
</event>
<event>
 4    0  0.2259196E-002  0.2496577E+03  0.7546771E-02  0.1113521E+00
         21   -1    0    0  502  501  0.00000000000E+00  0.00000000000E+00  0.94500311088E+03  0.94500311088E+03  0.00000000000E+00 0.  1.
         21   -1    0    0  501  502 -0.00000000000E+00 -0.00000000000E+00 -0.65956356524E+02  0.65956356524E+02  0.00000000000E+00 0.  1.
         25    1    1    2    0    0 -0.12947349332E+03  0.17259641937E+03  0.41463921810E+03  0.48384252670E+03  0.12500000000E+03 0.  0.
         25    1    1    2    0    0  0.12947349332E+03 -0.17259641937E+03  0.46440753626E+03  0.52711694071E+03  0.12500000000E+03 0.  0.
</event>
<event>
 4    0  0.2259196E-002  0.1888723E+03  0.7546771E-02  0.1159482E+00
         21   -1    0    0  502  501  0.00000000000E+00  0.00000000000E+00  0.51838651343E+02  0.51838651343E+02  0.00000000000E+00 0.  1.
         21   -1    0    0  501  502 -0.00000000000E+00 -0.00000000000E+00 -0.68814927741E+03  0.68814927741E+03  0.00000000000E+00 0.  1.
         25    1    1    2    0    0  0.27452963569E+02 -0.65075338675E+02 -0.77758691911E+02  0.16327853221E+03  0.12500000000E+03 0.  0.
         25    1    1    2    0    0 -0.27452963569E+02  0.65075338675E+02 -0.55855193416E+03  0.57670939655E+03  0.12500000000E+03 0.  0.
</event>
<event>
 4    0  0.2259196E-002  0.2164251E+03  0.7546771E-02  0.1136577E+00
         21   -1    0    0  502  501  0.00000000000E+00  0.00000000000E+00  0.53166950100E+02  0.53166950100E+02  0.00000000000E+00 0.  1.
         21   -1    0    0  501  502 -0.00000000000E+00 -0.00000000000E+00 -0.88099490417E+03  0.88099490417E+03  0.00000000000E+00 0.  1.
         25    1    1    2    0    0 -0.15873835832E+03  0.76131647606E+02 -0.44599144299E+03  0.49550707502E+03  0.12500000000E+03 0.  0.
         25    1    1    2    0    0  0.15873835832E+03 -0.76131647606E+02 -0.38183651108E+03  0.43865477926E+03  0.12500000000E+03 0.  0.
</event>
<event>
 4    0  0.2259196E-002  0.2376913E+03  0.7546771E-02  0.1121340E+00
         21   -1    0    0  502  501  0.00000000000E+00  0.00000000000E+00  0.75598414045E+02  0.75598414045E+02  0.00000000000E+00 0.  1.
         21   -1    0    0  501  502 -0.00000000000E+00 -0.00000000000E+00 -0.74733273265E+03  0.74733273265E+03  0.00000000000E+00 0.  1.
         25    1    1    2    0    0  0.18753810330E+02 -0.18101662107E+03 -0.48829614749E+03  0.53588884123E+03  0.12500000000E+03 0.  0.
         25    1    1    2    0    0 -0.18753810330E+02  0.18101662107E+03 -0.18343817112E+03  0.28704230547E+03  0.12500000000E+03 0.  0.
</event>
<event>
 4    0  0.2259196E-002  0.2445043E+03  0.7546771E-02  0.1116828E+00
         21   -1    0    0  502  501  0.00000000000E+00  0.00000000000E+00  0.35124957438E+02  0.35124957438E+02  0.00000000000E+00 0. -1.
         21   -1    0    0  501  502 -0.00000000000E+00 -0.00000000000E+00 -0.17019912193E+04  0.17019912193E+04  0.00000000000E+00 0. -1.
         25    1    1    2    0    0 -0.17393036380E+03  0.69201508327E+02 -0.11726147472E+04  0.11940230172E+04  0.12500000000E+03 0.  0.
         25    1    1    2    0    0  0.17393036380E+03 -0.69201508327E+02 -0.49425151461E+03  0.54309315951E+03  0.12500000000E+03 0.  0.
</event>
<event>
 4    0  0.2259196E-002  0.2324021E+03  0.7546771E-02  0.1124960E+00
         21   -1    0    0  502  501  0.00000000000E+00  0.00000000000E+00  0.49487354953E+02  0.49487354953E+02  0.00000000000E+00 0.  1.
         21   -1    0    0  501  502 -0.00000000000E+00 -0.00000000000E+00 -0.10914048663E+04  0.10914048663E+04  0.00000000000E+00 0.  1.
         25    1    1    2    0    0  0.10953720521E+03 -0.14406583829E+03 -0.33674572914E+03  0.40221393708E+03  0.12500000000E+03 0.  0.
         25    1    1    2    0    0 -0.10953720521E+03  0.14406583829E+03 -0.70517178220E+03  0.73867828416E+03  0.12500000000E+03 0.  0.
</event>
<event>
 4    0  0.2259196E-002  0.2011483E+03  0.7546771E-02  0.1148774E+00
         21   -1    0    0  502  501  0.00000000000E+00  0.00000000000E+00  0.20469026137E+03  0.20469026137E+03  0.00000000000E+00 0.  1.
         21   -1    0    0  501  502 -0.00000000000E+00 -0.00000000000E+00 -0.19766762419E+03  0.19766762419E+03  0.00000000000E+00 0.  1.
         25    1    1    2    0    0  0.13480738741E+03 -0.60932299429E+01 -0.77898124684E+02  0.19975804610E+03  0.12500000000E+03 0.  0.
         25    1    1    2    0    0 -0.13480738741E+03  0.60932299429E+01  0.84920761869E+02  0.20259983946E+03  0.12500000000E+03 0.  0.
</event>
<event>
 4    0  0.2259196E-002  0.2800999E+03  0.7546771E-02  0.1095634E+00
         21   -1    0    0  502  501  0.00000000000E+00  0.00000000000E+00  0.14914258711E+03  0.14914258711E+03  0.00000000000E+00 0. -1.
         21   -1    0    0  501  502 -0.00000000000E+00 -0.00000000000E+00 -0.52604670257E+03  0.52604670257E+03  0.00000000000E+00 0. -1.
         25    1    1    2    0    0 -0.16945879747E+03 -0.32436953722E+02 -0.40760665121E+03  0.45993110584E+03  0.12500000000E+03 0.  0.
         25    1    1    2    0    0  0.16945879747E+03  0.32436953722E+02  0.30702535758E+02  0.21525818384E+03  0.12500000000E+03 0.  0.
</event>
<event>
 4    0  0.2259196E-002  0.2101304E+03  0.7546771E-02  0.1141463E+00
         21   -1    0    0  502  501  0.00000000000E+00  0.00000000000E+00  0.19602160781E+03  0.19602160781E+03  0.00000000000E+00 0. -1.
         21   -1    0    0  501  502 -0.00000000000E+00 -0.00000000000E+00 -0.22525460021E+03  0.22525460021E+03  0.00000000000E+00 0.  1.
         25    1    1    2    0    0 -0.54453592966E+01 -0.16870745000E+03 -0.84442421646E+01  0.21020980198E+03  0.12500000000E+03 0.  0.
         25    1    1    2    0    0  0.54453592966E+01  0.16870745000E+03 -0.20788750240E+02  0.21106640604E+03  0.12500000000E+03 0.  0.
</event>
<event>
 4    0  0.2259196E-002  0.1829326E+03  0.7546771E-02  0.1164995E+00
         21   -1    0    0  502  501  0.00000000000E+00  0.00000000000E+00  0.77684342582E+02  0.77684342582E+02  0.00000000000E+00 0.  1.
         21   -1    0    0  501  502 -0.00000000000E+00 -0.00000000000E+00 -0.43077337952E+03  0.43077337952E+03  0.00000000000E+00 0.  1.
         25    1    1    2    0    0 -0.64509799755E+02 -0.10318974360E+03 -0.10004932300E+03  0.20110819099E+03  0.12500000000E+03 0.  0.
         25    1    1    2    0    0  0.64509799755E+02  0.10318974360E+03 -0.25303971394E+03  0.30734953112E+03  0.12500000000E+03 0.  0.
</event>
<event>
 4    0  0.2259196E-002  0.2046105E+03  0.7546771E-02  0.1145906E+00
         21   -1    0    0  502  501  0.00000000000E+00  0.00000000000E+00  0.48495712741E+02  0.48495712741E+02  0.00000000000E+00 0.  1.
         21   -1    0    0  501  502 -0.00000000000E+00 -0.00000000000E+00 -0.86328155472E+03  0.86328155472E+03  0.00000000000E+00 0.  1.
         25    1    1    2    0    0 -0.96012416818E+02  0.10425409341E+03 -0.58216810048E+03  0.61207188907E+03  0.12500000000E+03 0.  0.
         25    1    1    2    0    0  0.96012416818E+02 -0.10425409341E+03 -0.23261774150E+03  0.29970537839E+03  0.12500000000E+03 0.  0.
</event>
<event>
 4    0  0.2259196E-002  0.1938072E+03  0.7546771E-02  0.1155072E+00
         21   -1    0    0  502  501  0.00000000000E+00  0.00000000000E+00  0.14384349227E+03  0.14384349227E+03  0.00000000000E+00 0.  1.
         21   -1    0    0  501  502 -0.00000000000E+00 -0.00000000000E+00 -0.26112577107E+03  0.26112577107E+03  0.00000000000E+00 0.  1.
         25    1    1    2    0    0  0.13377914542E+02  0.35628616318E+02  0.90903399242E+02  0.15917535893E+03  0.12500000000E+03 0.  0.
         25    1    1    2    0    0 -0.13377914542E+02 -0.35628616318E+02 -0.20818567804E+03  0.24579390440E+03  0.12500000000E+03 0.  0.
</event>
<event>
 4    0  0.2259196E-002  0.2702906E+03  0.7546771E-02  0.1101113E+00
         21   -1    0    0  502  501  0.00000000000E+00  0.00000000000E+00  0.11934068182E+04  0.11934068182E+04  0.00000000000E+00 0. -1.
         21   -1    0    0  501  502 -0.00000000000E+00 -0.00000000000E+00 -0.61217168833E+02  0.61217168833E+02  0.00000000000E+00 0. -1.
         25    1    1    2    0    0  0.17011235658E+02  0.59802262189E+02  0.28941196585E+02  0.14257729679E+03  0.12500000000E+03 0.  0.
         25    1    1    2    0    0 -0.17011235658E+02 -0.59802262189E+02  0.11032484527E+04  0.11120466902E+04  0.12500000000E+03 0.  0.
</event>
<event>
 4    0  0.2259196E-002  0.3718836E+03  0.7546771E-02  0.1053975E+00
         21   -1    0    0  502  501  0.00000000000E+00  0.00000000000E+00  0.29474589454E+03  0.29474589454E+03  0.00000000000E+00 0.  1.
         21   -1    0    0  501  502 -0.00000000000E+00 -0.00000000000E+00 -0.46920899579E+03  0.46920899579E+03  0.00000000000E+00 0.  1.
         25    1    1    2    0    0 -0.11345448545E+03  0.20396154756E+03 -0.35547150783E+03  0.44323495579E+03  0.12500000000E+03 0.  0.
         25    1    1    2    0    0  0.11345448545E+03 -0.20396154756E+03  0.18100840658E+03  0.32071993453E+03  0.12500000000E+03 0.  0.
</event>
<event>
 4    0  0.2259196E-002  0.3410387E+03  0.7546771E-02  0.1066354E+00
         21   -1    0    0  502  501  0.00000000000E+00  0.00000000000E+00  0.99296830619E+02  0.99296830619E+02  0.00000000000E+00 0.  1.
         21   -1    0    0  501  502 -0.00000000000E+00 -0.00000000000E+00 -0.11713103359E+04  0.11713103359E+04  0.00000000000E+00 0.  1.
         25    1    1    2    0    0 -0.17942923311E+03  0.19215990734E+02 -0.49812831895E+02  0.22510091562E+03  0.12500000000E+03 0.  0.
         25    1    1    2    0    0  0.17942923311E+03 -0.19215990734E+02 -0.10222006734E+04  0.10455062509E+04  0.12500000000E+03 0.  0.
</event>
<event>
 4    0  0.2259196E-002  0.1831396E+03  0.7546771E-02  0.1164799E+00
         21   -1    0    0  502  501  0.00000000000E+00  0.00000000000E+00  0.37129168845E+02  0.37129168845E+02  0.00000000000E+00 0.  1.
         21   -1    0    0  501  502 -0.00000000000E+00 -0.00000000000E+00 -0.90333596070E+03  0.90333596070E+03  0.00000000000E+00 0.  1.
         25    1    1    2    0    0 -0.16256375288E+02 -0.11184241400E+03 -0.61722360610E+03  0.63981479761E+03  0.12500000000E+03 0.  0.
         25    1    1    2    0    0  0.16256375288E+02  0.11184241400E+03 -0.24898318575E+03  0.30065033194E+03  0.12500000000E+03 0.  0.
</event>
<event>
 4    0  0.2259196E-002  0.2625386E+03  0.7546771E-02  0.1105628E+00
         21   -1    0    0  502  501  0.00000000000E+00  0.00000000000E+00  0.56526543223E+03  0.56526543223E+03  0.00000000000E+00 0.  1.
         21   -1    0    0  501  502 -0.00000000000E+00 -0.00000000000E+00 -0.12193651217E+03  0.12193651217E+03  0.00000000000E+00 0.  1.
         25    1    1    2    0    0 -0.16888743609E+03 -0.41881637337E+02  0.42025382648E+03  0.47171529155E+03  0.12500000000E+03 0.  0.
         25    1    1    2    0    0  0.16888743609E+03  0.41881637337E+02  0.23075093582E+02  0.21548665286E+03  0.12500000000E+03 0.  0.
</event>
<event>
 4    0  0.2259196E-002  0.1959280E+03  0.7546771E-02  0.1153221E+00
         21   -1    0    0  502  501  0.00000000000E+00  0.00000000000E+00  0.10754909468E+03  0.10754909468E+03  0.00000000000E+00 0. -1.
         21   -1    0    0  501  502 -0.00000000000E+00 -0.00000000000E+00 -0.35693252606E+03  0.35693252606E+03  0.00000000000E+00 0. -1.
         25    1    1    2    0    0 -0.80208091827E+02  0.12115038932E+03 -0.76513676855E+02  0.20637368430E+03  0.12500000000E+03 0.  0.
         25    1    1    2    0    0  0.80208091827E+02 -0.12115038932E+03 -0.17286975452E+03  0.25810793644E+03  0.12500000000E+03 0.  0.
</event>
<event>
 4    0  0.2259196E-002  0.2084198E+03  0.7546771E-02  0.1142823E+00
         21   -1    0    0  502  501  0.00000000000E+00  0.00000000000E+00  0.25219638308E+03  0.25219638308E+03  0.00000000000E+00 0.  1.
         21   -1    0    0  501  502 -0.00000000000E+00 -0.00000000000E+00 -0.17224199832E+03  0.17224199832E+03  0.00000000000E+00 0.  1.
         25    1    1    2    0    0 -0.81481420795E+02 -0.11179387739E+03 -0.54869762389E+02  0.19435221578E+03  0.12500000000E+03 0.  0.
         25    1    1    2    0    0  0.81481420795E+02  0.11179387739E+03  0.13482414714E+03  0.23008616562E+03  0.12500000000E+03 0.  0.
</event>
<event>
 4    0  0.2259196E-002  0.1640861E+03  0.7546771E-02  0.1184159E+00
         21   -1    0    0  502  501  0.00000000000E+00  0.00000000000E+00  0.29486977273E+02  0.29486977273E+02  0.00000000000E+00 0. -1.
         21   -1    0    0  501  502 -0.00000000000E+00 -0.00000000000E+00 -0.91308899155E+03  0.91308899155E+03  0.00000000000E+00 0. -1.
         25    1    1    2    0    0  0.74242338578E+02  0.14508735643E+02 -0.22731080491E+03  0.27021774604E+03  0.12500000000E+03 0.  0.
         25    1    1    2    0    0 -0.74242338578E+02 -0.14508735643E+02 -0.65629120937E+03  0.67235822279E+03  0.12500000000E+03 0.  0.
</event>
<event>
 4    0  0.2259196E-002  0.1973002E+03  0.7546771E-02  0.1152037E+00
         21   -1    0    0  502  501  0.00000000000E+00  0.00000000000E+00  0.51604251221E+03  0.51604251221E+03  0.00000000000E+00 0.  1.
         21   -1    0    0  501  502 -0.00000000000E+00 -0.00000000000E+00 -0.75434434969E+02  0.75434434969E+02  0.00000000000E+00 0.  1.
         25    1    1    2    0    0  0.73026732350E+02 -0.98521395921E+02  0.35655805284E+03  0.39723798174E+03  0.12500000000E+03 0.  0.
         25    1    1    2    0    0 -0.73026732350E+02  0.98521395921E+02  0.84050024397E+02  0.19423896543E+03  0.12500000000E+03 0.  0.
</event>
<event>
 4    0  0.2259196E-002  0.2401698E+03  0.7546771E-02  0.1119680E+00
         21   -1    0    0  502  501  0.00000000000E+00  0.00000000000E+00  0.12282919924E+03  0.12282919924E+03  0.00000000000E+00 0.  1.
         21   -1    0    0  501  502 -0.00000000000E+00 -0.00000000000E+00 -0.46960779101E+03  0.46960779101E+03  0.00000000000E+00 0.  1.
         25    1    1    2    0    0 -0.19538823755E+03 -0.45836395444E+02 -0.22541080643E+03  0.32666889992E+03  0.12500000000E+03 0.  0.
         25    1    1    2    0    0  0.19538823755E+03  0.45836395444E+02 -0.12136778534E+03  0.26576809033E+03  0.12500000000E+03 0.  0.
</event>
<event>
 4    0  0.2259196E-002  0.1836299E+03  0.7546771E-02  0.1164336E+00
         21   -1    0    0  502  501  0.00000000000E+00  0.00000000000E+00  0.20860351431E+03  0.20860351431E+03  0.00000000000E+00 0. -1.
         21   -1    0    0  501  502 -0.00000000000E+00 -0.00000000000E+00 -0.16164613227E+03  0.16164613227E+03  0.00000000000E+00 0. -1.
         25    1    1    2    0    0  0.11604256178E+03  0.40379219058E+02 -0.31726511362E+02  0.17812335332E+03  0.12500000000E+03 0.  0.
         25    1    1    2    0    0 -0.11604256178E+03 -0.40379219058E+02  0.78683893405E+02  0.19212629325E+03  0.12500000000E+03 0.  0.
</event>
<event>
 4    0  0.2259196E-002  0.1535254E+03  0.7546771E-02  0.1196207E+00
         21   -1    0    0  502  501  0.00000000000E+00  0.00000000000E+00  0.51657772696E+03  0.51657772696E+03  0.00000000000E+00 0. -1.
         21   -1    0    0  501  502 -0.00000000000E+00 -0.00000000000E+00 -0.45627326958E+02  0.45627326958E+02  0.00000000000E+00 0. -1.
         25    1    1    2    0    0  0.73038746683E+02  0.32426777285E+02  0.30776789651E+03  0.34166099064E+03  0.12500000000E+03 0.  0.
         25    1    1    2    0    0 -0.73038746683E+02 -0.32426777285E+02  0.16318250349E+03  0.22054406328E+03  0.12500000000E+03 0.  0.
</event>
<event>
 4    0  0.2259196E-002  0.1750968E+03  0.7546771E-02  0.1172635E+00
         21   -1    0    0  502  501  0.00000000000E+00  0.00000000000E+00  0.48183348205E+03  0.48183348205E+03  0.00000000000E+00 0.  1.
         21   -1    0    0  501  502 -0.00000000000E+00 -0.00000000000E+00 -0.63629630121E+02  0.63629630121E+02  0.00000000000E+00 0.  1.
         25    1    1    2    0    0 -0.65848219351E+02  0.47445912160E+02  0.65948123199E+02  0.16297624835E+03  0.12500000000E+03 0.  0.
         25    1    1    2    0    0  0.65848219351E+02 -0.47445912160E+02  0.35225572873E+03  0.38248686382E+03  0.12500000000E+03 0.  0.
</event>
<event>
 4    0  0.2259196E-002  0.2809629E+03  0.7546771E-02  0.1095164E+00
         21   -1    0    0  502  501  0.00000000000E+00  0.00000000000E+00  0.56499425211E+03  0.56499425211E+03  0.00000000000E+00 0. -1.
         21   -1    0    0  501  502 -0.00000000000E+00 -0.00000000000E+00 -0.13971849030E+03  0.13971849030E+03  0.00000000000E+00 0. -1.
         25    1    1    2    0    0 -0.18024470039E+03  0.99557813472E+02  0.31268265345E+02  0.24290453816E+03  0.12500000000E+03 0.  0.
         25    1    1    2    0    0  0.18024470039E+03 -0.99557813472E+02  0.39400749646E+03  0.46180820425E+03  0.12500000000E+03 0.  0.
</event>
<event>
 4    0  0.2259196E-002  0.2313314E+03  0.7546771E-02  0.1125706E+00
         21   -1    0    0  502  501  0.00000000000E+00  0.00000000000E+00  0.95711257617E+02  0.95711257617E+02  0.00000000000E+00 0. -1.
         21   -1    0    0  501  502 -0.00000000000E+00 -0.00000000000E+00 -0.55912167610E+03  0.55912167610E+03  0.00000000000E+00 0. -1.
         25    1    1    2    0    0 -0.14584851980E+03 -0.10634028815E+03 -0.12857639522E+03  0.25443454368E+03  0.12500000000E+03 0.  0.
         25    1    1    2    0    0  0.14584851980E+03  0.10634028815E+03 -0.33483402327E+03  0.40039839004E+03  0.12500000000E+03 0.  0.
</event>
<event>
 4    0  0.2259196E-002  0.2398871E+03  0.7546771E-02  0.1119868E+00
         21   -1    0    0  502  501  0.00000000000E+00  0.00000000000E+00  0.14698233265E+03  0.14698233265E+03  0.00000000000E+00 0.  1.
         21   -1    0    0  501  502 -0.00000000000E+00 -0.00000000000E+00 -0.39151506366E+03  0.39151506366E+03  0.00000000000E+00 0.  1.
         25    1    1    2    0    0  0.14462249069E+02  0.63536807436E+02 -0.34012350290E+03  0.36817805444E+03  0.12500000000E+03 0.  0.
         25    1    1    2    0    0 -0.14462249069E+02 -0.63536807436E+02  0.95590771884E+02  0.17031934188E+03  0.12500000000E+03 0.  0.
</event>
<event>
 4    0  0.2259196E-002  0.1925162E+03  0.7546771E-02  0.1156211E+00
         21   -1    0    0  502  501  0.00000000000E+00  0.00000000000E+00  0.15955976784E+03  0.15955976784E+03  0.00000000000E+00 0.  1.
         21   -1    0    0  501  502 -0.00000000000E+00 -0.00000000000E+00 -0.23227963719E+03  0.23227963719E+03  0.00000000000E+00 0.  1.
         25    1    1    2    0    0  0.86872435058E+02  0.34755457355E+02 -0.15096850692E+03  0.21718943775E+03  0.12500000000E+03 0.  0.
         25    1    1    2    0    0 -0.86872435058E+02 -0.34755457355E+02  0.78248637573E+02  0.17464996728E+03  0.12500000000E+03 0.  0.
</event>
<event>
 4    0  0.2259196E-002  0.2068413E+03  0.7546771E-02  0.1144092E+00
         21   -1    0    0  502  501  0.00000000000E+00  0.00000000000E+00  0.16915674805E+03  0.16915674805E+03  0.00000000000E+00 0.  1.
         21   -1    0    0  501  502 -0.00000000000E+00 -0.00000000000E+00 -0.25292112589E+03  0.25292112589E+03  0.00000000000E+00 0.  1.
         25    1    1    2    0    0 -0.30417490787E+02  0.32984106617E+02 -0.20367246043E+03  0.24314737541E+03  0.12500000000E+03 0.  0.
         25    1    1    2    0    0  0.30417490787E+02 -0.32984106617E+02  0.11990808258E+03  0.17893049853E+03  0.12500000000E+03 0.  0.
</event>
<event>
 4    0  0.2259196E-002  0.2954406E+03  0.7546771E-02  0.1087542E+00
         21   -1    0    0  502  501  0.00000000000E+00  0.00000000000E+00  0.86275400293E+03  0.86275400293E+03  0.00000000000E+00 0.  1.
         21   -1    0    0  501  502 -0.00000000000E+00 -0.00000000000E+00 -0.10117035721E+03  0.10117035721E+03  0.00000000000E+00 0.  1.
         25    1    1    2    0    0 -0.25196150310E+03 -0.23331205253E+02  0.23828394920E+03  0.36936862973E+03  0.12500000000E+03 0.  0.
         25    1    1    2    0    0  0.25196150310E+03  0.23331205253E+02  0.52329969652E+03  0.59455573041E+03  0.12500000000E+03 0.  0.
</event>
<event>
 4    0  0.2259196E-002  0.2044717E+03  0.7546771E-02  0.1146020E+00
         21   -1    0    0  502  501  0.00000000000E+00  0.00000000000E+00  0.56193204960E+02  0.56193204960E+02  0.00000000000E+00 0.  1.
         21   -1    0    0  501  502 -0.00000000000E+00 -0.00000000000E+00 -0.74401652145E+03  0.74401652145E+03  0.00000000000E+00 0.  1.
         25    1    1    2    0    0  0.94903681857E+02 -0.11564868055E+03 -0.22325077550E+03  0.29639034212E+03  0.12500000000E+03 0.  0.
         25    1    1    2    0    0 -0.94903681857E+02  0.11564868055E+03 -0.46457254099E+03  0.50381938429E+03  0.12500000000E+03 0.  0.
</event>
<event>
 4    0  0.2259196E-002  0.2306552E+03  0.7546771E-02  0.1126179E+00
         21   -1    0    0  502  501  0.00000000000E+00  0.00000000000E+00  0.27785034523E+02  0.27785034523E+02  0.00000000000E+00 0.  1.
         21   -1    0    0  501  502 -0.00000000000E+00 -0.00000000000E+00 -0.19147659096E+04  0.19147659096E+04  0.00000000000E+00 0.  1.
         25    1    1    2    0    0  0.11821479843E+03 -0.35219007431E+02 -0.31379331480E+03  0.35959193743E+03  0.12500000000E+03 0.  0.
         25    1    1    2    0    0 -0.11821479843E+03  0.35219007431E+02 -0.15731875602E+04  0.15829590066E+04  0.12500000000E+03 0.  0.
</event>
<event>
 4    0  0.2259196E-002  0.2560853E+03  0.7546771E-02  0.1109518E+00
         21   -1    0    0  502  501  0.00000000000E+00  0.00000000000E+00  0.46108294412E+04  0.46108294412E+04  0.00000000000E+00 0.  1.
         21   -1    0    0  501  502 -0.00000000000E+00 -0.00000000000E+00 -0.14222966674E+02  0.14222966674E+02  0.00000000000E+00 0.  1.
         25    1    1    2    0    0  0.11067361732E+03 -0.88764035884E+02  0.73872701522E+03  0.76254200320E+03  0.12500000000E+03 0.  0.
         25    1    1    2    0    0 -0.11067361732E+03  0.88764035884E+02  0.38578794593E+04  0.38625104047E+04  0.12500000000E+03 0.  0.
</event>
<event>
 4    0  0.2259196E-002  0.1845778E+03  0.7546771E-02  0.1163445E+00
         21   -1    0    0  502  501  0.00000000000E+00  0.00000000000E+00  0.63972808769E+03  0.63972808769E+03  0.00000000000E+00 0. -1.
         21   -1    0    0  501  502 -0.00000000000E+00 -0.00000000000E+00 -0.53255408650E+02  0.53255408650E+02  0.00000000000E+00 0. -1.
         25    1    1    2    0    0 -0.45853963776E+02 -0.12388510434E+03  0.23405574086E+03  0.29640714381E+03  0.12500000000E+03 0.  0.
         25    1    1    2    0    0  0.45853963776E+02  0.12388510434E+03  0.35241693819E+03  0.39657635254E+03  0.12500000000E+03 0.  0.
</event>
<event>
 4    0  0.2259196E-002  0.2319402E+03  0.7546771E-02  0.1125282E+00
         21   -1    0    0  502  501  0.00000000000E+00  0.00000000000E+00  0.56350165681E+03  0.56350165681E+03  0.00000000000E+00 0.  1.
         21   -1    0    0  501  502 -0.00000000000E+00 -0.00000000000E+00 -0.95467767970E+02  0.95467767970E+02  0.00000000000E+00 0.  1.
         25    1    1    2    0    0  0.13954209249E+03  0.13627221027E+03  0.25015980582E+03  0.34095020064E+03  0.12500000000E+03 0.  0.
         25    1    1    2    0    0 -0.13954209249E+03 -0.13627221027E+03  0.21787408302E+03  0.31801922414E+03  0.12500000000E+03 0.  0.
</event>
<event>
 4    0  0.2259196E-002  0.2480336E+03  0.7546771E-02  0.1114554E+00
         21   -1    0    0  502  501  0.00000000000E+00  0.00000000000E+00  0.66280584012E+03  0.66280584012E+03  0.00000000000E+00 0.  1.
         21   -1    0    0  501  502 -0.00000000000E+00 -0.00000000000E+00 -0.92818530316E+02  0.92818530316E+02  0.00000000000E+00 0.  1.
         25    1    1    2    0    0  0.70921167260E+02  0.16117665584E+03  0.47085228160E+03  0.51801022909E+03  0.12500000000E+03 0.  0.
         25    1    1    2    0    0 -0.70921167260E+02 -0.16117665584E+03  0.99135028203E+02  0.23761414135E+03  0.12500000000E+03 0.  0.
</event>
<event>
 4    0  0.2259196E-002  0.1932245E+03  0.7546771E-02  0.1155585E+00
         21   -1    0    0  502  501  0.00000000000E+00  0.00000000000E+00  0.53812566781E+02  0.53812566781E+02  0.00000000000E+00 0.  1.
         21   -1    0    0  501  502 -0.00000000000E+00 -0.00000000000E+00 -0.69381032662E+03  0.69381032662E+03  0.00000000000E+00 0.  1.
         25    1    1    2    0    0  0.89714109703E+02 -0.81841655788E+02 -0.48144249715E+03  0.51201421480E+03  0.12500000000E+03 0.  0.
         25    1    1    2    0    0 -0.89714109703E+02  0.81841655788E+02 -0.15855526269E+03  0.23560867859E+03  0.12500000000E+03 0.  0.
</event>
<event>
 4    0  0.2259196E-002  0.1953908E+03  0.7546771E-02  0.1153687E+00
         21   -1    0    0  502  501  0.00000000000E+00  0.00000000000E+00  0.24359608639E+03  0.24359608639E+03  0.00000000000E+00 0. -1.
         21   -1    0    0  501  502 -0.00000000000E+00 -0.00000000000E+00 -0.15672486289E+03  0.15672486289E+03  0.00000000000E+00 0. -1.
         25    1    1    2    0    0 -0.10378557041E+03 -0.96404840056E+02  0.94525128436E+02  0.21124710109E+03  0.12500000000E+03 0.  0.
         25    1    1    2    0    0  0.10378557041E+03  0.96404840056E+02 -0.76539049287E+01  0.18907384820E+03  0.12500000000E+03 0.  0.
</event>
<event>
 4    0  0.2259196E-002  0.2050123E+03  0.7546771E-02  0.1145578E+00
         21   -1    0    0  502  501  0.00000000000E+00  0.00000000000E+00  0.88521607051E+03  0.88521607051E+03  0.00000000000E+00 0. -1.
         21   -1    0    0  501  502 -0.00000000000E+00 -0.00000000000E+00 -0.47479989803E+02  0.47479989803E+02  0.00000000000E+00 0. -1.
         25    1    1    2    0    0 -0.46669397428E+02  0.50623986233E+02  0.84055423100E+02  0.16562347295E+03  0.12500000000E+03 0.  0.
         25    1    1    2    0    0  0.46669397428E+02 -0.50623986233E+02  0.75368065760E+03  0.76707258736E+03  0.12500000000E+03 0.  0.
</event>
<event>
 4    0  0.2259196E-002  0.1932353E+03  0.7546771E-02  0.1155575E+00
         21   -1    0    0  502  501  0.00000000000E+00  0.00000000000E+00  0.24071208546E+03  0.24071208546E+03  0.00000000000E+00 0. -1.
         21   -1    0    0  501  502 -0.00000000000E+00 -0.00000000000E+00 -0.15512259068E+03  0.15512259068E+03  0.00000000000E+00 0. -1.
         25    1    1    2    0    0 -0.36399767140E+02  0.12643898629E+03 -0.25169064389E+02  0.18322183850E+03  0.12500000000E+03 0.  0.
         25    1    1    2    0    0  0.36399767140E+02 -0.12643898629E+03  0.11075855917E+03  0.21261283764E+03  0.12500000000E+03 0.  0.
</event>
<event>
 4    0  0.2259196E-002  0.2516549E+03  0.7546771E-02  0.1112263E+00
         21   -1    0    0  502  501  0.00000000000E+00  0.00000000000E+00  0.88907642729E+02  0.88907642729E+02  0.00000000000E+00 0.  1.
         21   -1    0    0  501  502 -0.00000000000E+00 -0.00000000000E+00 -0.71231457903E+03  0.71231457903E+03  0.00000000000E+00 0.  1.
         25    1    1    2    0    0  0.14501062483E+03  0.56587271273E+01 -0.57155558851E+03  0.60279423791E+03  0.12500000000E+03 0.  0.
         25    1    1    2    0    0 -0.14501062483E+03 -0.56587271273E+01 -0.51851347790E+02  0.19842798384E+03  0.12500000000E+03 0.  0.
</event>
<event>
 4    0  0.2259196E-002  0.1698025E+03  0.7546771E-02  0.1178054E+00
         21   -1    0    0  502  501  0.00000000000E+00  0.00000000000E+00  0.19316102911E+03  0.19316102911E+03  0.00000000000E+00 0.  1.
         21   -1    0    0  501  502 -0.00000000000E+00 -0.00000000000E+00 -0.14926872550E+03  0.14926872550E+03  0.00000000000E+00 0.  1.
         25    1    1    2    0    0 -0.68461529024E+02 -0.91709161431E+02  0.32538257137E+02  0.17257256278E+03  0.12500000000E+03 0.  0.
         25    1    1    2    0    0  0.68461529024E+02  0.91709161431E+02  0.11354046474E+02  0.16985719184E+03  0.12500000000E+03 0.  0.
</event>
<event>
 4    0  0.2259196E-002  0.2761845E+03  0.7546771E-02  0.1097791E+00
         21   -1    0    0  502  501  0.00000000000E+00  0.00000000000E+00  0.15399922126E+03  0.15399922126E+03  0.00000000000E+00 0. -1.
         21   -1    0    0  501  502 -0.00000000000E+00 -0.00000000000E+00 -0.49531334769E+03  0.49531334769E+03  0.00000000000E+00 0.  1.
         25    1    1    2    0    0  0.16936949546E+03 -0.43947096263E+02  0.33066819237E+02  0.21756789238E+03  0.12500000000E+03 0.  0.
         25    1    1    2    0    0 -0.16936949546E+03  0.43947096263E+02 -0.37438094568E+03  0.43174467657E+03  0.12500000000E+03 0.  0.
</event>
<event>
 4    0  0.2259196E-002  0.4129563E+03  0.7546771E-02  0.1039383E+00
         21   -1    0    0  502  501  0.00000000000E+00  0.00000000000E+00  0.41612421755E+03  0.41612421755E+03  0.00000000000E+00 0. -1.
         21   -1    0    0  501  502 -0.00000000000E+00 -0.00000000000E+00 -0.40981247367E+03  0.40981247367E+03  0.00000000000E+00 0. -1.
         25    1    1    2    0    0  0.32574296602E+02  0.38130592093E+03 -0.88784861499E+02  0.41226574168E+03  0.12500000000E+03 0.  0.
         25    1    1    2    0    0 -0.32574296602E+02 -0.38130592093E+03  0.95096605376E+02  0.41367094953E+03  0.12500000000E+03 0.  0.
</event>
<event>
 4    0  0.2259196E-002  0.2045165E+03  0.7546771E-02  0.1145983E+00
         21   -1    0    0  502  501  0.00000000000E+00  0.00000000000E+00  0.34625240086E+03  0.34625240086E+03  0.00000000000E+00 0. -1.
         21   -1    0    0  501  502 -0.00000000000E+00 -0.00000000000E+00 -0.12079916622E+03  0.12079916622E+03  0.00000000000E+00 0. -1.
         25    1    1    2    0    0  0.79024161479E+02 -0.13581404173E+03  0.68330653609E+02  0.21209514434E+03  0.12500000000E+03 0.  0.
         25    1    1    2    0    0 -0.79024161479E+02  0.13581404173E+03  0.15712258103E+03  0.25495642274E+03  0.12500000000E+03 0.  0.
</event>
<event>
 4    0  0.2259196E-002  0.2455132E+03  0.7546771E-02  0.1116174E+00
         21   -1    0    0  502  501  0.00000000000E+00  0.00000000000E+00  0.63414488914E+02  0.63414488914E+02  0.00000000000E+00 0. -1.
         21   -1    0    0  501  502 -0.00000000000E+00 -0.00000000000E+00 -0.95052019558E+03  0.95052019558E+03  0.00000000000E+00 0. -1.
         25    1    1    2    0    0  0.71727858758E+01  0.20523977906E+03 -0.34078376356E+03  0.41705322115E+03  0.12500000000E+03 0.  0.
         25    1    1    2    0    0 -0.71727858758E+01 -0.20523977906E+03 -0.54632194310E+03  0.59688146334E+03  0.12500000000E+03 0.  0.
</event>
<event>
 4    0  0.2259196E-002  0.2648086E+03  0.7546771E-02  0.1104288E+00
         21   -1    0    0  502  501  0.00000000000E+00  0.00000000000E+00  0.78543913086E+03  0.78543913086E+03  0.00000000000E+00 0. -1.
         21   -1    0    0  501  502 -0.00000000000E+00 -0.00000000000E+00 -0.89279450293E+02  0.89279450293E+02  0.00000000000E+00 0. -1.
         25    1    1    2    0    0 -0.69539417160E+02 -0.11075322514E+03  0.66747049168E+03  0.69155178019E+03  0.12500000000E+03 0.  0.
         25    1    1    2    0    0  0.69539417160E+02  0.11075322514E+03  0.28689188888E+02  0.18316680097E+03  0.12500000000E+03 0.  0.
</event>
<event>
 4    0  0.2259196E-002  0.3536602E+03  0.7546771E-02  0.1061123E+00
         21   -1    0    0  502  501  0.00000000000E+00  0.00000000000E+00  0.25620559380E+03  0.25620559380E+03  0.00000000000E+00 0.  1.
         21   -1    0    0  501  502 -0.00000000000E+00 -0.00000000000E+00 -0.48818419065E+03  0.48818419065E+03  0.00000000000E+00 0.  1.
         25    1    1    2    0    0 -0.26983172065E+03 -0.10864063913E+03  0.49872963416E+02  0.32050625332E+03  0.12500000000E+03 0.  0.
         25    1    1    2    0    0  0.26983172065E+03  0.10864063913E+03 -0.28185156027E+03  0.42388353113E+03  0.12500000000E+03 0.  0.
</event>
<event>
 4    0  0.2259196E-002  0.1792733E+03  0.7546771E-02  0.1168508E+00
         21   -1    0    0  502  501  0.00000000000E+00  0.00000000000E+00  0.59514677569E+02  0.59514677569E+02  0.00000000000E+00 0.  1.
         21   -1    0    0  501  502 -0.00000000000E+00 -0.00000000000E+00 -0.54001690321E+03  0.54001690321E+03  0.00000000000E+00 0.  1.
         25    1    1    2    0    0  0.57966299674E+02  0.11467734318E+03 -0.23738065020E+03  0.29746522154E+03  0.12500000000E+03 0.  0.
         25    1    1    2    0    0 -0.57966299674E+02 -0.11467734318E+03 -0.24312157544E+03  0.30206635924E+03  0.12500000000E+03 0.  0.
</event>
<event>
 4    0  0.2259196E-002  0.2358797E+03  0.7546771E-02  0.1122568E+00
         21   -1    0    0  502  501  0.00000000000E+00  0.00000000000E+00  0.46835279587E+03  0.46835279587E+03  0.00000000000E+00 0. -1.
         21   -1    0    0  501  502 -0.00000000000E+00 -0.00000000000E+00 -0.11879767285E+03  0.11879767285E+03  0.00000000000E+00 0. -1.
         25    1    1    2    0    0  0.17882282594E+03  0.22453346010E+02  0.28279589995E+03  0.35788304913E+03  0.12500000000E+03 0.  0.
         25    1    1    2    0    0 -0.17882282594E+03 -0.22453346010E+02  0.66759223072E+02  0.22926741960E+03  0.12500000000E+03 0.  0.
</event>
<event>
 4    0  0.2259196E-002  0.1708164E+03  0.7546771E-02  0.1176999E+00
         21   -1    0    0  502  501  0.00000000000E+00  0.00000000000E+00  0.17491178101E+03  0.17491178101E+03  0.00000000000E+00 0. -1.
         21   -1    0    0  501  502 -0.00000000000E+00 -0.00000000000E+00 -0.16681698455E+03  0.16681698455E+03  0.00000000000E+00 0. -1.
         25    1    1    2    0    0  0.11385376216E+03  0.22995189138E+02 -0.38159779342E+01  0.17067811684E+03  0.12500000000E+03 0.  0.
         25    1    1    2    0    0 -0.11385376216E+03 -0.22995189138E+02  0.11910774399E+02  0.17105064872E+03  0.12500000000E+03 0.  0.
</event>
<event>
 4    0  0.2259196E-002  0.4348585E+03  0.7546771E-02  0.1032336E+00
         21   -1    0    0  502  501  0.00000000000E+00  0.00000000000E+00  0.70920919149E+03  0.70920919149E+03  0.00000000000E+00 0.  1.
         21   -1    0    0  501  502 -0.00000000000E+00 -0.00000000000E+00 -0.26663770551E+03  0.26663770551E+03  0.00000000000E+00 0.  1.
         25    1    1    2    0    0 -0.19774948650E+03 -0.33202048161E+03  0.46975683656E+02  0.40886938559E+03  0.12500000000E+03 0.  0.
         25    1    1    2    0    0  0.19774948650E+03  0.33202048161E+03  0.39559580233E+03  0.56697751141E+03  0.12500000000E+03 0.  0.
</event>
<event>
 4    0  0.2259196E-002  0.1900359E+03  0.7546771E-02  0.1158429E+00
         21   -1    0    0  502  501  0.00000000000E+00  0.00000000000E+00  0.10924042795E+03  0.10924042795E+03  0.00000000000E+00 0. -1.
         21   -1    0    0  501  502 -0.00000000000E+00 -0.00000000000E+00 -0.33058871332E+03  0.33058871332E+03  0.00000000000E+00 0. -1.
         25    1    1    2    0    0 -0.77798030423E+02 -0.50109807608E+02  0.15697545895E+02  0.15631679149E+03  0.12500000000E+03 0.  0.
         25    1    1    2    0    0  0.77798030423E+02  0.50109807608E+02 -0.23704583126E+03  0.28351234977E+03  0.12500000000E+03 0.  0.
</event>
<event>
 4    0  0.2259196E-002  0.2770409E+03  0.7546771E-02  0.1097316E+00
         21   -1    0    0  502  501  0.00000000000E+00  0.00000000000E+00  0.66735786659E+02  0.66735786659E+02  0.00000000000E+00 0. -1.
         21   -1    0    0  501  502 -0.00000000000E+00 -0.00000000000E+00 -0.11500829001E+04  0.11500829001E+04  0.00000000000E+00 0. -1.
         25    1    1    2    0    0 -0.13958753453E+03  0.14479113513E+03 -0.22588143855E+03  0.32725613346E+03  0.12500000000E+03 0.  0.
         25    1    1    2    0    0  0.13958753453E+03 -0.14479113513E+03 -0.85746567491E+03  0.88956255331E+03  0.12500000000E+03 0.  0.
</event>
<event>
 4    0  0.2259196E-002  0.2333416E+03  0.7546771E-02  0.1124310E+00
         21   -1    0    0  502  501  0.00000000000E+00  0.00000000000E+00  0.74648854393E+02  0.74648854393E+02  0.00000000000E+00 0. -1.
         21   -1    0    0  501  502 -0.00000000000E+00 -0.00000000000E+00 -0.72939260335E+03  0.72939260335E+03  0.00000000000E+00 0. -1.
         25    1    1    2    0    0  0.11992221932E+02 -0.95675866572E+01  0.11068496555E+02  0.12642335116E+03  0.12500000000E+03 0.  0.
         25    1    1    2    0    0 -0.11992221932E+02  0.95675866572E+01 -0.66581224551E+03  0.67761810659E+03  0.12500000000E+03 0.  0.
</event>
<event>
 4    0  0.2259196E-002  0.2199326E+03  0.7546771E-02  0.1133933E+00
         21   -1    0    0  502  501  0.00000000000E+00  0.00000000000E+00  0.51236314712E+03  0.51236314712E+03  0.00000000000E+00 0.  1.
         21   -1    0    0  501  502 -0.00000000000E+00 -0.00000000000E+00 -0.94406372895E+02  0.94406372895E+02  0.00000000000E+00 0.  1.
         25    1    1    2    0    0  0.57417735641E+02 -0.16576071335E+03  0.27023465819E+03  0.34557948571E+03  0.12500000000E+03 0.  0.
         25    1    1    2    0    0 -0.57417735641E+02  0.16576071335E+03  0.14772211604E+03  0.26119003431E+03  0.12500000000E+03 0.  0.
</event>
<event>
 4    0  0.2259196E-002  0.2543016E+03  0.7546771E-02  0.1110616E+00
         21   -1    0    0  502  501  0.00000000000E+00  0.00000000000E+00  0.80940333035E+02  0.80940333035E+02  0.00000000000E+00 0. -1.
         21   -1    0    0  501  502 -0.00000000000E+00 -0.00000000000E+00 -0.79897499511E+03  0.79897499511E+03  0.00000000000E+00 0. -1.
         25    1    1    2    0    0 -0.13224715331E+03  0.13641354140E+03 -0.55586726650E+03  0.60059252560E+03  0.12500000000E+03 0.  0.
         25    1    1    2    0    0  0.13224715331E+03 -0.13641354140E+03 -0.16216739558E+03  0.27932280255E+03  0.12500000000E+03 0.  0.
</event>
<event>
 4    0  0.2259196E-002  0.1869794E+03  0.7546771E-02  0.1161214E+00
         21   -1    0    0  502  501  0.00000000000E+00  0.00000000000E+00  0.11545077431E+04  0.11545077431E+04  0.00000000000E+00 0.  1.
         21   -1    0    0  501  502 -0.00000000000E+00 -0.00000000000E+00 -0.30282439667E+02  0.30282439667E+02  0.00000000000E+00 0.  1.
         25    1    1    2    0    0 -0.45384342768E+02  0.13140959325E+03  0.55310053096E+03  0.58384365811E+03  0.12500000000E+03 0.  0.
         25    1    1    2    0    0  0.45384342768E+02 -0.13140959325E+03  0.57112477249E+03  0.60094652467E+03  0.12500000000E+03 0.  0.
</event>
<event>
 4    0  0.2259196E-002  0.1834653E+03  0.7546771E-02  0.1164491E+00
         21   -1    0    0  502  501  0.00000000000E+00  0.00000000000E+00  0.68103193352E+03  0.68103193352E+03  0.00000000000E+00 0.  1.
         21   -1    0    0  501  502 -0.00000000000E+00 -0.00000000000E+00 -0.49424311554E+02  0.49424311554E+02  0.00000000000E+00 0.  1.
         25    1    1    2    0    0 -0.12645030981E+03 -0.44012493326E+02  0.29513921387E+03  0.34735995161E+03  0.12500000000E+03 0.  0.
         25    1    1    2    0    0  0.12645030981E+03  0.44012493326E+02  0.33646840810E+03  0.38309629346E+03  0.12500000000E+03 0.  0.
</event>
<event>
 4    0  0.2259196E-002  0.3666233E+03  0.7546771E-02  0.1055992E+00
         21   -1    0    0  502  501  0.00000000000E+00  0.00000000000E+00  0.12803328833E+03  0.12803328833E+03  0.00000000000E+00 0. -1.
         21   -1    0    0  501  502 -0.00000000000E+00 -0.00000000000E+00 -0.10498258142E+04  0.10498258142E+04  0.00000000000E+00 0. -1.
         25    1    1    2    0    0 -0.18719002061E+03  0.18475855564E+03 -0.81869258184E+03  0.86894094808E+03  0.12500000000E+03 0.  0.
         25    1    1    2    0    0  0.18719002061E+03 -0.18475855564E+03 -0.10309994406E+03  0.30891815447E+03  0.12500000000E+03 0.  0.
</event>
<event>
 4    0  0.2259196E-002  0.2474156E+03  0.7546771E-02  0.1114949E+00
         21   -1    0    0  502  501  0.00000000000E+00  0.00000000000E+00  0.62588752772E+03  0.62588752772E+03  0.00000000000E+00 0.  1.
         21   -1    0    0  501  502 -0.00000000000E+00 -0.00000000000E+00 -0.97804284934E+02  0.97804284934E+02  0.00000000000E+00 0.  1.
         25    1    1    2    0    0  0.26950243801E+02  0.10970228566E+03 -0.94417121203E+00  0.16848382290E+03  0.12500000000E+03 0.  0.
         25    1    1    2    0    0 -0.26950243801E+02 -0.10970228566E+03  0.52902741399E+03  0.55520798975E+03  0.12500000000E+03 0.  0.
</event>
<event>
 4    0  0.2259196E-002  0.2084496E+03  0.7546771E-02  0.1142800E+00
         21   -1    0    0  502  501  0.00000000000E+00  0.00000000000E+00  0.20046150380E+02  0.20046150380E+02  0.00000000000E+00 0.  1.
         21   -1    0    0  501  502 -0.00000000000E+00 -0.00000000000E+00 -0.21675602847E+04  0.21675602847E+04  0.00000000000E+00 0.  1.
         25    1    1    2    0    0 -0.14991577573E+03 -0.58674038850E+02 -0.13030152175E+04  0.13188597499E+04  0.12500000000E+03 0.  0.
         25    1    1    2    0    0  0.14991577573E+03  0.58674038850E+02 -0.84449891682E+03  0.86874668527E+03  0.12500000000E+03 0.  0.
</event>
<event>
 4    0  0.2259196E-002  0.1875025E+03  0.7546771E-02  0.1160733E+00
         21   -1    0    0  502  501  0.00000000000E+00  0.00000000000E+00  0.25300617461E+03  0.25300617461E+03  0.00000000000E+00 0.  1.
         21   -1    0    0  501  502 -0.00000000000E+00 -0.00000000000E+00 -0.13895780540E+03  0.13895780540E+03  0.00000000000E+00 0.  1.
         25    1    1    2    0    0 -0.82322664321E+02  0.13468065447E+02 -0.60179681149E+02  0.16187959683E+03  0.12500000000E+03 0.  0.
         25    1    1    2    0    0  0.82322664321E+02 -0.13468065447E+02  0.17422805036E+03  0.23008438318E+03  0.12500000000E+03 0.  0.
</event>
<event>
 4    0  0.2259196E-002  0.1803087E+03  0.7546771E-02  0.1167505E+00
         21   -1    0    0  502  501  0.00000000000E+00  0.00000000000E+00  0.26341318405E+02  0.26341318405E+02  0.00000000000E+00 0. -1.
         21   -1    0    0  501  502 -0.00000000000E+00 -0.00000000000E+00 -0.12342288052E+04  0.12342288052E+04  0.00000000000E+00 0. -1.
         25    1    1    2    0    0  0.82557829882E+02 -0.20307966090E+02 -0.26041416359E+03  0.30111251279E+03  0.12500000000E+03 0.  0.
         25    1    1    2    0    0 -0.82557829882E+02  0.20307966090E+02 -0.94747332317E+03  0.95945761078E+03  0.12500000000E+03 0.  0.
</event>
<event>
 4    0  0.2259196E-002  0.2545893E+03  0.7546771E-02  0.1110438E+00
         21   -1    0    0  502  501  0.00000000000E+00  0.00000000000E+00  0.29182268344E+03  0.29182268344E+03  0.00000000000E+00 0. -1.
         21   -1    0    0  501  502 -0.00000000000E+00 -0.00000000000E+00 -0.22210655044E+03  0.22210655044E+03  0.00000000000E+00 0. -1.
         25    1    1    2    0    0  0.36928372347E+02 -0.13389531796E+03  0.20938479600E+03  0.28063972216E+03  0.12500000000E+03 0.  0.
         25    1    1    2    0    0 -0.36928372347E+02  0.13389531796E+03 -0.13966866299E+03  0.23328951172E+03  0.12500000000E+03 0.  0.
</event>
<event>
 4    0  0.2259196E-002  0.2614979E+03  0.7546771E-02  0.1106247E+00
         21   -1    0    0  502  501  0.00000000000E+00  0.00000000000E+00  0.24164504574E+03  0.24164504574E+03  0.00000000000E+00 0. -1.
         21   -1    0    0  501  502 -0.00000000000E+00 -0.00000000000E+00 -0.28298172416E+03  0.28298172416E+03  0.00000000000E+00 0. -1.
         25    1    1    2    0    0 -0.45409602538E+02 -0.22004983631E+03  0.27147595005E+02  0.25854584580E+03  0.12500000000E+03 0.  0.
         25    1    1    2    0    0  0.45409602538E+02  0.22004983631E+03 -0.68484273420E+02  0.26608092410E+03  0.12500000000E+03 0.  0.
</event>
<event>
 4    0  0.2259196E-002  0.2470268E+03  0.7546771E-02  0.1115198E+00
         21   -1    0    0  502  501  0.00000000000E+00  0.00000000000E+00  0.85726638048E+02  0.85726638048E+02  0.00000000000E+00 0.  1.
         21   -1    0    0  501  502 -0.00000000000E+00 -0.00000000000E+00 -0.71182335178E+03  0.71182335178E+03  0.00000000000E+00 0.  1.
         25    1    1    2    0    0 -0.11774702536E+03  0.10814547127E+03 -0.54041485745E+03  0.57726339143E+03  0.12500000000E+03 0.  0.
         25    1    1    2    0    0  0.11774702536E+03 -0.10814547127E+03 -0.85681856285E+02  0.22028659840E+03  0.12500000000E+03 0.  0.
</event>
<event>
 4    0  0.2259196E-002  0.2063869E+03  0.7546771E-02  0.1144460E+00
         21   -1    0    0  502  501  0.00000000000E+00  0.00000000000E+00  0.11020375548E+03  0.11020375548E+03  0.00000000000E+00 0.  1.
         21   -1    0    0  501  502 -0.00000000000E+00 -0.00000000000E+00 -0.38651639880E+03  0.38651639880E+03  0.00000000000E+00 0.  1.
         25    1    1    2    0    0 -0.13154305469E+03 -0.95800806407E+02 -0.11154061827E+03  0.23355444605E+03  0.12500000000E+03 0.  0.
         25    1    1    2    0    0  0.13154305469E+03  0.95800806407E+02 -0.16477202505E+03  0.26316570823E+03  0.12500000000E+03 0.  0.
</event>
<event>
 4    0  0.2259196E-002  0.2795573E+03  0.7546771E-02  0.1095931E+00
         21   -1    0    0  502  501  0.00000000000E+00  0.00000000000E+00  0.81064560008E+02  0.81064560008E+02  0.00000000000E+00 0.  1.
         21   -1    0    0  501  502 -0.00000000000E+00 -0.00000000000E+00 -0.96407436076E+03  0.96407436076E+03  0.00000000000E+00 0.  1.
         25    1    1    2    0    0 -0.46300382360E+02 -0.30464125421E+02  0.14289696300E+02  0.13748084872E+03  0.12500000000E+03 0.  0.
         25    1    1    2    0    0  0.46300382360E+02  0.30464125421E+02 -0.89729949705E+03  0.90765807205E+03  0.12500000000E+03 0.  0.
</event>
<event>
 4    0  0.2259196E-002  0.2251861E+03  0.7546771E-02  0.1130075E+00
         21   -1    0    0  502  501  0.00000000000E+00  0.00000000000E+00  0.33741610454E+02  0.33741610454E+02  0.00000000000E+00 0.  1.
         21   -1    0    0  501  502 -0.00000000000E+00 -0.00000000000E+00 -0.15028560770E+04  0.15028560770E+04  0.00000000000E+00 0.  1.
         25    1    1    2    0    0 -0.14737580751E+03 -0.34017969411E+02 -0.11115142817E+04  0.11287009566E+04  0.12500000000E+03 0.  0.
         25    1    1    2    0    0  0.14737580751E+03  0.34017969411E+02 -0.35760018484E+03  0.40789673090E+03  0.12500000000E+03 0.  0.
</event>
<event>
 4    0  0.2259196E-002  0.1622635E+03  0.7546771E-02  0.1186165E+00
         21   -1    0    0  502  501  0.00000000000E+00  0.00000000000E+00  0.24754185683E+02  0.24754185683E+02  0.00000000000E+00 0. -1.
         21   -1    0    0  501  502 -0.00000000000E+00 -0.00000000000E+00 -0.10636360422E+04  0.10636360422E+04  0.00000000000E+00 0. -1.
         25    1    1    2    0    0 -0.26584571662E+02 -0.99531418335E+02 -0.48741257949E+03  0.51362366118E+03  0.12500000000E+03 0.  0.
         25    1    1    2    0    0  0.26584571662E+02  0.99531418335E+02 -0.55146927703E+03  0.57476656670E+03  0.12500000000E+03 0.  0.
</event>
<event>
 4    0  0.2259196E-002  0.3456481E+03  0.7546771E-02  0.1064416E+00
         21   -1    0    0  502  501  0.00000000000E+00  0.00000000000E+00  0.18342679359E+03  0.18342679359E+03  0.00000000000E+00 0. -1.
         21   -1    0    0  501  502 -0.00000000000E+00 -0.00000000000E+00 -0.65133679645E+03  0.65133679645E+03  0.00000000000E+00 0. -1.
         25    1    1    2    0    0  0.19217038854E+03  0.20413528535E+02 -0.54535231741E+03  0.59192932051E+03  0.12500000000E+03 0.  0.
         25    1    1    2    0    0 -0.19217038854E+03 -0.20413528535E+02  0.77442314537E+02  0.24283426953E+03  0.12500000000E+03 0.  0.
</event>
<event>
 4    0  0.2259196E-002  0.1552396E+03  0.7546771E-02  0.1194178E+00
         21   -1    0    0  502  501  0.00000000000E+00  0.00000000000E+00  0.50216917916E+03  0.50216917916E+03  0.00000000000E+00 0. -1.
         21   -1    0    0  501  502 -0.00000000000E+00 -0.00000000000E+00 -0.47990470997E+02  0.47990470997E+02  0.00000000000E+00 0. -1.
         25    1    1    2    0    0 -0.65738571203E+02  0.41812603992E+02  0.31397878568E+03  0.34681051232E+03  0.12500000000E+03 0.  0.
         25    1    1    2    0    0  0.65738571203E+02 -0.41812603992E+02  0.14019992248E+03  0.20334913784E+03  0.12500000000E+03 0.  0.
</event>
<event>
 4    0  0.2259196E-002  0.2207883E+03  0.7546771E-02  0.1133297E+00
         21   -1    0    0  502  501  0.00000000000E+00  0.00000000000E+00  0.87134618235E+02  0.87134618235E+02  0.00000000000E+00 0.  1.
         21   -1    0    0  501  502 -0.00000000000E+00 -0.00000000000E+00 -0.55945000682E+03  0.55945000682E+03  0.00000000000E+00 0.  1.
         25    1    1    2    0    0  0.18590077717E+02 -0.16957488050E+03 -0.14330405775E+03  0.25546483917E+03  0.12500000000E+03 0.  0.
         25    1    1    2    0    0 -0.18590077717E+02  0.16957488050E+03 -0.32901133084E+03  0.39111978588E+03  0.12500000000E+03 0.  0.
</event>
<event>
 4    0  0.2259196E-002  0.1733960E+03  0.7546771E-02  0.1174352E+00
         21   -1    0    0  502  501  0.00000000000E+00  0.00000000000E+00  0.14250051616E+03  0.14250051616E+03  0.00000000000E+00 0. -1.
         21   -1    0    0  501  502 -0.00000000000E+00 -0.00000000000E+00 -0.21098981409E+03  0.21098981409E+03  0.00000000000E+00 0. -1.
         25    1    1    2    0    0 -0.11799257332E+03 -0.21517647263E+02 -0.26623542654E+02  0.17526856400E+03  0.12500000000E+03 0.  0.
         25    1    1    2    0    0  0.11799257332E+03  0.21517647263E+02 -0.41865755270E+02  0.17822176625E+03  0.12500000000E+03 0.  0.
</event>
<event>
 4    0  0.2259196E-002  0.1644762E+03  0.7546771E-02  0.1183734E+00
         21   -1    0    0  502  501  0.00000000000E+00  0.00000000000E+00  0.14103190061E+04  0.14103190061E+04  0.00000000000E+00 0.  1.
         21   -1    0    0  501  502 -0.00000000000E+00 -0.00000000000E+00 -0.19181765173E+02  0.19181765173E+02  0.00000000000E+00 0.  1.
         25    1    1    2    0    0  0.62220301040E+02 -0.65858888800E+01  0.10722277846E+04  0.10813011430E+04  0.12500000000E+03 0.  0.
         25    1    1    2    0    0 -0.62220301040E+02  0.65858888800E+01  0.31890945638E+03  0.34819962832E+03  0.12500000000E+03 0.  0.
</event>
<event>
 4    0  0.2259196E-002  0.3570898E+03  0.7546771E-02  0.1059742E+00
         21   -1    0    0  502  501  0.00000000000E+00  0.00000000000E+00  0.18532721677E+04  0.18532721677E+04  0.00000000000E+00 0. -1.
         21   -1    0    0  501  502 -0.00000000000E+00 -0.00000000000E+00 -0.68804331524E+02  0.68804331524E+02  0.00000000000E+00 0.  1.
         25    1    1    2    0    0  0.19400067358E+03  0.91300293850E+02  0.15832037563E+04  0.16025389664E+04  0.12500000000E+03 0.  0.
         25    1    1    2    0    0 -0.19400067358E+03 -0.91300293850E+02  0.20126407987E+03  0.31953753277E+03  0.12500000000E+03 0.  0.
</event>
<event>
 4    0  0.2259196E-002  0.2844508E+03  0.7546771E-02  0.1093283E+00
         21   -1    0    0  502  501  0.00000000000E+00  0.00000000000E+00  0.27453882344E+03  0.27453882344E+03  0.00000000000E+00 0.  1.
         21   -1    0    0  501  502 -0.00000000000E+00 -0.00000000000E+00 -0.29472054043E+03  0.29472054043E+03  0.00000000000E+00 0.  1.
         25    1    1    2    0    0 -0.66154909127E+02  0.21247218995E+03  0.11555216089E+03  0.28017531189E+03  0.12500000000E+03 0.  0.
         25    1    1    2    0    0  0.66154909127E+02 -0.21247218995E+03 -0.13573387788E+03  0.28908405198E+03  0.12500000000E+03 0.  0.
</event>
<event>
 4    0  0.2259196E-002  0.2153352E+03  0.7546771E-02  0.1137409E+00
         21   -1    0    0  502  501  0.00000000000E+00  0.00000000000E+00  0.43827670895E+02  0.43827670895E+02  0.00000000000E+00 0.  1.
         21   -1    0    0  501  502 -0.00000000000E+00 -0.00000000000E+00 -0.10579898852E+04  0.10579898852E+04  0.00000000000E+00 0.  1.
         25    1    1    2    0    0 -0.10799530101E+03 -0.94288625507E+02 -0.24881283141E+03  0.31318709267E+03  0.12500000000E+03 0.  0.
         25    1    1    2    0    0  0.10799530101E+03  0.94288625507E+02 -0.76534938287E+03  0.78863046340E+03  0.12500000000E+03 0.  0.
</event>
<event>
 4    0  0.2259196E-002  0.4025045E+03  0.7546771E-02  0.1042916E+00
         21   -1    0    0  502  501  0.00000000000E+00  0.00000000000E+00  0.49873176043E+03  0.49873176043E+03  0.00000000000E+00 0.  1.
         21   -1    0    0  501  502 -0.00000000000E+00 -0.00000000000E+00 -0.32484364883E+03  0.32484364883E+03  0.00000000000E+00 0.  1.
         25    1    1    2    0    0 -0.32068564266E+03  0.46350654435E+02  0.29509963333E+03  0.45573726880E+03  0.12500000000E+03 0.  0.
         25    1    1    2    0    0  0.32068564266E+03 -0.46350654435E+02 -0.12121152173E+03  0.36783814046E+03  0.12500000000E+03 0.  0.
</event>
<event>
 4    0  0.2259196E-002  0.2343682E+03  0.7546771E-02  0.1123602E+00
         21   -1    0    0  502  501  0.00000000000E+00  0.00000000000E+00  0.34363142511E+03  0.34363142511E+03  0.00000000000E+00 0.  1.
         21   -1    0    0  501  502 -0.00000000000E+00 -0.00000000000E+00 -0.15984704429E+03  0.15984704429E+03  0.00000000000E+00 0.  1.
         25    1    1    2    0    0  0.13688575664E+03 -0.17163358670E+02 -0.61037441100E+02  0.19591544214E+03  0.12500000000E+03 0.  0.
         25    1    1    2    0    0 -0.13688575664E+03  0.17163358670E+02  0.24482182191E+03  0.30756302726E+03  0.12500000000E+03 0.  0.
</event>
<event>
 4    0  0.2259196E-002  0.2172300E+03  0.7546771E-02  0.1135965E+00
         21   -1    0    0  502  501  0.00000000000E+00  0.00000000000E+00  0.25519929152E+04  0.25519929152E+04  0.00000000000E+00 0.  1.
         21   -1    0    0  501  502 -0.00000000000E+00 -0.00000000000E+00 -0.18490984032E+02  0.18490984032E+02  0.00000000000E+00 0.  1.
         25    1    1    2    0    0 -0.17356269282E+03  0.34870965706E+02  0.11782270075E+04  0.11979916001E+04  0.12500000000E+03 0.  0.
         25    1    1    2    0    0  0.17356269282E+03 -0.34870965706E+02  0.13552749236E+04  0.13724922991E+04  0.12500000000E+03 0.  0.
</event>
<event>
 4    0  0.2259196E-002  0.3710574E+03  0.7546771E-02  0.1054289E+00
         21   -1    0    0  502  501  0.00000000000E+00  0.00000000000E+00  0.91549209554E+03  0.91549209554E+03  0.00000000000E+00 0. -1.
         21   -1    0    0  501  502 -0.00000000000E+00 -0.00000000000E+00 -0.15039295555E+03  0.15039295555E+03  0.00000000000E+00 0. -1.
         25    1    1    2    0    0  0.20673208183E+03  0.24443448212E+03  0.58348617789E+03  0.67717611409E+03  0.12500000000E+03 0.  0.
         25    1    1    2    0    0 -0.20673208183E+03 -0.24443448212E+03  0.18161296210E+03  0.38870893701E+03  0.12500000000E+03 0.  0.
</event>
<event>
 4    0  0.2259196E-002  0.1866915E+03  0.7546771E-02  0.1161480E+00
         21   -1    0    0  502  501  0.00000000000E+00  0.00000000000E+00  0.19011824520E+03  0.19011824520E+03  0.00000000000E+00 0.  1.
         21   -1    0    0  501  502 -0.00000000000E+00 -0.00000000000E+00 -0.18332646994E+03  0.18332646994E+03  0.00000000000E+00 0.  1.
         25    1    1    2    0    0  0.11829389558E+03  0.65989397627E+02  0.33076720151E+02  0.18726215780E+03  0.12500000000E+03 0.  0.
         25    1    1    2    0    0 -0.11829389558E+03 -0.65989397627E+02 -0.26284944894E+02  0.18618255734E+03  0.12500000000E+03 0.  0.
</event>
<event>
 4    0  0.2259196E-002  0.1699952E+03  0.7546771E-02  0.1177853E+00
         21   -1    0    0  502  501  0.00000000000E+00  0.00000000000E+00  0.10439840777E+03  0.10439840777E+03  0.00000000000E+00 0. -1.
         21   -1    0    0  501  502 -0.00000000000E+00 -0.00000000000E+00 -0.27680841679E+03  0.27680841679E+03  0.00000000000E+00 0. -1.
         25    1    1    2    0    0  0.25574548627E+02  0.56205048934E+02 -0.19526020478E+03  0.23992626499E+03  0.12500000000E+03 0.  0.
         25    1    1    2    0    0 -0.25574548627E+02 -0.56205048934E+02  0.22850195757E+02  0.14128055956E+03  0.12500000000E+03 0.  0.
</event>
<event>
 4    0  0.2259196E-002  0.1866517E+03  0.7546771E-02  0.1161516E+00
         21   -1    0    0  502  501  0.00000000000E+00  0.00000000000E+00  0.15477243820E+04  0.15477243820E+04  0.00000000000E+00 0.  1.
         21   -1    0    0  501  502 -0.00000000000E+00 -0.00000000000E+00 -0.22509739498E+02  0.22509739498E+02  0.00000000000E+00 0.  1.
         25    1    1    2    0    0 -0.21436652750E+02 -0.13608129028E+03  0.82725684126E+03  0.84791304333E+03  0.12500000000E+03 0.  0.
         25    1    1    2    0    0  0.21436652750E+02  0.13608129028E+03  0.69795780128E+03  0.72232107820E+03  0.12500000000E+03 0.  0.
</event>
<event>
 4    0  0.2259196E-002  0.2085500E+03  0.7546771E-02  0.1142719E+00
         21   -1    0    0  502  501  0.00000000000E+00  0.00000000000E+00  0.19991441197E+03  0.19991441197E+03  0.00000000000E+00 0.  1.
         21   -1    0    0  501  502 -0.00000000000E+00 -0.00000000000E+00 -0.21755861781E+03  0.21755861781E+03  0.00000000000E+00 0.  1.
         25    1    1    2    0    0 -0.35100470498E+02  0.15905663060E+03  0.27776271170E+02  0.20718971019E+03  0.12500000000E+03 0.  0.
         25    1    1    2    0    0  0.35100470498E+02 -0.15905663060E+03 -0.45420477010E+02  0.21028331959E+03  0.12500000000E+03 0.  0.
</event>
<event>
 4    0  0.2259196E-002  0.2777339E+03  0.7546771E-02  0.1096933E+00
         21   -1    0    0  502  501  0.00000000000E+00  0.00000000000E+00  0.11983979600E+03  0.11983979600E+03  0.00000000000E+00 0. -1.
         21   -1    0    0  501  502 -0.00000000000E+00 -0.00000000000E+00 -0.64366019685E+03  0.64366019685E+03  0.00000000000E+00 0. -1.
         25    1    1    2    0    0 -0.64269591826E+02 -0.12792736370E+03  0.16459624083E+02  0.19076663765E+03  0.12500000000E+03 0.  0.
         25    1    1    2    0    0  0.64269591826E+02  0.12792736370E+03 -0.54028002493E+03  0.57273335520E+03  0.12500000000E+03 0.  0.
</event>
<event>
 4    0  0.2259196E-002  0.2389207E+03  0.7546771E-02  0.1120514E+00
         21   -1    0    0  502  501  0.00000000000E+00  0.00000000000E+00  0.15255113355E+04  0.15255113355E+04  0.00000000000E+00 0. -1.
         21   -1    0    0  501  502 -0.00000000000E+00 -0.00000000000E+00 -0.37418987760E+02  0.37418987760E+02  0.00000000000E+00 0. -1.
         25    1    1    2    0    0  0.79330565918E+02 -0.73734438942E+02  0.13079935917E+04  0.13184090193E+04  0.12500000000E+03 0.  0.
         25    1    1    2    0    0 -0.79330565918E+02  0.73734438942E+02  0.18009875603E+03  0.24452130398E+03  0.12500000000E+03 0.  0.
</event>
<event>
 4    0  0.2259196E-002  0.2328420E+03  0.7546771E-02  0.1124655E+00
         21   -1    0    0  502  501  0.00000000000E+00  0.00000000000E+00  0.14871705613E+03  0.14871705613E+03  0.00000000000E+00 0.  1.
         21   -1    0    0  501  502 -0.00000000000E+00 -0.00000000000E+00 -0.36455402916E+03  0.36455402916E+03  0.00000000000E+00 0.  1.
         25    1    1    2    0    0 -0.33325757472E+02 -0.18542112363E+03 -0.16927383590E+03  0.28243624187E+03  0.12500000000E+03 0.  0.
         25    1    1    2    0    0  0.33325757472E+02  0.18542112363E+03 -0.46563137131E+02  0.23083484342E+03  0.12500000000E+03 0.  0.
</event>
<event>
 4    0  0.2259196E-002  0.2205044E+03  0.7546771E-02  0.1133508E+00
         21   -1    0    0  502  501  0.00000000000E+00  0.00000000000E+00  0.10170083412E+04  0.10170083412E+04  0.00000000000E+00 0. -1.
         21   -1    0    0  501  502 -0.00000000000E+00 -0.00000000000E+00 -0.47809042916E+02  0.47809042916E+02  0.00000000000E+00 0. -1.
         25    1    1    2    0    0  0.91392822267E+02  0.81264024721E+02  0.80890537494E+03  0.82759252974E+03  0.12500000000E+03 0.  0.
         25    1    1    2    0    0 -0.91392822267E+02 -0.81264024721E+02  0.16029392336E+03  0.23722485440E+03  0.12500000000E+03 0.  0.
</event>
<event>
 4    0  0.2259196E-002  0.2024458E+03  0.7546771E-02  0.1147692E+00
         21   -1    0    0  502  501  0.00000000000E+00  0.00000000000E+00  0.10895096333E+03  0.10895096333E+03  0.00000000000E+00 0.  1.
         21   -1    0    0  501  502 -0.00000000000E+00 -0.00000000000E+00 -0.37617201740E+03  0.37617201740E+03  0.00000000000E+00 0.  1.
         25    1    1    2    0    0 -0.10067850455E+03  0.16161315157E+02  0.12946698150E+02  0.16183314363E+03  0.12500000000E+03 0.  0.
         25    1    1    2    0    0  0.10067850455E+03 -0.16161315157E+02 -0.28016775222E+03  0.32328983710E+03  0.12500000000E+03 0.  0.
</event>
<event>
 4    0  0.2259196E-002  0.2307563E+03  0.7546771E-02  0.1126109E+00
         21   -1    0    0  502  501  0.00000000000E+00  0.00000000000E+00  0.50942281591E+03  0.50942281591E+03  0.00000000000E+00 0. -1.
         21   -1    0    0  501  502 -0.00000000000E+00 -0.00000000000E+00 -0.10452705198E+03  0.10452705198E+03  0.00000000000E+00 0. -1.
         25    1    1    2    0    0 -0.59089364818E+02  0.13354101960E+02 -0.42679684742E+02  0.14531497020E+03  0.12500000000E+03 0.  0.
         25    1    1    2    0    0  0.59089364818E+02 -0.13354101960E+02  0.44757544868E+03  0.46863489769E+03  0.12500000000E+03 0.  0.
</event>
<event>
 4    0  0.2259196E-002  0.2632032E+03  0.7546771E-02  0.1105234E+00
         21   -1    0    0  502  501  0.00000000000E+00  0.00000000000E+00  0.12593891871E+04  0.12593891871E+04  0.00000000000E+00 0. -1.
         21   -1    0    0  501  502 -0.00000000000E+00 -0.00000000000E+00 -0.55007566906E+02  0.55007566906E+02  0.00000000000E+00 0. -1.
         25    1    1    2    0    0 -0.16997437678E+03 -0.13676781966E+03  0.79647345828E+03  0.83521954898E+03  0.12500000000E+03 0.  0.
         25    1    1    2    0    0  0.16997437678E+03  0.13676781966E+03  0.40790816190E+03  0.47917720501E+03  0.12500000000E+03 0.  0.
</event>
<event>
 4    0  0.2259196E-002  0.2656800E+03  0.7546771E-02  0.1103778E+00
         21   -1    0    0  502  501  0.00000000000E+00  0.00000000000E+00  0.43375085514E+03  0.43375085514E+03  0.00000000000E+00 0. -1.
         21   -1    0    0  501  502 -0.00000000000E+00 -0.00000000000E+00 -0.16273370652E+03  0.16273370652E+03  0.00000000000E+00 0. -1.
         25    1    1    2    0    0 -0.11943269751E+03  0.19398933500E+03  0.19765485024E+03  0.32647889848E+03  0.12500000000E+03 0.  0.
         25    1    1    2    0    0  0.11943269751E+03 -0.19398933500E+03  0.73362298379E+02  0.27000566318E+03  0.12500000000E+03 0.  0.
</event>
<event>
 4    0  0.2259196E-002  0.1883048E+03  0.7546771E-02  0.1159999E+00
         21   -1    0    0  502  501  0.00000000000E+00  0.00000000000E+00  0.22793194568E+03  0.22793194568E+03  0.00000000000E+00 0.  1.
         21   -1    0    0  501  502 -0.00000000000E+00 -0.00000000000E+00 -0.15556706749E+03  0.15556706749E+03  0.00000000000E+00 0.  1.
         25    1    1    2    0    0 -0.12605983131E+03 -0.61648836445E+02  0.24046184206E+02  0.18945943914E+03  0.12500000000E+03 0.  0.
         25    1    1    2    0    0  0.12605983131E+03  0.61648836445E+02  0.48318693981E+02  0.19403957404E+03  0.12500000000E+03 0.  0.
</event>
<event>
 4    0  0.2259196E-002  0.1705516E+03  0.7546771E-02  0.1177274E+00
         21   -1    0    0  502  501  0.00000000000E+00  0.00000000000E+00  0.10623346658E+03  0.10623346658E+03  0.00000000000E+00 0.  1.
         21   -1    0    0  501  502 -0.00000000000E+00 -0.00000000000E+00 -0.27381063500E+03  0.27381063500E+03  0.00000000000E+00 0.  1.
         25    1    1    2    0    0  0.11266364409E+03 -0.18155627163E+02 -0.10716287163E+03  0.20032874121E+03  0.12500000000E+03 0.  0.
         25    1    1    2    0    0 -0.11266364409E+03  0.18155627163E+02 -0.60414296781E+02  0.17971536037E+03  0.12500000000E+03 0.  0.
</event>
<event>
 4    0  0.2259196E-002  0.2385333E+03  0.7546771E-02  0.1120774E+00
         21   -1    0    0  502  501  0.00000000000E+00  0.00000000000E+00  0.15125304230E+04  0.15125304230E+04  0.00000000000E+00 0.  1.
         21   -1    0    0  501  502 -0.00000000000E+00 -0.00000000000E+00 -0.37617848422E+02  0.37617848422E+02  0.00000000000E+00 0.  1.
         25    1    1    2    0    0 -0.19264663694E+03 -0.34948260037E+02  0.91361186918E+03  0.94268009161E+03  0.12500000000E+03 0.  0.
         25    1    1    2    0    0  0.19264663694E+03  0.34948260037E+02  0.56130070536E+03  0.60746817977E+03  0.12500000000E+03 0.  0.
</event>
<event>
 4    0  0.2259196E-002  0.1914270E+03  0.7546771E-02  0.1157181E+00
         21   -1    0    0  502  501  0.00000000000E+00  0.00000000000E+00  0.61580116021E+02  0.61580116021E+02  0.00000000000E+00 0.  1.
         21   -1    0    0  501  502 -0.00000000000E+00 -0.00000000000E+00 -0.59506686094E+03  0.59506686094E+03  0.00000000000E+00 0.  1.
         25    1    1    2    0    0 -0.12800068724E+03 -0.45202456430E+02 -0.17942540620E+03  0.25738281681E+03  0.12500000000E+03 0.  0.
         25    1    1    2    0    0  0.12800068724E+03  0.45202456430E+02 -0.35406133873E+03  0.39926416015E+03  0.12500000000E+03 0.  0.
</event>
<event>
 4    0  0.2259196E-002  0.4089824E+03  0.7546771E-02  0.1040713E+00
         21   -1    0    0  502  501  0.00000000000E+00  0.00000000000E+00  0.86841912878E+03  0.86841912878E+03  0.00000000000E+00 0. -1.
         21   -1    0    0  501  502 -0.00000000000E+00 -0.00000000000E+00 -0.19261049320E+03  0.19261049320E+03  0.00000000000E+00 0.  1.
         25    1    1    2    0    0 -0.37285027960E+03 -0.78711099933E+02  0.23389790435E+03  0.46426931614E+03  0.12500000000E+03 0.  0.
         25    1    1    2    0    0  0.37285027960E+03  0.78711099933E+02  0.44191073123E+03  0.59676030584E+03  0.12500000000E+03 0.  0.
</event>
<event>
 4    0  0.2259196E-002  0.4484775E+03  0.7546771E-02  0.1028177E+00
         21   -1    0    0  502  501  0.00000000000E+00  0.00000000000E+00  0.26655555945E+03  0.26655555945E+03  0.00000000000E+00 0. -1.
         21   -1    0    0  501  502 -0.00000000000E+00 -0.00000000000E+00 -0.75455949573E+03  0.75455949573E+03  0.00000000000E+00 0. -1.
         25    1    1    2    0    0  0.35635557438E+03 -0.22090371517E+03 -0.35623511837E+03  0.56419518460E+03  0.12500000000E+03 0.  0.
         25    1    1    2    0    0 -0.35635557438E+03  0.22090371517E+03 -0.13176881791E+03  0.45691987059E+03  0.12500000000E+03 0.  0.
</event>
<event>
 4    0  0.2259196E-002  0.1419419E+03  0.7546771E-02  0.1210740E+00
         21   -1    0    0  502  501  0.00000000000E+00  0.00000000000E+00  0.97809904132E+02  0.97809904132E+02  0.00000000000E+00 0. -1.
         21   -1    0    0  501  502 -0.00000000000E+00 -0.00000000000E+00 -0.20598636823E+03  0.20598636823E+03  0.00000000000E+00 0. -1.
         25    1    1    2    0    0 -0.19991390930E+02 -0.63156786867E+02 -0.41697127911E+02  0.14748588378E+03  0.12500000000E+03 0.  0.
         25    1    1    2    0    0  0.19991390930E+02  0.63156786867E+02 -0.66479336187E+02  0.15631038858E+03  0.12500000000E+03 0.  0.
</event>
<event>
 4    0  0.2259196E-002  0.1767574E+03  0.7546771E-02  0.1170979E+00
         21   -1    0    0  502  501  0.00000000000E+00  0.00000000000E+00  0.44766435634E+02  0.44766435634E+02  0.00000000000E+00 0.  1.
         21   -1    0    0  501  502 -0.00000000000E+00 -0.00000000000E+00 -0.69791551692E+03  0.69791551692E+03  0.00000000000E+00 0.  1.
         25    1    1    2    0    0  0.95331744551E+02 -0.27048646492E+02 -0.16660032226E+03  0.23065220175E+03  0.12500000000E+03 0.  0.
         25    1    1    2    0    0 -0.95331744551E+02  0.27048646492E+02 -0.48654875903E+03  0.51202975081E+03  0.12500000000E+03 0.  0.
</event>
<event>
 4    0  0.2259196E-002  0.1842707E+03  0.7546771E-02  0.1163733E+00
         21   -1    0    0  502  501  0.00000000000E+00  0.00000000000E+00  0.63157910492E+03  0.63157910492E+03  0.00000000000E+00 0. -1.
         21   -1    0    0  501  502 -0.00000000000E+00 -0.00000000000E+00 -0.53763138248E+02  0.53763138248E+02  0.00000000000E+00 0. -1.
         25    1    1    2    0    0  0.48190213854E+02  0.83414136203E+02  0.11199624578E+03  0.19351582338E+03  0.12500000000E+03 0.  0.
         25    1    1    2    0    0 -0.48190213854E+02 -0.83414136203E+02  0.46581972089E+03  0.49182641978E+03  0.12500000000E+03 0.  0.
</event>
<event>
 4    0  0.2259196E-002  0.2100530E+03  0.7546771E-02  0.1141524E+00
         21   -1    0    0  502  501  0.00000000000E+00  0.00000000000E+00  0.27723452654E+03  0.27723452654E+03  0.00000000000E+00 0. -1.
         21   -1    0    0  501  502 -0.00000000000E+00 -0.00000000000E+00 -0.15915143652E+03  0.15915143652E+03  0.00000000000E+00 0. -1.
         25    1    1    2    0    0 -0.64279169315E+02  0.65092239551E+02 -0.88331186200E+02  0.17831491725E+03  0.12500000000E+03 0.  0.
         25    1    1    2    0    0  0.64279169315E+02 -0.65092239551E+02  0.20641427622E+03  0.25807104581E+03  0.12500000000E+03 0.  0.
</event>
<event>
 4    0  0.2259196E-002  0.2328589E+03  0.7546771E-02  0.1124644E+00
         21   -1    0    0  502  501  0.00000000000E+00  0.00000000000E+00  0.22135640021E+02  0.22135640021E+02  0.00000000000E+00 0.  1.
         21   -1    0    0  501  502 -0.00000000000E+00 -0.00000000000E+00 -0.24495913751E+04  0.24495913751E+04  0.00000000000E+00 0. -1.
         25    1    1    2    0    0 -0.15819835704E+03 -0.11649516756E+03 -0.12172026375E+04  0.12392760407E+04  0.12500000000E+03 0.  0.
         25    1    1    2    0    0  0.15819835704E+03  0.11649516756E+03 -0.12102530975E+04  0.12324509744E+04  0.12500000000E+03 0.  0.
</event>
<event>
 4    0  0.2259196E-002  0.2199392E+03  0.7546771E-02  0.1133928E+00
         21   -1    0    0  502  501  0.00000000000E+00  0.00000000000E+00  0.50414250084E+03  0.50414250084E+03  0.00000000000E+00 0.  1.
         21   -1    0    0  501  502 -0.00000000000E+00 -0.00000000000E+00 -0.95951510282E+02  0.95951510282E+02  0.00000000000E+00 0.  1.
         25    1    1    2    0    0  0.49057327119E+02 -0.45299980949E+02 -0.25360579190E+02  0.14396829024E+03  0.12500000000E+03 0.  0.
         25    1    1    2    0    0 -0.49057327119E+02  0.45299980949E+02  0.43355156975E+03  0.45612572088E+03  0.12500000000E+03 0.  0.
</event>
<event>
 4    0  0.2259196E-002  0.2157670E+03  0.7546771E-02  0.1137079E+00
         21   -1    0    0  502  501  0.00000000000E+00  0.00000000000E+00  0.12857589995E+03  0.12857589995E+03  0.00000000000E+00 0.  1.
         21   -1    0    0  501  502 -0.00000000000E+00 -0.00000000000E+00 -0.36208483800E+03  0.36208483800E+03  0.00000000000E+00 0.  1.
         25    1    1    2    0    0  0.41550413623E+02  0.10612886939E+03 -0.26904922872E+03  0.31780852925E+03  0.12500000000E+03 0.  0.
         25    1    1    2    0    0 -0.41550413623E+02 -0.10612886939E+03  0.35540290668E+02  0.17285220869E+03  0.12500000000E+03 0.  0.
</event>
<event>
 4    0  0.2259196E-002  0.1648808E+03  0.7546771E-02  0.1183294E+00
         21   -1    0    0  502  501  0.00000000000E+00  0.00000000000E+00  0.86583367239E+03  0.86583367239E+03  0.00000000000E+00 0.  1.
         21   -1    0    0  501  502 -0.00000000000E+00 -0.00000000000E+00 -0.31398254993E+02  0.31398254993E+02  0.00000000000E+00 0.  1.
         25    1    1    2    0    0 -0.46026889252E+02 -0.84184981598E+02  0.28517706447E+03  0.32581673340E+03  0.12500000000E+03 0.  0.
         25    1    1    2    0    0  0.46026889252E+02  0.84184981598E+02  0.54925835292E+03  0.57141519398E+03  0.12500000000E+03 0.  0.
</event>
<event>
 4    0  0.2259196E-002  0.2005993E+03  0.7546771E-02  0.1149234E+00
         21   -1    0    0  502  501  0.00000000000E+00  0.00000000000E+00  0.10412047454E+03  0.10412047454E+03  0.00000000000E+00 0.  1.
         21   -1    0    0  501  502 -0.00000000000E+00 -0.00000000000E+00 -0.38647628188E+03  0.38647628188E+03  0.00000000000E+00 0.  1.
         25    1    1    2    0    0 -0.13558260896E+03 -0.51139369000E+02 -0.21472276665E+03  0.28762605138E+03  0.12500000000E+03 0.  0.
         25    1    1    2    0    0  0.13558260896E+03  0.51139369000E+02 -0.67633040691E+02  0.20297070505E+03  0.12500000000E+03 0.  0.
</event>
<event>
 4    0  0.2259196E-002  0.2080415E+03  0.7546771E-02  0.1143126E+00
         21   -1    0    0  502  501  0.00000000000E+00  0.00000000000E+00  0.63413168630E+03  0.63413168630E+03  0.00000000000E+00 0. -1.
         21   -1    0    0  501  502 -0.00000000000E+00 -0.00000000000E+00 -0.68252793438E+02  0.68252793438E+02  0.00000000000E+00 0. -1.
         25    1    1    2    0    0 -0.45973888817E+02 -0.25166264549E+02  0.54936501505E+03  0.56583907526E+03  0.12500000000E+03 0.  0.
         25    1    1    2    0    0  0.45973888817E+02  0.25166264549E+02  0.16513877808E+02  0.13654540448E+03  0.12500000000E+03 0.  0.
</event>
<event>
 4    0  0.2259196E-002  0.2353947E+03  0.7546771E-02  0.1122899E+00
         21   -1    0    0  502  501  0.00000000000E+00  0.00000000000E+00  0.70756093912E+03  0.70756093912E+03  0.00000000000E+00 0. -1.
         21   -1    0    0  501  502 -0.00000000000E+00 -0.00000000000E+00 -0.78312241110E+02  0.78312241110E+02  0.00000000000E+00 0. -1.
         25    1    1    2    0    0 -0.18116952445E+03 -0.35283807573E+02  0.18839490265E+03  0.29186466557E+03  0.12500000000E+03 0.  0.
         25    1    1    2    0    0  0.18116952445E+03  0.35283807573E+02  0.44085379536E+03  0.49400851466E+03  0.12500000000E+03 0.  0.
</event>
<event>
 4    0  0.2259196E-002  0.1584973E+03  0.7546771E-02  0.1190404E+00
         21   -1    0    0  502  501  0.00000000000E+00  0.00000000000E+00  0.17428925413E+04  0.17428925413E+04  0.00000000000E+00 0.  1.
         21   -1    0    0  501  502 -0.00000000000E+00 -0.00000000000E+00 -0.14413621722E+02  0.14413621722E+02  0.00000000000E+00 0.  1.
         25    1    1    2    0    0 -0.48145916915E+01 -0.62828145551E+02  0.12763318838E+04  0.12839854492E+04  0.12500000000E+03 0.  0.
         25    1    1    2    0    0  0.48145916915E+01  0.62828145551E+02  0.45214703583E+03  0.47332071387E+03  0.12500000000E+03 0.  0.
</event>
<event>
 4    0  0.2259196E-002  0.2736561E+03  0.7546771E-02  0.1099205E+00
         21   -1    0    0  502  501  0.00000000000E+00  0.00000000000E+00  0.95687564640E+02  0.95687564640E+02  0.00000000000E+00 0.  1.
         21   -1    0    0  501  502 -0.00000000000E+00 -0.00000000000E+00 -0.78262665058E+03  0.78262665058E+03  0.00000000000E+00 0.  1.
         25    1    1    2    0    0  0.10367193098E+02 -0.20644589610E+03 -0.54982703998E+03  0.60055154700E+03  0.12500000000E+03 0.  0.
         25    1    1    2    0    0 -0.10367193098E+02  0.20644589610E+03 -0.13711204595E+03  0.27776266822E+03  0.12500000000E+03 0.  0.
</event>
<event>
 4    0  0.2259196E-002  0.3575971E+03  0.7546771E-02  0.1059539E+00
         21   -1    0    0  502  501  0.00000000000E+00  0.00000000000E+00  0.91013894461E+03  0.91013894461E+03  0.00000000000E+00 0. -1.
         21   -1    0    0  501  502 -0.00000000000E+00 -0.00000000000E+00 -0.14050127298E+03  0.14050127298E+03  0.00000000000E+00 0. -1.
         25    1    1    2    0    0 -0.19542415898E+03  0.24760238562E+03  0.21892182534E+03  0.40379364641E+03  0.12500000000E+03 0.  0.
         25    1    1    2    0    0  0.19542415898E+03 -0.24760238562E+03  0.55071584630E+03  0.64684657118E+03  0.12500000000E+03 0.  0.
</event>
<event>
 4    0  0.2259196E-002  0.4451982E+03  0.7546771E-02  0.1029164E+00
         21   -1    0    0  502  501  0.00000000000E+00  0.00000000000E+00  0.11562652614E+04  0.11562652614E+04  0.00000000000E+00 0. -1.
         21   -1    0    0  501  502 -0.00000000000E+00 -0.00000000000E+00 -0.17141519654E+03  0.17141519654E+03  0.00000000000E+00 0. -1.
         25    1    1    2    0    0  0.13636528319E+03 -0.26923843628E+03  0.41399835098E+02  0.32927765241E+03  0.12500000000E+03 0.  0.
         25    1    1    2    0    0 -0.13636528319E+03  0.26923843628E+03  0.94345022973E+03  0.99840280549E+03  0.12500000000E+03 0.  0.
</event>
<event>
 4    0  0.2259196E-002  0.2378538E+03  0.7546771E-02  0.1121231E+00
         21   -1    0    0  502  501  0.00000000000E+00  0.00000000000E+00  0.21319327059E+03  0.21319327059E+03  0.00000000000E+00 0.  1.
         21   -1    0    0  501  502 -0.00000000000E+00 -0.00000000000E+00 -0.26536695115E+03  0.26536695115E+03  0.00000000000E+00 0.  1.
         25    1    1    2    0    0  0.17912060992E+03 -0.71185833880E+02 -0.88082935167E+02  0.24603906054E+03  0.12500000000E+03 0.  0.
         25    1    1    2    0    0 -0.17912060992E+03  0.71185833880E+02  0.35909254606E+02  0.23252116121E+03  0.12500000000E+03 0.  0.
</event>
<event>
 4    0  0.2259196E-002  0.2878453E+03  0.7546771E-02  0.1091480E+00
         21   -1    0    0  502  501  0.00000000000E+00  0.00000000000E+00  0.27990394954E+03  0.27990394954E+03  0.00000000000E+00 0. -1.
         21   -1    0    0  501  502 -0.00000000000E+00 -0.00000000000E+00 -0.29601201420E+03  0.29601201420E+03  0.00000000000E+00 0. -1.
         25    1    1    2    0    0  0.12684956167E+03  0.22052140733E+03 -0.58167844216E+02  0.28935963866E+03  0.12500000000E+03 0.  0.
         25    1    1    2    0    0 -0.12684956167E+03 -0.22052140733E+03  0.42059779561E+02  0.28655632508E+03  0.12500000000E+03 0.  0.
</event>
<event>
 4    0  0.2259196E-002  0.2177496E+03  0.7546771E-02  0.1135572E+00
         21   -1    0    0  502  501  0.00000000000E+00  0.00000000000E+00  0.76860507700E+02  0.76860507700E+02  0.00000000000E+00 0.  1.
         21   -1    0    0  501  502 -0.00000000000E+00 -0.00000000000E+00 -0.61689540099E+03  0.61689540099E+03  0.00000000000E+00 0.  1.
         25    1    1    2    0    0  0.15760722428E+03  0.75060320260E+02 -0.21223245467E+03  0.30189684271E+03  0.12500000000E+03 0.  0.
         25    1    1    2    0    0 -0.15760722428E+03 -0.75060320260E+02 -0.32780243862E+03  0.39185906598E+03  0.12500000000E+03 0.  0.
</event>
<event>
 4    0  0.2259196E-002  0.2488568E+03  0.7546771E-02  0.1114029E+00
         21   -1    0    0  502  501  0.00000000000E+00  0.00000000000E+00  0.10344142668E+03  0.10344142668E+03  0.00000000000E+00 0. -1.
         21   -1    0    0  501  502 -0.00000000000E+00 -0.00000000000E+00 -0.59869324964E+03  0.59869324964E+03  0.00000000000E+00 0. -1.
         25    1    1    2    0    0  0.19488500090E+02 -0.88377548739E+02 -0.52303921737E+03  0.54533055633E+03  0.12500000000E+03 0.  0.
         25    1    1    2    0    0 -0.19488500090E+02  0.88377548739E+02  0.27787394413E+02  0.15680411999E+03  0.12500000000E+03 0.  0.
</event>
<event>
 4    0  0.2259196E-002  0.1693908E+03  0.7546771E-02  0.1178485E+00
         21   -1    0    0  502  501  0.00000000000E+00  0.00000000000E+00  0.49792645849E+02  0.49792645849E+02  0.00000000000E+00 0. -1.
         21   -1    0    0  501  502 -0.00000000000E+00 -0.00000000000E+00 -0.57625464243E+03  0.57625464243E+03  0.00000000000E+00 0. -1.
         25    1    1    2    0    0 -0.84682730250E+02 -0.52062191042E+02 -0.15891484568E+03  0.22530105351E+03  0.12500000000E+03 0.  0.
         25    1    1    2    0    0  0.84682730250E+02  0.52062191042E+02 -0.36754715090E+03  0.40074623476E+03  0.12500000000E+03 0.  0.
</event>
<event>
 4    0  0.2259196E-002  0.2410463E+03  0.7546771E-02  0.1119098E+00
         21   -1    0    0  502  501  0.00000000000E+00  0.00000000000E+00  0.12052321830E+04  0.12052321830E+04  0.00000000000E+00 0.  1.
         21   -1    0    0  501  502 -0.00000000000E+00 -0.00000000000E+00 -0.48209236208E+02  0.48209236208E+02  0.00000000000E+00 0.  1.
         25    1    1    2    0    0  0.72558095392E+02  0.68497777228E+01  0.77265709422E+02  0.16403227278E+03  0.12500000000E+03 0.  0.
         25    1    1    2    0    0 -0.72558095392E+02 -0.68497777228E+01  0.10797572374E+04  0.10894091464E+04  0.12500000000E+03 0.  0.
</event>
<event>
 4    0  0.2259196E-002  0.2051476E+03  0.7546771E-02  0.1145467E+00
         21   -1    0    0  502  501  0.00000000000E+00  0.00000000000E+00  0.19649302407E+02  0.19649302407E+02  0.00000000000E+00 0. -1.
         21   -1    0    0  501  502 -0.00000000000E+00 -0.00000000000E+00 -0.21418333887E+04  0.21418333887E+04  0.00000000000E+00 0. -1.
         25    1    1    2    0    0  0.49087742517E+01 -0.74930506615E+02 -0.18212696386E+04  0.18270979102E+04  0.12500000000E+03 0.  0.
         25    1    1    2    0    0 -0.49087742517E+01  0.74930506615E+02 -0.30091444767E+03  0.33438478090E+03  0.12500000000E+03 0.  0.
</event>
<event>
 4    0  0.2259196E-002  0.2067030E+03  0.7546771E-02  0.1144204E+00
         21   -1    0    0  502  501  0.00000000000E+00  0.00000000000E+00  0.31271865288E+03  0.31271865288E+03  0.00000000000E+00 0. -1.
         21   -1    0    0  501  502 -0.00000000000E+00 -0.00000000000E+00 -0.13662799277E+03  0.13662799277E+03  0.00000000000E+00 0. -1.
         25    1    1    2    0    0  0.46347143124E+01  0.10856902692E+03  0.22245877268E+03  0.27734747110E+03  0.12500000000E+03 0.  0.
         25    1    1    2    0    0 -0.46347143124E+01 -0.10856902692E+03 -0.46368112567E+02  0.17199917455E+03  0.12500000000E+03 0.  0.
</event>
<event>
 4    0  0.2259196E-002  0.1971524E+03  0.7546771E-02  0.1152164E+00
         21   -1    0    0  502  501  0.00000000000E+00  0.00000000000E+00  0.11929716729E+04  0.11929716729E+04  0.00000000000E+00 0.  1.
         21   -1    0    0  501  502 -0.00000000000E+00 -0.00000000000E+00 -0.32581722089E+02  0.32581722089E+02  0.00000000000E+00 0.  1.
         25    1    1    2    0    0 -0.87572224149E+02  0.12455309312E+03  0.55577995888E+03  0.58965984274E+03  0.12500000000E+03 0.  0.
         25    1    1    2    0    0  0.87572224149E+02 -0.12455309312E+03  0.60460999196E+03  0.63589355228E+03  0.12500000000E+03 0.  0.
</event>
<event>
 4    0  0.2259196E-002  0.1988765E+03  0.7546771E-02  0.1150690E+00
         21   -1    0    0  502  501  0.00000000000E+00  0.00000000000E+00  0.42924334120E+03  0.42924334120E+03  0.00000000000E+00 0.  1.
         21   -1    0    0  501  502 -0.00000000000E+00 -0.00000000000E+00 -0.92143232490E+02  0.92143232490E+02  0.00000000000E+00 0.  1.
         25    1    1    2    0    0  0.54640062602E+01 -0.13501462883E+03  0.26723790732E+03  0.32449946760E+03  0.12500000000E+03 0.  0.
         25    1    1    2    0    0 -0.54640062602E+01  0.13501462883E+03  0.69862201392E+02  0.19688710609E+03  0.12500000000E+03 0.  0.
</event>
<event>
 4    0  0.2259196E-002  0.1720843E+03  0.7546771E-02  0.1175692E+00
         21   -1    0    0  502  501  0.00000000000E+00  0.00000000000E+00  0.16961975404E+03  0.16961975404E+03  0.00000000000E+00 0. -1.
         21   -1    0    0  501  502 -0.00000000000E+00 -0.00000000000E+00 -0.17458457200E+03  0.17458457200E+03  0.00000000000E+00 0. -1.
         25    1    1    2    0    0 -0.42016510633E+02  0.33506749835E+02 -0.10784944633E+03  0.17362198168E+03  0.12500000000E+03 0.  0.
         25    1    1    2    0    0  0.42016510633E+02 -0.33506749835E+02  0.10288462837E+03  0.17058234435E+03  0.12500000000E+03 0.  0.
</event>
<event>
 4    0  0.2259196E-002  0.2336281E+03  0.7546771E-02  0.1124112E+00
         21   -1    0    0  502  501  0.00000000000E+00  0.00000000000E+00  0.12760815639E+03  0.12760815639E+03  0.00000000000E+00 0. -1.
         21   -1    0    0  501  502 -0.00000000000E+00 -0.00000000000E+00 -0.42773190654E+03  0.42773190654E+03  0.00000000000E+00 0. -1.
         25    1    1    2    0    0  0.12514010985E+03 -0.12063032124E+03 -0.26120760387E+03  0.33773678185E+03  0.12500000000E+03 0.  0.
         25    1    1    2    0    0 -0.12514010985E+03  0.12063032124E+03 -0.38916146284E+02  0.21760328108E+03  0.12500000000E+03 0.  0.
</event>
<event>
 4    0  0.2259196E-002  0.1733443E+03  0.7546771E-02  0.1174404E+00
         21   -1    0    0  502  501  0.00000000000E+00  0.00000000000E+00  0.98975326072E+03  0.98975326072E+03  0.00000000000E+00 0. -1.
         21   -1    0    0  501  502 -0.00000000000E+00 -0.00000000000E+00 -0.30359335133E+02  0.30359335133E+02  0.00000000000E+00 0. -1.
         25    1    1    2    0    0 -0.50413268426E+02  0.10890074748E+03  0.49361709841E+03  0.52314788566E+03  0.12500000000E+03 0.  0.
         25    1    1    2    0    0  0.50413268426E+02 -0.10890074748E+03  0.46577682718E+03  0.49696471019E+03  0.12500000000E+03 0.  0.
</event>
<event>
 4    0  0.2259196E-002  0.1984484E+03  0.7546771E-02  0.1151055E+00
         21   -1    0    0  502  501  0.00000000000E+00  0.00000000000E+00  0.10079572711E+03  0.10079572711E+03  0.00000000000E+00 0.  1.
         21   -1    0    0  501  502 -0.00000000000E+00 -0.00000000000E+00 -0.39070870936E+03  0.39070870936E+03  0.00000000000E+00 0.  1.
         25    1    1    2    0    0  0.96145311461E+02  0.11159322012E+03 -0.20115987266E+03  0.27890367882E+03  0.12500000000E+03 0.  0.
         25    1    1    2    0    0 -0.96145311461E+02 -0.11159322012E+03 -0.88753109590E+02  0.21260075765E+03  0.12500000000E+03 0.  0.
</event>
<event>
 4    0  0.2259196E-002  0.1883072E+03  0.7546771E-02  0.1159997E+00
         21   -1    0    0  502  501  0.00000000000E+00  0.00000000000E+00  0.21768581906E+02  0.21768581906E+02  0.00000000000E+00 0. -1.
         21   -1    0    0  501  502 -0.00000000000E+00 -0.00000000000E+00 -0.16289350145E+04  0.16289350145E+04  0.00000000000E+00 0. -1.
         25    1    1    2    0    0  0.95028801199E+02  0.10311729416E+02 -0.12569183724E+04  0.12667302790E+04  0.12500000000E+03 0.  0.
         25    1    1    2    0    0 -0.95028801199E+02 -0.10311729416E+02 -0.35024806019E+03  0.38397331741E+03  0.12500000000E+03 0.  0.
</event>
<event>
 4    0  0.2259196E-002  0.1837574E+03  0.7546771E-02  0.1164215E+00
         21   -1    0    0  502  501  0.00000000000E+00  0.00000000000E+00  0.51967813675E+03  0.51967813675E+03  0.00000000000E+00 0. -1.
         21   -1    0    0  501  502 -0.00000000000E+00 -0.00000000000E+00 -0.64976364048E+02  0.64976364048E+02  0.00000000000E+00 0. -1.
         25    1    1    2    0    0  0.13819044424E+02  0.90685910047E+02  0.70455019988E+02  0.17030505016E+03  0.12500000000E+03 0.  0.
         25    1    1    2    0    0 -0.13819044424E+02 -0.90685910047E+02  0.38424675271E+03  0.41434945064E+03  0.12500000000E+03 0.  0.
</event>
<event>
 4    0  0.2259196E-002  0.2226049E+03  0.7546771E-02  0.1131956E+00
         21   -1    0    0  502  501  0.00000000000E+00  0.00000000000E+00  0.11804947922E+03  0.11804947922E+03  0.00000000000E+00 0. -1.
         21   -1    0    0  501  502 -0.00000000000E+00 -0.00000000000E+00 -0.41976428212E+03  0.41976428212E+03  0.00000000000E+00 0. -1.
         25    1    1    2    0    0 -0.44558788490E+02  0.10824069594E+03  0.20943982418E+02  0.17252589455E+03  0.12500000000E+03 0.  0.
         25    1    1    2    0    0  0.44558788490E+02 -0.10824069594E+03 -0.32265878531E+03  0.36528786680E+03  0.12500000000E+03 0.  0.
</event>
<event>
 4    0  0.2259196E-002  0.1926798E+03  0.7546771E-02  0.1156066E+00
         21   -1    0    0  502  501  0.00000000000E+00  0.00000000000E+00  0.71150343028E+03  0.71150343028E+03  0.00000000000E+00 0.  1.
         21   -1    0    0  501  502 -0.00000000000E+00 -0.00000000000E+00 -0.52178935489E+02  0.52178935489E+02  0.00000000000E+00 0.  1.
         25    1    1    2    0    0 -0.98096582048E+02 -0.31113274152E+02  0.53665226859E+03  0.56054583454E+03  0.12500000000E+03 0.  0.
         25    1    1    2    0    0  0.98096582048E+02  0.31113274152E+02  0.12267222620E+03  0.20313653123E+03  0.12500000000E+03 0.  0.
</event>
<event>
 4    0  0.2259196E-002  0.1810858E+03  0.7546771E-02  0.1166756E+00
         21   -1    0    0  502  501  0.00000000000E+00  0.00000000000E+00  0.22274278316E+03  0.22274278316E+03  0.00000000000E+00 0. -1.
         21   -1    0    0  501  502 -0.00000000000E+00 -0.00000000000E+00 -0.14721948976E+03  0.14721948976E+03  0.00000000000E+00 0. -1.
         25    1    1    2    0    0 -0.11949261733E+03  0.52616874920E+02  0.48954429816E+02  0.18726600685E+03  0.12500000000E+03 0.  0.
         25    1    1    2    0    0  0.11949261733E+03 -0.52616874920E+02  0.26568863591E+02  0.18269626607E+03  0.12500000000E+03 0.  0.
</event>
<event>
 4    0  0.2259196E-002  0.1428121E+03  0.7546771E-02  0.1209594E+00
         21   -1    0    0  502  501  0.00000000000E+00  0.00000000000E+00  0.25030569414E+03  0.25030569414E+03  0.00000000000E+00 0.  1.
         21   -1    0    0  501  502 -0.00000000000E+00 -0.00000000000E+00 -0.81481530560E+02  0.81481530560E+02  0.00000000000E+00 0.  1.
         25    1    1    2    0    0  0.49071008597E+02  0.41010455116E+02  0.11471393032E+03  0.18131218139E+03  0.12500000000E+03 0.  0.
         25    1    1    2    0    0 -0.49071008597E+02 -0.41010455116E+02  0.54110233263E+02  0.15047504330E+03  0.12500000000E+03 0.  0.
</event>
<event>
 4    0  0.2259196E-002  0.2621630E+03  0.7546771E-02  0.1105851E+00
         21   -1    0    0  502  501  0.00000000000E+00  0.00000000000E+00  0.20899748620E+04  0.20899748620E+04  0.00000000000E+00 0. -1.
         21   -1    0    0  501  502 -0.00000000000E+00 -0.00000000000E+00 -0.32885302981E+02  0.32885302981E+02  0.00000000000E+00 0. -1.
         25    1    1    2    0    0 -0.10622397503E+03  0.20119761239E+03  0.11767775920E+04  0.12050703353E+04  0.12500000000E+03 0.  0.
         25    1    1    2    0    0  0.10622397503E+03 -0.20119761239E+03  0.88031196701E+03  0.91778982962E+03  0.12500000000E+03 0.  0.
</event>
<event>
 4    0  0.2259196E-002  0.1818428E+03  0.7546771E-02  0.1166031E+00
         21   -1    0    0  502  501  0.00000000000E+00  0.00000000000E+00  0.40337151030E+02  0.40337151030E+02  0.00000000000E+00 0.  1.
         21   -1    0    0  501  502 -0.00000000000E+00 -0.00000000000E+00 -0.81976071876E+03  0.81976071876E+03  0.00000000000E+00 0.  1.
         25    1    1    2    0    0  0.83378453676E+00 -0.44756169386E+02 -0.95867490691E+02  0.16376625314E+03  0.12500000000E+03 0.  0.
         25    1    1    2    0    0 -0.83378453676E+00  0.44756169386E+02 -0.68355607704E+03  0.69633161666E+03  0.12500000000E+03 0.  0.
</event>
<event>
 4    0  0.2259196E-002  0.1936920E+03  0.7546771E-02  0.1155173E+00
         21   -1    0    0  502  501  0.00000000000E+00  0.00000000000E+00  0.89351401286E+02  0.89351401286E+02  0.00000000000E+00 0. -1.
         21   -1    0    0  501  502 -0.00000000000E+00 -0.00000000000E+00 -0.41987710401E+03  0.41987710401E+03  0.00000000000E+00 0.  1.
         25    1    1    2    0    0 -0.11606858479E+03  0.60984834670E+02 -0.25538776485E+03  0.31311176419E+03  0.12500000000E+03 0.  0.
         25    1    1    2    0    0  0.11606858479E+03 -0.60984834670E+02 -0.75137937867E+02  0.19611674111E+03  0.12500000000E+03 0.  0.
</event>
<event>
 4    0  0.2259196E-002  0.1623495E+03  0.7546771E-02  0.1186069E+00
         21   -1    0    0  502  501  0.00000000000E+00  0.00000000000E+00  0.65717918067E+02  0.65717918067E+02  0.00000000000E+00 0.  1.
         21   -1    0    0  501  502 -0.00000000000E+00 -0.00000000000E+00 -0.40106814728E+03  0.40106814728E+03  0.00000000000E+00 0.  1.
         25    1    1    2    0    0  0.34041223261E+02  0.31233763188E+02 -0.34373350737E+02  0.13762586997E+03  0.12500000000E+03 0.  0.
         25    1    1    2    0    0 -0.34041223261E+02 -0.31233763188E+02 -0.30097687847E+03  0.32916019538E+03  0.12500000000E+03 0.  0.
</event>
<event>
 4    0  0.2259196E-002  0.2170843E+03  0.7546771E-02  0.1136076E+00
         21   -1    0    0  502  501  0.00000000000E+00  0.00000000000E+00  0.38078815148E+04  0.38078815148E+04  0.00000000000E+00 0. -1.
         21   -1    0    0  501  502 -0.00000000000E+00 -0.00000000000E+00 -0.12375800176E+02  0.12375800176E+02  0.00000000000E+00 0. -1.
         25    1    1    2    0    0 -0.11871005390E+03  0.92079410981E+02  0.10662624990E+04  0.10840255585E+04  0.12500000000E+03 0.  0.
         25    1    1    2    0    0  0.11871005390E+03 -0.92079410981E+02  0.27292432157E+04  0.27362317565E+04  0.12500000000E+03 0.  0.
</event>
<event>
 4    0  0.2259196E-002  0.3224504E+03  0.7546771E-02  0.1074527E+00
         21   -1    0    0  502  501  0.00000000000E+00  0.00000000000E+00  0.39703988690E+02  0.39703988690E+02  0.00000000000E+00 0.  1.
         21   -1    0    0  501  502 -0.00000000000E+00 -0.00000000000E+00 -0.26187351107E+04  0.26187351107E+04  0.00000000000E+00 0.  1.
         25    1    1    2    0    0 -0.20622820646E+02 -0.10762863330E+03 -0.24284794622E+04  0.24341624272E+04  0.12500000000E+03 0.  0.
         25    1    1    2    0    0  0.20622820646E+02  0.10762863330E+03 -0.15055165981E+03  0.22427667223E+03  0.12500000000E+03 0.  0.
</event>
<event>
 4    0  0.2259196E-002  0.2232141E+03  0.7546771E-02  0.1131509E+00
         21   -1    0    0  502  501  0.00000000000E+00  0.00000000000E+00  0.65869228340E+03  0.65869228340E+03  0.00000000000E+00 0.  1.
         21   -1    0    0  501  502 -0.00000000000E+00 -0.00000000000E+00 -0.75641608763E+02  0.75641608763E+02  0.00000000000E+00 0.  1.
         25    1    1    2    0    0 -0.13535316604E+02  0.18337877253E+03  0.25910080331E+03  0.34142232687E+03  0.12500000000E+03 0.  0.
         25    1    1    2    0    0  0.13535316604E+02 -0.18337877253E+03  0.32394987133E+03  0.39291156530E+03  0.12500000000E+03 0.  0.
</event>
<event>
 4    0  0.2259196E-002  0.2981971E+03  0.7546771E-02  0.1086145E+00
         21   -1    0    0  502  501  0.00000000000E+00  0.00000000000E+00  0.45088407742E+03  0.45088407742E+03  0.00000000000E+00 0.  1.
         21   -1    0    0  501  502 -0.00000000000E+00 -0.00000000000E+00 -0.19721588699E+03  0.19721588699E+03  0.00000000000E+00 0.  1.
         25    1    1    2    0    0 -0.21017485939E+03  0.17057032982E+03  0.13266535054E+03  0.32633235232E+03  0.12500000000E+03 0.  0.
         25    1    1    2    0    0  0.21017485939E+03 -0.17057032982E+03  0.12100283989E+03  0.32176761210E+03  0.12500000000E+03 0.  0.
</event>
<event>
 4    0  0.2259196E-002  0.3595227E+03  0.7546771E-02  0.1058773E+00
         21   -1    0    0  502  501  0.00000000000E+00  0.00000000000E+00  0.12489785984E+03  0.12489785984E+03  0.00000000000E+00 0. -1.
         21   -1    0    0  501  502 -0.00000000000E+00 -0.00000000000E+00 -0.10348979877E+04  0.10348979877E+04  0.00000000000E+00 0. -1.
         25    1    1    2    0    0 -0.23517642860E+03 -0.13054093911E+03 -0.12727542664E+03  0.32275830521E+03  0.12500000000E+03 0.  0.
         25    1    1    2    0    0  0.23517642860E+03  0.13054093911E+03 -0.78272470125E+03  0.83703754235E+03  0.12500000000E+03 0.  0.
</event>
<event>
 4    0  0.2259196E-002  0.2409139E+03  0.7546771E-02  0.1119185E+00
         21   -1    0    0  502  501  0.00000000000E+00  0.00000000000E+00  0.12498118850E+03  0.12498118850E+03  0.00000000000E+00 0.  1.
         21   -1    0    0  501  502 -0.00000000000E+00 -0.00000000000E+00 -0.46438611475E+03  0.46438611475E+03  0.00000000000E+00 0.  1.
         25    1    1    2    0    0  0.77374796267E+02  0.14458026838E+03 -0.32210736493E+03  0.38245060811E+03  0.12500000000E+03 0.  0.
         25    1    1    2    0    0 -0.77374796267E+02 -0.14458026838E+03 -0.17297561322E+02  0.20691669514E+03  0.12500000000E+03 0.  0.
</event>
<event>
 4    0  0.2259196E-002  0.2260127E+03  0.7546771E-02  0.1129478E+00
         21   -1    0    0  502  501  0.00000000000E+00  0.00000000000E+00  0.12405530689E+03  0.12405530689E+03  0.00000000000E+00 0. -1.
         21   -1    0    0  501  502 -0.00000000000E+00 -0.00000000000E+00 -0.41176602449E+03  0.41176602449E+03  0.00000000000E+00 0. -1.
         25    1    1    2    0    0 -0.16330764004E+03 -0.92250228485E+02 -0.16359362384E+03  0.27850918066E+03  0.12500000000E+03 0.  0.
         25    1    1    2    0    0  0.16330764004E+03  0.92250228485E+02 -0.12411709376E+03  0.25731215073E+03  0.12500000000E+03 0.  0.
</event>
<event>
 4    0  0.2259196E-002  0.1903559E+03  0.7546771E-02  0.1158141E+00
         21   -1    0    0  502  501  0.00000000000E+00  0.00000000000E+00  0.93729737031E+02  0.93729737031E+02  0.00000000000E+00 0. -1.
         21   -1    0    0  501  502 -0.00000000000E+00 -0.00000000000E+00 -0.38659405053E+03  0.38659405053E+03  0.00000000000E+00 0. -1.
         25    1    1    2    0    0  0.12062517560E+03  0.21924221629E+02 -0.52194193307E+02  0.18270286888E+03  0.12500000000E+03 0.  0.
         25    1    1    2    0    0 -0.12062517560E+03 -0.21924221629E+02 -0.24067012020E+03  0.29762091868E+03  0.12500000000E+03 0.  0.
</event>
<event>
 4    0  0.2259196E-002  0.1778454E+03  0.7546771E-02  0.1169905E+00
         21   -1    0    0  502  501  0.00000000000E+00  0.00000000000E+00  0.56351946689E+03  0.56351946689E+03  0.00000000000E+00 0. -1.
         21   -1    0    0  501  502 -0.00000000000E+00 -0.00000000000E+00 -0.56127580561E+02  0.56127580561E+02  0.00000000000E+00 0. -1.
         25    1    1    2    0    0 -0.95007133699E+02 -0.36329550315E-01  0.10817494772E+03  0.19066508880E+03  0.12500000000E+03 0.  0.
         25    1    1    2    0    0  0.95007133699E+02  0.36329550315E-01  0.39921693861E+03  0.42898195865E+03  0.12500000000E+03 0.  0.
</event>
<event>
 4    0  0.2259196E-002  0.1872239E+03  0.7546771E-02  0.1160989E+00
         21   -1    0    0  502  501  0.00000000000E+00  0.00000000000E+00  0.25357884842E+02  0.25357884842E+02  0.00000000000E+00 0.  1.
         21   -1    0    0  501  502 -0.00000000000E+00 -0.00000000000E+00 -0.13823235340E+04  0.13823235340E+04  0.00000000000E+00 0.  1.
         25    1    1    2    0    0  0.13816450458E+03 -0.18305079763E+02 -0.67165908727E+03  0.69726281687E+03  0.12500000000E+03 0.  0.
         25    1    1    2    0    0 -0.13816450458E+03  0.18305079763E+02 -0.68530656190E+03  0.71041860199E+03  0.12500000000E+03 0.  0.
</event>
<event>
 4    0  0.2259196E-002  0.2234358E+03  0.7546771E-02  0.1131347E+00
         21   -1    0    0  502  501  0.00000000000E+00  0.00000000000E+00  0.30200680184E+03  0.30200680184E+03  0.00000000000E+00 0. -1.
         21   -1    0    0  501  502 -0.00000000000E+00 -0.00000000000E+00 -0.16530604926E+03  0.16530604926E+03  0.00000000000E+00 0. -1.
         25    1    1    2    0    0  0.26936349125E+02 -0.30586971429E+02  0.25727254117E+03  0.28892090642E+03  0.12500000000E+03 0.  0.
         25    1    1    2    0    0 -0.26936349125E+02  0.30586971429E+02 -0.12057178859E+03  0.17839194469E+03  0.12500000000E+03 0.  0.
</event>
<event>
 4    0  0.2259196E-002  0.2582235E+03  0.7546771E-02  0.1108215E+00
         21   -1    0    0  502  501  0.00000000000E+00  0.00000000000E+00  0.32966987380E+03  0.32966987380E+03  0.00000000000E+00 0. -1.
         21   -1    0    0  501  502 -0.00000000000E+00 -0.00000000000E+00 -0.20226099091E+03  0.20226099091E+03  0.00000000000E+00 0. -1.
         25    1    1    2    0    0  0.51196970857E+02  0.11192088527E+03  0.25887697620E+03  0.31271345221E+03  0.12500000000E+03 0.  0.
         25    1    1    2    0    0 -0.51196970857E+02 -0.11192088527E+03 -0.13146809331E+03  0.21921741250E+03  0.12500000000E+03 0.  0.
</event>
<event>
 4    0  0.2259196E-002  0.2569573E+03  0.7546771E-02  0.1108985E+00
         21   -1    0    0  502  501  0.00000000000E+00  0.00000000000E+00  0.61039633339E+03  0.61039633339E+03  0.00000000000E+00 0. -1.
         21   -1    0    0  501  502 -0.00000000000E+00 -0.00000000000E+00 -0.10817081239E+03  0.10817081239E+03  0.00000000000E+00 0. -1.
         25    1    1    2    0    0 -0.18148443406E+02 -0.16744189796E+03  0.45867190526E+03  0.50435213082E+03  0.12500000000E+03 0.  0.
         25    1    1    2    0    0  0.18148443406E+02  0.16744189796E+03  0.43553615741E+02  0.21421501496E+03  0.12500000000E+03 0.  0.
</event>
<event>
 4    0  0.2259196E-002  0.2872325E+03  0.7546771E-02  0.1091803E+00
         21   -1    0    0  502  501  0.00000000000E+00  0.00000000000E+00  0.62299716027E+03  0.62299716027E+03  0.00000000000E+00 0. -1.
         21   -1    0    0  501  502 -0.00000000000E+00 -0.00000000000E+00 -0.13242837272E+03  0.13242837272E+03  0.00000000000E+00 0. -1.
         25    1    1    2    0    0 -0.16591463271E+03  0.59885029166E+02  0.49396896020E+03  0.53920702491E+03  0.12500000000E+03 0.  0.
         25    1    1    2    0    0  0.16591463271E+03 -0.59885029166E+02 -0.34001726483E+01  0.21621850809E+03  0.12500000000E+03 0.  0.
</event>
<event>
 4    0  0.2259196E-002  0.2941701E+03  0.7546771E-02  0.1088192E+00
         21   -1    0    0  502  501  0.00000000000E+00  0.00000000000E+00  0.18988932235E+03  0.18988932235E+03  0.00000000000E+00 0.  1.
         21   -1    0    0  501  502 -0.00000000000E+00 -0.00000000000E+00 -0.45571831829E+03  0.45571831829E+03  0.00000000000E+00 0.  1.
         25    1    1    2    0    0  0.13898488758E+03  0.83279871749E+02  0.98981482594E+02  0.22732063239E+03  0.12500000000E+03 0.  0.
         25    1    1    2    0    0 -0.13898488758E+03 -0.83279871749E+02 -0.36481047854E+03  0.41828700825E+03  0.12500000000E+03 0.  0.
</event>
<event>
 4    0  0.2259196E-002  0.2071227E+03  0.7546771E-02  0.1143865E+00
         21   -1    0    0  502  501  0.00000000000E+00  0.00000000000E+00  0.27284688830E+03  0.27284688830E+03  0.00000000000E+00 0. -1.
         21   -1    0    0  501  502 -0.00000000000E+00 -0.00000000000E+00 -0.15723041602E+03  0.15723041602E+03  0.00000000000E+00 0. -1.
         25    1    1    2    0    0 -0.13935236492E+03  0.12731471279E+02 -0.33257536663E+02  0.19055769655E+03  0.12500000000E+03 0.  0.
         25    1    1    2    0    0  0.13935236492E+03 -0.12731471279E+02  0.14887400894E+03  0.23951960777E+03  0.12500000000E+03 0.  0.
</event>
<event>
 4    0  0.2259196E-002  0.2613322E+03  0.7546771E-02  0.1106345E+00
         21   -1    0    0  502  501  0.00000000000E+00  0.00000000000E+00  0.15110225199E+04  0.15110225199E+04  0.00000000000E+00 0. -1.
         21   -1    0    0  501  502 -0.00000000000E+00 -0.00000000000E+00 -0.45197552306E+02  0.45197552306E+02  0.00000000000E+00 0. -1.
         25    1    1    2    0    0  0.17719164013E+03 -0.40324013783E+02  0.11502543640E+04  0.11712100603E+04  0.12500000000E+03 0.  0.
         25    1    1    2    0    0 -0.17719164013E+03  0.40324013783E+02  0.31557060358E+03  0.38501001190E+03  0.12500000000E+03 0.  0.
</event>
<event>
 4    0  0.2259196E-002  0.2591883E+03  0.7546771E-02  0.1107632E+00
         21   -1    0    0  502  501  0.00000000000E+00  0.00000000000E+00  0.41058479902E+02  0.41058479902E+02  0.00000000000E+00 0. -1.
         21   -1    0    0  501  502 -0.00000000000E+00 -0.00000000000E+00 -0.16361676678E+04  0.16361676678E+04  0.00000000000E+00 0. -1.
         25    1    1    2    0    0  0.21574358249E+03  0.41881814861E+02 -0.61298212933E+03  0.66307727353E+03  0.12500000000E+03 0.  0.
         25    1    1    2    0    0 -0.21574358249E+03 -0.41881814861E+02 -0.98212705855E+03  0.10141488741E+04  0.12500000000E+03 0.  0.
</event>
<event>
 4    0  0.2259196E-002  0.3083077E+03  0.7546771E-02  0.1081160E+00
         21   -1    0    0  502  501  0.00000000000E+00  0.00000000000E+00  0.34160329277E+03  0.34160329277E+03  0.00000000000E+00 0.  1.
         21   -1    0    0  501  502 -0.00000000000E+00 -0.00000000000E+00 -0.27825735087E+03  0.27825735087E+03  0.00000000000E+00 0.  1.
         25    1    1    2    0    0 -0.16698484335E+03  0.16403872544E+03 -0.12611165834E+03  0.29380570403E+03  0.12500000000E+03 0.  0.
         25    1    1    2    0    0  0.16698484335E+03 -0.16403872544E+03  0.18945760023E+03  0.32605493960E+03  0.12500000000E+03 0.  0.
</event>
<event>
 4    0  0.2259196E-002  0.2201920E+03  0.7546771E-02  0.1133740E+00
         21   -1    0    0  502  501  0.00000000000E+00  0.00000000000E+00  0.18858767888E+03  0.18858767888E+03  0.00000000000E+00 0.  1.
         21   -1    0    0  501  502 -0.00000000000E+00 -0.00000000000E+00 -0.25709277690E+03  0.25709277690E+03  0.00000000000E+00 0.  1.
         25    1    1    2    0    0  0.10249710847E+03 -0.14590935718E+03 -0.67269017537E+02  0.22791515631E+03  0.12500000000E+03 0.  0.
         25    1    1    2    0    0 -0.10249710847E+03  0.14590935718E+03 -0.12360804882E+01  0.21776529947E+03  0.12500000000E+03 0.  0.
</event>
<event>
 4    0  0.2259196E-002  0.3862149E+03  0.7546771E-02  0.1048660E+00
         21   -1    0    0  502  501  0.00000000000E+00  0.00000000000E+00  0.10621551277E+04  0.10621551277E+04  0.00000000000E+00 0. -1.
         21   -1    0    0  501  502 -0.00000000000E+00 -0.00000000000E+00 -0.14043329232E+03  0.14043329232E+03  0.00000000000E+00 0.  1.
         25    1    1    2    0    0  0.34049626389E+03 -0.12037664781E+03  0.54766643085E+03  0.66782614694E+03  0.12500000000E+03 0.  0.
         25    1    1    2    0    0 -0.34049626389E+03  0.12037664781E+03  0.37405540456E+03  0.53476227311E+03  0.12500000000E+03 0.  0.
</event>
<event>
 4    0  0.2259196E-002  0.1933275E+03  0.7546771E-02  0.1155494E+00
         21   -1    0    0  502  501  0.00000000000E+00  0.00000000000E+00  0.43676278249E+02  0.43676278249E+02  0.00000000000E+00 0. -1.
         21   -1    0    0  501  502 -0.00000000000E+00 -0.00000000000E+00 -0.85573948424E+03  0.85573948424E+03  0.00000000000E+00 0. -1.
         25    1    1    2    0    0 -0.86446002618E+02  0.56926753931E+02 -0.16165398808E+03  0.22906457287E+03  0.12500000000E+03 0.  0.
         25    1    1    2    0    0  0.86446002618E+02 -0.56926753931E+02 -0.65040921791E+03  0.67035118962E+03  0.12500000000E+03 0.  0.
</event>
<event>
 4    0  0.2259196E-002  0.1867373E+03  0.7546771E-02  0.1161437E+00
         21   -1    0    0  502  501  0.00000000000E+00  0.00000000000E+00  0.93488240370E+02  0.93488240370E+02  0.00000000000E+00 0. -1.
         21   -1    0    0  501  502 -0.00000000000E+00 -0.00000000000E+00 -0.37299703735E+03  0.37299703735E+03  0.00000000000E+00 0. -1.
         25    1    1    2    0    0  0.83998913196E+02 -0.10017770494E+03 -0.81778880249E+02  0.19850484941E+03  0.12500000000E+03 0.  0.
         25    1    1    2    0    0 -0.83998913196E+02  0.10017770494E+03 -0.19772991673E+03  0.26798042831E+03  0.12500000000E+03 0.  0.
</event>
<event>
 4    0  0.2259196E-002  0.2108564E+03  0.7546771E-02  0.1140890E+00
         21   -1    0    0  502  501  0.00000000000E+00  0.00000000000E+00  0.78191281670E+02  0.78191281670E+02  0.00000000000E+00 0. -1.
         21   -1    0    0  501  502 -0.00000000000E+00 -0.00000000000E+00 -0.56861097490E+03  0.56861097490E+03  0.00000000000E+00 0. -1.
         25    1    1    2    0    0  0.53014039138E+02  0.51632747088E+02 -0.47962290150E+03  0.50113826092E+03  0.12500000000E+03 0.  0.
         25    1    1    2    0    0 -0.53014039138E+02 -0.51632747088E+02 -0.10796791735E+02  0.14566399565E+03  0.12500000000E+03 0.  0.
</event>
<event>
 4    0  0.2259196E-002  0.3014390E+03  0.7546771E-02  0.1084523E+00
         21   -1    0    0  502  501  0.00000000000E+00  0.00000000000E+00  0.37868792164E+03  0.37868792164E+03  0.00000000000E+00 0. -1.
         21   -1    0    0  501  502 -0.00000000000E+00 -0.00000000000E+00 -0.23994821597E+03  0.23994821597E+03  0.00000000000E+00 0. -1.
         25    1    1    2    0    0  0.54715783618E+02 -0.26878322244E+03  0.67829426840E+02  0.30897260200E+03  0.12500000000E+03 0.  0.
         25    1    1    2    0    0 -0.54715783618E+02  0.26878322244E+03  0.70910278825E+02  0.30966353561E+03  0.12500000000E+03 0.  0.
</event>
<event>
 4    0  0.2259196E-002  0.3053678E+03  0.7546771E-02  0.1082588E+00
         21   -1    0    0  502  501  0.00000000000E+00  0.00000000000E+00  0.37066675393E+02  0.37066675393E+02  0.00000000000E+00 0. -1.
         21   -1    0    0  501  502 -0.00000000000E+00 -0.00000000000E+00 -0.25157230409E+04  0.25157230409E+04  0.00000000000E+00 0. -1.
         25    1    1    2    0    0  0.12459263619E+03  0.20509213592E+03 -0.18310166718E+04  0.18509006352E+04  0.12500000000E+03 0.  0.
         25    1    1    2    0    0 -0.12459263619E+03 -0.20509213592E+03 -0.64763969377E+03  0.70188908109E+03  0.12500000000E+03 0.  0.
</event>
<event>
 4    0  0.2259196E-002  0.4544532E+03  0.7546771E-02  0.1026402E+00
         21   -1    0    0  502  501  0.00000000000E+00  0.00000000000E+00  0.49068962026E+03  0.49068962026E+03  0.00000000000E+00 0.  1.
         21   -1    0    0  501  502 -0.00000000000E+00 -0.00000000000E+00 -0.42089275863E+03  0.42089275863E+03  0.00000000000E+00 0.  1.
         25    1    1    2    0    0  0.19695341410E+03  0.18296568612E+03  0.38034772709E+03  0.48224110477E+03  0.12500000000E+03 0.  0.
         25    1    1    2    0    0 -0.19695341410E+03 -0.18296568612E+03 -0.31055086546E+03  0.42934127412E+03  0.12500000000E+03 0.  0.
</event>
<event>
 4    0  0.2259196E-002  0.2216044E+03  0.7546771E-02  0.1132693E+00
         21   -1    0    0  502  501  0.00000000000E+00  0.00000000000E+00  0.57639341218E+02  0.57639341218E+02  0.00000000000E+00 0.  1.
         21   -1    0    0  501  502 -0.00000000000E+00 -0.00000000000E+00 -0.85199600600E+03  0.85199600600E+03  0.00000000000E+00 0.  1.
         25    1    1    2    0    0 -0.24458340883E+01  0.18270618027E+03 -0.41728313686E+03  0.47237458306E+03  0.12500000000E+03 0.  0.
         25    1    1    2    0    0  0.24458340883E+01 -0.18270618027E+03 -0.37707352792E+03  0.43726076415E+03  0.12500000000E+03 0.  0.
</event>
<event>
 4    0  0.2259196E-002  0.2206736E+03  0.7546771E-02  0.1133382E+00
         21   -1    0    0  502  501  0.00000000000E+00  0.00000000000E+00  0.17727789981E+03  0.17727789981E+03  0.00000000000E+00 0. -1.
         21   -1    0    0  501  502 -0.00000000000E+00 -0.00000000000E+00 -0.27469204924E+03  0.27469204924E+03  0.00000000000E+00 0. -1.
         25    1    1    2    0    0  0.92719967292E+02  0.72290992375E+02  0.93372487771E+02  0.19536223122E+03  0.12500000000E+03 0.  0.
         25    1    1    2    0    0 -0.92719967292E+02 -0.72290992375E+02 -0.19078663720E+03  0.25660771783E+03  0.12500000000E+03 0.  0.
</event>
<event>
 4    0  0.2259196E-002  0.3174782E+03  0.7546771E-02  0.1076816E+00
         21   -1    0    0  502  501  0.00000000000E+00  0.00000000000E+00  0.65338832588E+03  0.65338832588E+03  0.00000000000E+00 0.  1.
         21   -1    0    0  501  502 -0.00000000000E+00 -0.00000000000E+00 -0.15426113495E+03  0.15426113495E+03  0.00000000000E+00 0.  1.
         25    1    1    2    0    0 -0.26173652729E+02  0.21791951459E+03  0.49157577025E+01  0.25263241995E+03  0.12500000000E+03 0.  0.
         25    1    1    2    0    0  0.26173652729E+02 -0.21791951459E+03  0.49421143323E+03  0.55501704088E+03  0.12500000000E+03 0.  0.
</event>
<event>
 4    0  0.2259196E-002  0.1856458E+03  0.7546771E-02  0.1162448E+00
         21   -1    0    0  502  501  0.00000000000E+00  0.00000000000E+00  0.55077419502E+03  0.55077419502E+03  0.00000000000E+00 0.  1.
         21   -1    0    0  501  502 -0.00000000000E+00 -0.00000000000E+00 -0.62574366560E+02  0.62574366560E+02  0.00000000000E+00 0.  1.
         25    1    1    2    0    0 -0.58663598803E+02 -0.99456841521E+02  0.36668027506E+03  0.40424312643E+03  0.12500000000E+03 0.  0.
         25    1    1    2    0    0  0.58663598803E+02  0.99456841521E+02  0.12151955340E+03  0.20910543515E+03  0.12500000000E+03 0.  0.
</event>
<event>
 4    0  0.2259196E-002  0.2902387E+03  0.7546771E-02  0.1090225E+00
         21   -1    0    0  502  501  0.00000000000E+00  0.00000000000E+00  0.74798502133E+03  0.74798502133E+03  0.00000000000E+00 0.  1.
         21   -1    0    0  501  502 -0.00000000000E+00 -0.00000000000E+00 -0.11262056179E+03  0.11262056179E+03  0.00000000000E+00 0.  1.
         25    1    1    2    0    0 -0.15155274981E+03  0.19623591770E+03  0.44292949632E+03  0.52276984427E+03  0.12500000000E+03 0.  0.
         25    1    1    2    0    0  0.15155274981E+03 -0.19623591770E+03  0.19243496323E+03  0.33783573884E+03  0.12500000000E+03 0.  0.
</event>
<event>
 4    0  0.2259196E-002  0.1944741E+03  0.7546771E-02  0.1154487E+00
         21   -1    0    0  502  501  0.00000000000E+00  0.00000000000E+00  0.16286039519E+04  0.16286039519E+04  0.00000000000E+00 0. -1.
         21   -1    0    0  501  502 -0.00000000000E+00 -0.00000000000E+00 -0.23222460732E+02  0.23222460732E+02  0.00000000000E+00 0. -1.
         25    1    1    2    0    0 -0.32796618695E+02 -0.13903688562E+03  0.98228600565E+03  0.10004587301E+04  0.12500000000E+03 0.  0.
         25    1    1    2    0    0  0.32796618695E+02  0.13903688562E+03  0.62309548553E+03  0.65136768253E+03  0.12500000000E+03 0.  0.
</event>
<event>
 4    0  0.2259196E-002  0.1843446E+03  0.7546771E-02  0.1163663E+00
         21   -1    0    0  502  501  0.00000000000E+00  0.00000000000E+00  0.16470489970E+03  0.16470489970E+03  0.00000000000E+00 0. -1.
         21   -1    0    0  501  502 -0.00000000000E+00 -0.00000000000E+00 -0.20632607288E+03  0.20632607288E+03  0.00000000000E+00 0. -1.
         25    1    1    2    0    0  0.97357152231E+02  0.90540086576E+02 -0.47091456672E+02  0.18846359770E+03  0.12500000000E+03 0.  0.
         25    1    1    2    0    0 -0.97357152231E+02 -0.90540086576E+02  0.54702834852E+01  0.18256737488E+03  0.12500000000E+03 0.  0.
</event>
<event>
 4    0  0.2259196E-002  0.2423471E+03  0.7546771E-02  0.1118239E+00
         21   -1    0    0  502  501  0.00000000000E+00  0.00000000000E+00  0.29185132076E+03  0.29185132076E+03  0.00000000000E+00 0.  1.
         21   -1    0    0  501  502 -0.00000000000E+00 -0.00000000000E+00 -0.20123987154E+03  0.20123987154E+03  0.00000000000E+00 0.  1.
         25    1    1    2    0    0 -0.68885121027E+02  0.28400255529E+01  0.24454004333E+03  0.28315730335E+03  0.12500000000E+03 0.  0.
         25    1    1    2    0    0  0.68885121027E+02 -0.28400255529E+01 -0.15392859412E+03  0.20993388895E+03  0.12500000000E+03 0.  0.
</event>
<event>
 4    0  0.2259196E-002  0.3022768E+03  0.7546771E-02  0.1084108E+00
         21   -1    0    0  502  501  0.00000000000E+00  0.00000000000E+00  0.46632544540E+03  0.46632544540E+03  0.00000000000E+00 0.  1.
         21   -1    0    0  501  502 -0.00000000000E+00 -0.00000000000E+00 -0.19593878589E+03  0.19593878589E+03  0.00000000000E+00 0. -1.
         25    1    1    2    0    0 -0.24124525008E+03 -0.46664050581E+02 -0.61472368672E+00  0.27568493283E+03  0.12500000000E+03 0.  0.
         25    1    1    2    0    0  0.24124525008E+03  0.46664050581E+02  0.27100138320E+03  0.38657929846E+03  0.12500000000E+03 0.  0.
</event>
<event>
 4    0  0.2259196E-002  0.1921086E+03  0.7546771E-02  0.1156573E+00
         21   -1    0    0  502  501  0.00000000000E+00  0.00000000000E+00  0.23332386524E+03  0.23332386524E+03  0.00000000000E+00 0.  1.
         21   -1    0    0  501  502 -0.00000000000E+00 -0.00000000000E+00 -0.15817375416E+03  0.15817375416E+03  0.00000000000E+00 0.  1.
         25    1    1    2    0    0 -0.29441775216E+02  0.11471775025E+03  0.12435773818E+03  0.21240722068E+03  0.12500000000E+03 0.  0.
         25    1    1    2    0    0  0.29441775216E+02 -0.11471775025E+03 -0.49207627094E+02  0.17909039872E+03  0.12500000000E+03 0.  0.
</event>
<event>
 4    0  0.2259196E-002  0.1862653E+03  0.7546771E-02  0.1161874E+00
         21   -1    0    0  502  501  0.00000000000E+00  0.00000000000E+00  0.61516610867E+03  0.61516610867E+03  0.00000000000E+00 0. -1.
         21   -1    0    0  501  502 -0.00000000000E+00 -0.00000000000E+00 -0.56399040188E+02  0.56399040188E+02  0.00000000000E+00 0. -1.
         25    1    1    2    0    0  0.70221291594E+02  0.11111909228E+03  0.20308613581E+03  0.27230031403E+03  0.12500000000E+03 0.  0.
         25    1    1    2    0    0 -0.70221291594E+02 -0.11111909228E+03  0.35568093267E+03  0.39926483483E+03  0.12500000000E+03 0.  0.
</event>
<event>
 4    0  0.2259196E-002  0.2700208E+03  0.7546771E-02  0.1101268E+00
         21   -1    0    0  502  501  0.00000000000E+00  0.00000000000E+00  0.33330998944E+02  0.33330998944E+02  0.00000000000E+00 0. -1.
         21   -1    0    0  501  502 -0.00000000000E+00 -0.00000000000E+00 -0.21874903945E+04  0.21874903945E+04  0.00000000000E+00 0. -1.
         25    1    1    2    0    0 -0.13347985421E+03 -0.87717977646E+02 -0.34403803075E+03  0.39937261009E+03  0.12500000000E+03 0.  0.
         25    1    1    2    0    0  0.13347985421E+03  0.87717977646E+02 -0.18101213648E+04  0.18214487834E+04  0.12500000000E+03 0.  0.
</event>
<event>
 4    0  0.2259196E-002  0.1880543E+03  0.7546771E-02  0.1160228E+00
         21   -1    0    0  502  501  0.00000000000E+00  0.00000000000E+00  0.37136296073E+02  0.37136296073E+02  0.00000000000E+00 0. -1.
         21   -1    0    0  501  502 -0.00000000000E+00 -0.00000000000E+00 -0.95228734416E+03  0.95228734416E+03  0.00000000000E+00 0. -1.
         25    1    1    2    0    0  0.78051490140E+02  0.11528043548E+03 -0.40781376367E+03  0.44868550206E+03  0.12500000000E+03 0.  0.
         25    1    1    2    0    0 -0.78051490140E+02 -0.11528043548E+03 -0.50733728442E+03  0.54073813818E+03  0.12500000000E+03 0.  0.
</event>
<event>
 4    0  0.2259196E-002  0.1774345E+03  0.7546771E-02  0.1170309E+00
         21   -1    0    0  502  501  0.00000000000E+00  0.00000000000E+00  0.29400203178E+03  0.29400203178E+03  0.00000000000E+00 0. -1.
         21   -1    0    0  501  502 -0.00000000000E+00 -0.00000000000E+00 -0.10708433354E+03  0.10708433354E+03  0.00000000000E+00 0. -1.
         25    1    1    2    0    0 -0.75368924171E+02 -0.13970910041E+02 -0.19465131053E+02  0.14791738365E+03  0.12500000000E+03 0.  0.
         25    1    1    2    0    0  0.75368924171E+02  0.13970910041E+02  0.20638282928E+03  0.25316898167E+03  0.12500000000E+03 0.  0.
</event>
<event>
 4    0  0.2259196E-002  0.4285220E+03  0.7546771E-02  0.1034328E+00
         21   -1    0    0  502  501  0.00000000000E+00  0.00000000000E+00  0.14269769823E+04  0.14269769823E+04  0.00000000000E+00 0. -1.
         21   -1    0    0  501  502 -0.00000000000E+00 -0.00000000000E+00 -0.12868542276E+03  0.12868542276E+03  0.00000000000E+00 0. -1.
         25    1    1    2    0    0 -0.87941128206E+02 -0.39887516836E+03  0.58702911513E+03  0.72599120103E+03  0.12500000000E+03 0.  0.
         25    1    1    2    0    0  0.87941128206E+02  0.39887516836E+03  0.71126244441E+03  0.82967120403E+03  0.12500000000E+03 0.  0.
</event>
<event>
 4    0  0.2259196E-002  0.2513354E+03  0.7546771E-02  0.1112464E+00
         21   -1    0    0  502  501  0.00000000000E+00  0.00000000000E+00  0.25169768375E+04  0.25169768375E+04  0.00000000000E+00 0.  1.
         21   -1    0    0  501  502 -0.00000000000E+00 -0.00000000000E+00 -0.25097356035E+02  0.25097356035E+02  0.00000000000E+00 0.  1.
         25    1    1    2    0    0  0.55719952979E+02 -0.11612607823E+03  0.35619297174E+03  0.39885888773E+03  0.12500000000E+03 0.  0.
         25    1    1    2    0    0 -0.55719952979E+02  0.11612607823E+03  0.21356865097E+04  0.21432153058E+04  0.12500000000E+03 0.  0.
</event>
<event>
 4    0  0.2259196E-002  0.1841898E+03  0.7546771E-02  0.1163809E+00
         21   -1    0    0  502  501  0.00000000000E+00  0.00000000000E+00  0.23970321687E+04  0.23970321687E+04  0.00000000000E+00 0. -1.
         21   -1    0    0  501  502 -0.00000000000E+00 -0.00000000000E+00 -0.14153281979E+02  0.14153281979E+02  0.00000000000E+00 0. -1.
         25    1    1    2    0    0 -0.70382136352E+02  0.15392417008E+02  0.19408873179E+04  0.19462423160E+04  0.12500000000E+03 0.  0.
         25    1    1    2    0    0  0.70382136352E+02 -0.15392417008E+02  0.44199156880E+03  0.46494313470E+03  0.12500000000E+03 0.  0.
</event>
<event>
 4    0  0.2259196E-002  0.1513372E+03  0.7546771E-02  0.1198839E+00
         21   -1    0    0  502  501  0.00000000000E+00  0.00000000000E+00  0.29006325188E+02  0.29006325188E+02  0.00000000000E+00 0.  1.
         21   -1    0    0  501  502 -0.00000000000E+00 -0.00000000000E+00 -0.78958493124E+03  0.78958493124E+03  0.00000000000E+00 0.  1.
         25    1    1    2    0    0 -0.35716834084E+02  0.25407921169E+02 -0.57823227718E+03  0.59321060431E+03  0.12500000000E+03 0.  0.
         25    1    1    2    0    0  0.35716834084E+02 -0.25407921169E+02 -0.18234632887E+03  0.22538065211E+03  0.12500000000E+03 0.  0.
</event>
<event>
 4    0  0.2259196E-002  0.2329001E+03  0.7546771E-02  0.1124615E+00
         21   -1    0    0  502  501  0.00000000000E+00  0.00000000000E+00  0.22960948720E+03  0.22960948720E+03  0.00000000000E+00 0. -1.
         21   -1    0    0  501  502 -0.00000000000E+00 -0.00000000000E+00 -0.23623790684E+03  0.23623790684E+03  0.00000000000E+00 0. -1.
         25    1    1    2    0    0 -0.17657871968E+03 -0.16848568506E+01 -0.89546959675E+02  0.23415068006E+03  0.12500000000E+03 0.  0.
         25    1    1    2    0    0  0.17657871968E+03  0.16848568506E+01  0.82918540037E+02  0.23169671398E+03  0.12500000000E+03 0.  0.
</event>
<event>
 4    0  0.2259196E-002  0.2048752E+03  0.7546771E-02  0.1145690E+00
         21   -1    0    0  502  501  0.00000000000E+00  0.00000000000E+00  0.32379184343E+03  0.32379184343E+03  0.00000000000E+00 0.  1.
         21   -1    0    0  501  502 -0.00000000000E+00 -0.00000000000E+00 -0.12963223177E+03  0.12963223177E+03  0.00000000000E+00 0.  1.
         25    1    1    2    0    0 -0.25820422614E+02  0.11958429838E+03  0.21513629214E+03  0.27726471619E+03  0.12500000000E+03 0.  0.
         25    1    1    2    0    0  0.25820422614E+02 -0.11958429838E+03 -0.20976680488E+02  0.17615935901E+03  0.12500000000E+03 0.  0.
</event>
<event>
 4    0  0.2259196E-002  0.1324100E+03  0.7546771E-02  0.1223923E+00
         21   -1    0    0  502  501  0.00000000000E+00  0.00000000000E+00  0.33125375147E+03  0.33125375147E+03  0.00000000000E+00 0. -1.
         21   -1    0    0  501  502 -0.00000000000E+00 -0.00000000000E+00 -0.52927434321E+02  0.52927434321E+02  0.00000000000E+00 0. -1.
         25    1    1    2    0    0 -0.20930137057E+01  0.99377991431E+01  0.20078520426E+03  0.23673368752E+03  0.12500000000E+03 0.  0.
         25    1    1    2    0    0  0.20930137057E+01 -0.99377991431E+01  0.77541112896E+02  0.14744749827E+03  0.12500000000E+03 0.  0.
</event>
<event>
 4    0  0.2259196E-002  0.2847105E+03  0.7546771E-02  0.1093144E+00
         21   -1    0    0  502  501  0.00000000000E+00  0.00000000000E+00  0.50393962928E+02  0.50393962928E+02  0.00000000000E+00 0.  1.
         21   -1    0    0  501  502 -0.00000000000E+00 -0.00000000000E+00 -0.16085269866E+04  0.16085269866E+04  0.00000000000E+00 0.  1.
         25    1    1    2    0    0 -0.24192368767E+03  0.74689148333E+02 -0.67283874912E+03  0.72968659153E+03  0.12500000000E+03 0.  0.
         25    1    1    2    0    0  0.24192368767E+03 -0.74689148333E+02 -0.88529427458E+03  0.92923435803E+03  0.12500000000E+03 0.  0.
</event>
<event>
 4    0  0.2259196E-002  0.2501003E+03  0.7546771E-02  0.1113241E+00
         21   -1    0    0  502  501  0.00000000000E+00  0.00000000000E+00  0.43719050476E+03  0.43719050476E+03  0.00000000000E+00 0.  1.
         21   -1    0    0  501  502 -0.00000000000E+00 -0.00000000000E+00 -0.14307306164E+03  0.14307306164E+03  0.00000000000E+00 0.  1.
         25    1    1    2    0    0 -0.13838841438E+03  0.20336582085E+02  0.33894374327E+03  0.38739229588E+03  0.12500000000E+03 0.  0.
         25    1    1    2    0    0  0.13838841438E+03 -0.20336582085E+02 -0.44826300143E+02  0.19287127052E+03  0.12500000000E+03 0.  0.
</event>
<event>
 4    0  0.2259196E-002  0.1524859E+03  0.7546771E-02  0.1197451E+00
         21   -1    0    0  502  501  0.00000000000E+00  0.00000000000E+00  0.12471069457E+03  0.12471069457E+03  0.00000000000E+00 0.  1.
         21   -1    0    0  501  502 -0.00000000000E+00 -0.00000000000E+00 -0.18644713320E+03  0.18644713320E+03  0.00000000000E+00 0.  1.
         25    1    1    2    0    0 -0.19349562795E+02 -0.51737100441E+02 -0.99885114584E+02  0.16927247047E+03  0.12500000000E+03 0.  0.
         25    1    1    2    0    0  0.19349562795E+02  0.51737100441E+02  0.38148675954E+02  0.14188535731E+03  0.12500000000E+03 0.  0.
</event>
<event>
 4    0  0.2259196E-002  0.2565520E+03  0.7546771E-02  0.1109233E+00
         21   -1    0    0  502  501  0.00000000000E+00  0.00000000000E+00  0.34642007045E+03  0.34642007045E+03  0.00000000000E+00 0. -1.
         21   -1    0    0  501  502 -0.00000000000E+00 -0.00000000000E+00 -0.18999746168E+03  0.18999746168E+03  0.00000000000E+00 0. -1.
         25    1    1    2    0    0 -0.10386020707E+03 -0.11944126783E+03  0.24397402891E+03  0.31654618282E+03  0.12500000000E+03 0.  0.
         25    1    1    2    0    0  0.10386020707E+03  0.11944126783E+03 -0.87551420147E+02  0.21987134930E+03  0.12500000000E+03 0.  0.
</event>
<event>
 4    0  0.2259196E-002  0.2721472E+03  0.7546771E-02  0.1100057E+00
         21   -1    0    0  502  501  0.00000000000E+00  0.00000000000E+00  0.38321641752E+03  0.38321641752E+03  0.00000000000E+00 0.  1.
         21   -1    0    0  501  502 -0.00000000000E+00 -0.00000000000E+00 -0.19326961431E+03  0.19326961431E+03  0.00000000000E+00 0.  1.
         25    1    1    2    0    0  0.12106135829E+03 -0.11472049641E+03  0.28031584224E+03  0.34931163189E+03  0.12500000000E+03 0.  0.
         25    1    1    2    0    0 -0.12106135829E+03  0.11472049641E+03 -0.90369039027E+02  0.22717439993E+03  0.12500000000E+03 0.  0.
</event>
<event>
 4    0  0.2259196E-002  0.2010869E+03  0.7546771E-02  0.1148825E+00
         21   -1    0    0  502  501  0.00000000000E+00  0.00000000000E+00  0.41873832751E+03  0.41873832751E+03  0.00000000000E+00 0.  1.
         21   -1    0    0  501  502 -0.00000000000E+00 -0.00000000000E+00 -0.96566146063E+02  0.96566146063E+02  0.00000000000E+00 0.  1.
         25    1    1    2    0    0  0.19807513277E+02  0.83473308166E+02 -0.81753280673E+01  0.15182874151E+03  0.12500000000E+03 0.  0.
         25    1    1    2    0    0 -0.19807513277E+02 -0.83473308166E+02  0.33034750951E+03  0.36347573206E+03  0.12500000000E+03 0.  0.
</event>
<event>
 4    0  0.2259196E-002  0.1987483E+03  0.7546771E-02  0.1150799E+00
         21   -1    0    0  502  501  0.00000000000E+00  0.00000000000E+00  0.14254500852E+04  0.14254500852E+04  0.00000000000E+00 0. -1.
         21   -1    0    0  501  502 -0.00000000000E+00 -0.00000000000E+00 -0.27711167426E+02  0.27711167426E+02  0.00000000000E+00 0. -1.
         25    1    1    2    0    0 -0.11923565868E+03 -0.90396492434E+02  0.55788615423E+03  0.59097430505E+03  0.12500000000E+03 0.  0.
         25    1    1    2    0    0  0.11923565868E+03  0.90396492434E+02  0.83985276358E+03  0.86218694762E+03  0.12500000000E+03 0.  0.
</event>
<event>
 4    0  0.2259196E-002  0.2413239E+03  0.7546771E-02  0.1118914E+00
         21   -1    0    0  502  501  0.00000000000E+00  0.00000000000E+00  0.91589887402E+03  0.91589887402E+03  0.00000000000E+00 0.  1.
         21   -1    0    0  501  502 -0.00000000000E+00 -0.00000000000E+00 -0.63584786334E+02  0.63584786334E+02  0.00000000000E+00 0.  1.
         25    1    1    2    0    0 -0.15198696156E+03  0.54469413453E+02  0.16511894410E+03  0.26259516216E+03  0.12500000000E+03 0.  0.
         25    1    1    2    0    0  0.15198696156E+03 -0.54469413453E+02  0.68719514358E+03  0.71688849819E+03  0.12500000000E+03 0.  0.
</event>
<event>
 4    0  0.2259196E-002  0.1681971E+03  0.7546771E-02  0.1179741E+00
         21   -1    0    0  502  501  0.00000000000E+00  0.00000000000E+00  0.18229494235E+04  0.18229494235E+04  0.00000000000E+00 0. -1.
         21   -1    0    0  501  502 -0.00000000000E+00 -0.00000000000E+00 -0.15518952598E+02  0.15518952598E+02  0.00000000000E+00 0. -1.
         25    1    1    2    0    0  0.98601968701E+02 -0.54210654961E+02  0.91481158295E+03  0.93014320168E+03  0.12500000000E+03 0.  0.
         25    1    1    2    0    0 -0.98601968701E+02  0.54210654961E+02  0.89261888795E+03  0.90832517441E+03  0.12500000000E+03 0.  0.
</event>
<event>
 4    0  0.2259196E-002  0.2960020E+03  0.7546771E-02  0.1087256E+00
         21   -1    0    0  502  501  0.00000000000E+00  0.00000000000E+00  0.77743625122E+03  0.77743625122E+03  0.00000000000E+00 0. -1.
         21   -1    0    0  501  502 -0.00000000000E+00 -0.00000000000E+00 -0.11270013620E+03  0.11270013620E+03  0.00000000000E+00 0. -1.
         25    1    1    2    0    0 -0.10955810016E+03 -0.50688079445E+02 -0.27931068550E+02  0.17600398660E+03  0.12500000000E+03 0.  0.
         25    1    1    2    0    0  0.10955810016E+03  0.50688079445E+02  0.69266718357E+03  0.71413240082E+03  0.12500000000E+03 0.  0.
</event>
<event>
 4    0  0.2259196E-002  0.2480752E+03  0.7546771E-02  0.1114527E+00
         21   -1    0    0  502  501  0.00000000000E+00  0.00000000000E+00  0.68440432238E+03  0.68440432238E+03  0.00000000000E+00 0.  1.
         21   -1    0    0  501  502 -0.00000000000E+00 -0.00000000000E+00 -0.89919491775E+02  0.89919491775E+02  0.00000000000E+00 0.  1.
         25    1    1    2    0    0  0.15590767103E+03  0.49138348788E+02  0.51346339834E+03  0.55316493078E+03  0.12500000000E+03 0.  0.
         25    1    1    2    0    0 -0.15590767103E+03 -0.49138348788E+02  0.81021432261E+02  0.22115888337E+03  0.12500000000E+03 0.  0.
</event>
<event>
 4    0  0.2259196E-002  0.2849487E+03  0.7546771E-02  0.1093016E+00
         21   -1    0    0  502  501  0.00000000000E+00  0.00000000000E+00  0.11925782330E+03  0.11925782330E+03  0.00000000000E+00 0.  1.
         21   -1    0    0  501  502 -0.00000000000E+00 -0.00000000000E+00 -0.68084234335E+03  0.68084234335E+03  0.00000000000E+00 0.  1.
         25    1    1    2    0    0 -0.38511064091E+02 -0.31851032842E+02 -0.63338229178E+03  0.64753047642E+03  0.12500000000E+03 0.  0.
         25    1    1    2    0    0  0.38511064091E+02  0.31851032842E+02  0.71797771732E+02  0.15256969023E+03  0.12500000000E+03 0.  0.
</event>
<event>
 4    0  0.2259196E-002  0.1353144E+03  0.7546771E-02  0.1219777E+00
         21   -1    0    0  502  501  0.00000000000E+00  0.00000000000E+00  0.14232686775E+03  0.14232686775E+03  0.00000000000E+00 0.  1.
         21   -1    0    0  501  502 -0.00000000000E+00 -0.00000000000E+00 -0.12864734762E+03  0.12864734762E+03  0.00000000000E+00 0.  1.
         25    1    1    2    0    0  0.33305398699E+02 -0.58650652136E+01 -0.32470080593E+02  0.13350263932E+03  0.12500000000E+03 0.  0.
         25    1    1    2    0    0 -0.33305398699E+02  0.58650652136E+01  0.46149600726E+02  0.13747157604E+03  0.12500000000E+03 0.  0.
</event>
<event>
 4    0  0.2259196E-002  0.2230633E+03  0.7546771E-02  0.1131620E+00
         21   -1    0    0  502  501  0.00000000000E+00  0.00000000000E+00  0.17008871982E+04  0.17008871982E+04  0.00000000000E+00 0.  1.
         21   -1    0    0  501  502 -0.00000000000E+00 -0.00000000000E+00 -0.29253690051E+02  0.29253690051E+02  0.00000000000E+00 0.  1.
         25    1    1    2    0    0  0.27301751477E+02  0.13693875492E+03  0.36666418854E+03  0.41178299551E+03  0.12500000000E+03 0.  0.
         25    1    1    2    0    0 -0.27301751477E+02 -0.13693875492E+03  0.13049693197E+04  0.13183578928E+04  0.12500000000E+03 0.  0.
</event>
<event>
 4    0  0.2259196E-002  0.2041131E+03  0.7546771E-02  0.1146314E+00
         21   -1    0    0  502  501  0.00000000000E+00  0.00000000000E+00  0.31014220286E+03  0.31014220286E+03  0.00000000000E+00 0.  1.
         21   -1    0    0  501  502 -0.00000000000E+00 -0.00000000000E+00 -0.13433242895E+03  0.13433242895E+03  0.00000000000E+00 0.  1.
         25    1    1    2    0    0 -0.85200417375E+01  0.14344844830E+03  0.16781907965E+03  0.25384698526E+03  0.12500000000E+03 0.  0.
         25    1    1    2    0    0  0.85200417375E+01 -0.14344844830E+03  0.79906942606E+01  0.19062764654E+03  0.12500000000E+03 0.  0.
</event>
<event>
 4    0  0.2259196E-002  0.2045574E+03  0.7546771E-02  0.1145950E+00
         21   -1    0    0  502  501  0.00000000000E+00  0.00000000000E+00  0.34100776913E+03  0.34100776913E+03  0.00000000000E+00 0. -1.
         21   -1    0    0  501  502 -0.00000000000E+00 -0.00000000000E+00 -0.12270610315E+03  0.12270610315E+03  0.00000000000E+00 0. -1.
         25    1    1    2    0    0 -0.60061999899E+02 -0.14090845861E+03  0.16865564935E+03  0.25986990129E+03  0.12500000000E+03 0.  0.
         25    1    1    2    0    0  0.60061999899E+02  0.14090845861E+03  0.49646016625E+02  0.20384397099E+03  0.12500000000E+03 0.  0.
</event>
<event>
 4    0  0.2259196E-002  0.2418997E+03  0.7546771E-02  0.1118534E+00
         21   -1    0    0  502  501  0.00000000000E+00  0.00000000000E+00  0.40925314852E+02  0.40925314852E+02  0.00000000000E+00 0. -1.
         21   -1    0    0  501  502 -0.00000000000E+00 -0.00000000000E+00 -0.14298112001E+04  0.14298112001E+04  0.00000000000E+00 0. -1.
         25    1    1    2    0    0 -0.13411385911E+03 -0.14886885515E+03 -0.85362864509E+03  0.88569482722E+03  0.12500000000E+03 0.  0.
         25    1    1    2    0    0  0.13411385911E+03  0.14886885515E+03 -0.53525724011E+03  0.58504168769E+03  0.12500000000E+03 0.  0.
</event>
<event>
 4    0  0.2259196E-002  0.1641431E+03  0.7546771E-02  0.1184097E+00
         21   -1    0    0  502  501  0.00000000000E+00  0.00000000000E+00  0.12373402750E+03  0.12373402750E+03  0.00000000000E+00 0.  1.
         21   -1    0    0  501  502 -0.00000000000E+00 -0.00000000000E+00 -0.21774904304E+03  0.21774904304E+03  0.00000000000E+00 0.  1.
         25    1    1    2    0    0  0.87705045743E+02  0.36554363947E+02  0.27654438925E+01  0.15703835281E+03  0.12500000000E+03 0.  0.
         25    1    1    2    0    0 -0.87705045743E+02 -0.36554363947E+02 -0.96780459434E+02  0.18444471774E+03  0.12500000000E+03 0.  0.
</event>
<event>
 4    0  0.2259196E-002  0.1832087E+03  0.7546771E-02  0.1164733E+00
         21   -1    0    0  502  501  0.00000000000E+00  0.00000000000E+00  0.47993184678E+03  0.47993184678E+03  0.00000000000E+00 0.  1.
         21   -1    0    0  501  502 -0.00000000000E+00 -0.00000000000E+00 -0.69937940462E+02  0.69937940462E+02  0.00000000000E+00 0.  1.
         25    1    1    2    0    0  0.42884424826E+02 -0.71324944060E+02  0.36248899980E+03  0.39236411216E+03  0.12500000000E+03 0.  0.
         25    1    1    2    0    0 -0.42884424826E+02  0.71324944060E+02  0.47504906515E+02  0.15750567508E+03  0.12500000000E+03 0.  0.
</event>
<event>
 4    0  0.2259196E-002  0.1952575E+03  0.7546771E-02  0.1153803E+00
         21   -1    0    0  502  501  0.00000000000E+00  0.00000000000E+00  0.48336581490E+02  0.48336581490E+02  0.00000000000E+00 0.  1.
         21   -1    0    0  501  502 -0.00000000000E+00 -0.00000000000E+00 -0.78874993810E+03  0.78874993810E+03  0.00000000000E+00 0.  1.
         25    1    1    2    0    0  0.92288049467E+02  0.10998018065E+03 -0.27707335009E+03  0.33616568168E+03  0.12500000000E+03 0.  0.
         25    1    1    2    0    0 -0.92288049467E+02 -0.10998018065E+03 -0.46334000652E+03  0.50092083791E+03  0.12500000000E+03 0.  0.
</event>
<event>
 4    0  0.2259196E-002  0.2133724E+03  0.7546771E-02  0.1138923E+00
         21   -1    0    0  502  501  0.00000000000E+00  0.00000000000E+00  0.13867819325E+03  0.13867819325E+03  0.00000000000E+00 0. -1.
         21   -1    0    0  501  502 -0.00000000000E+00 -0.00000000000E+00 -0.32829797630E+03  0.32829797630E+03  0.00000000000E+00 0. -1.
         25    1    1    2    0    0 -0.11019455019E+03  0.10518800114E+03 -0.52702592428E+01  0.19712972913E+03  0.12500000000E+03 0.  0.
         25    1    1    2    0    0  0.11019455019E+03 -0.10518800114E+03 -0.18434952381E+03  0.26984644041E+03  0.12500000000E+03 0.  0.
</event>
<event>
 4    0  0.2259196E-002  0.2719860E+03  0.7546771E-02  0.1100148E+00
         21   -1    0    0  502  501  0.00000000000E+00  0.00000000000E+00  0.45362612816E+03  0.45362612816E+03  0.00000000000E+00 0. -1.
         21   -1    0    0  501  502 -0.00000000000E+00 -0.00000000000E+00 -0.16307782944E+03  0.16307782944E+03  0.00000000000E+00 0.  1.
         25    1    1    2    0    0 -0.18837718954E+03 -0.12938898040E+03  0.23399260204E+03  0.35014998443E+03  0.12500000000E+03 0.  0.
         25    1    1    2    0    0  0.18837718954E+03  0.12938898040E+03  0.56555696686E+02  0.26655397318E+03  0.12500000000E+03 0.  0.
</event>
<event>
 4    0  0.2259196E-002  0.2558167E+03  0.7546771E-02  0.1109683E+00
         21   -1    0    0  502  501  0.00000000000E+00  0.00000000000E+00  0.96939907471E+03  0.96939907471E+03  0.00000000000E+00 0.  1.
         21   -1    0    0  501  502 -0.00000000000E+00 -0.00000000000E+00 -0.67508000595E+02  0.67508000595E+02  0.00000000000E+00 0.  1.
         25    1    1    2    0    0 -0.11530635253E+03 -0.92261480919E+02  0.11176316912E+03  0.22343621409E+03  0.12500000000E+03 0.  0.
         25    1    1    2    0    0  0.11530635253E+03  0.92261480919E+02  0.79012790499E+03  0.81347086121E+03  0.12500000000E+03 0.  0.
</event>
<event>
 4    0  0.2259196E-002  0.2234885E+03  0.7546771E-02  0.1131309E+00
         21   -1    0    0  502  501  0.00000000000E+00  0.00000000000E+00  0.17690811456E+03  0.17690811456E+03  0.00000000000E+00 0. -1.
         21   -1    0    0  501  502 -0.00000000000E+00 -0.00000000000E+00 -0.28233368397E+03  0.28233368397E+03  0.00000000000E+00 0. -1.
         25    1    1    2    0    0  0.10638772438E+03 -0.14961803483E+03 -0.27166595729E+02  0.22375640364E+03  0.12500000000E+03 0.  0.
         25    1    1    2    0    0 -0.10638772438E+03  0.14961803483E+03 -0.78258973683E+02  0.23548539489E+03  0.12500000000E+03 0.  0.
</event>
<event>
 4    0  0.2259196E-002  0.1760974E+03  0.7546771E-02  0.1171634E+00
         21   -1    0    0  502  501  0.00000000000E+00  0.00000000000E+00  0.18292259751E+02  0.18292259751E+02  0.00000000000E+00 0.  1.
         21   -1    0    0  501  502 -0.00000000000E+00 -0.00000000000E+00 -0.16952688751E+04  0.16952688751E+04  0.00000000000E+00 0.  1.
         25    1    1    2    0    0  0.11454556203E+03  0.84261461601E+01 -0.61061333559E+03  0.63377072457E+03  0.12500000000E+03 0.  0.
         25    1    1    2    0    0 -0.11454556203E+03 -0.84261461601E+01 -0.10663632798E+04  0.10797904103E+04  0.12500000000E+03 0.  0.
</event>
<event>
 4    0  0.2259196E-002  0.2034347E+03  0.7546771E-02  0.1146873E+00
         21   -1    0    0  502  501  0.00000000000E+00  0.00000000000E+00  0.36242683276E+03  0.36242683276E+03  0.00000000000E+00 0.  1.
         21   -1    0    0  501  502 -0.00000000000E+00 -0.00000000000E+00 -0.11419048262E+03  0.11419048262E+03  0.00000000000E+00 0.  1.
         25    1    1    2    0    0  0.26932718347E+02  0.60870808728E+02 -0.46966384894E+02  0.14920277472E+03  0.12500000000E+03 0.  0.
         25    1    1    2    0    0 -0.26932718347E+02 -0.60870808728E+02  0.29520273503E+03  0.32741454067E+03  0.12500000000E+03 0.  0.
</event>
<event>
 4    0  0.2259196E-002  0.3662147E+03  0.7546771E-02  0.1056150E+00
         21   -1    0    0  502  501  0.00000000000E+00  0.00000000000E+00  0.35465850912E+03  0.35465850912E+03  0.00000000000E+00 0.  1.
         21   -1    0    0  501  502 -0.00000000000E+00 -0.00000000000E+00 -0.37814746127E+03  0.37814746127E+03  0.00000000000E+00 0.  1.
         25    1    1    2    0    0 -0.26520516732E+03 -0.93391464462E+02 -0.21042266794E+03  0.37277130468E+03  0.12500000000E+03 0.  0.
         25    1    1    2    0    0  0.26520516732E+03  0.93391464462E+02  0.18693371580E+03  0.36003466571E+03  0.12500000000E+03 0.  0.
</event>
<event>
 4    0  0.2259196E-002  0.1817124E+03  0.7546771E-02  0.1166156E+00
         21   -1    0    0  502  501  0.00000000000E+00  0.00000000000E+00  0.29893260244E+03  0.29893260244E+03  0.00000000000E+00 0. -1.
         21   -1    0    0  501  502 -0.00000000000E+00 -0.00000000000E+00 -0.11045764867E+03  0.11045764867E+03  0.00000000000E+00 0. -1.
         25    1    1    2    0    0  0.92010089328E+01  0.27125068246E+02  0.23926023625E+03  0.27146065745E+03  0.12500000000E+03 0.  0.
         25    1    1    2    0    0 -0.92010089328E+01 -0.27125068246E+02 -0.50785282469E+02  0.13792959366E+03  0.12500000000E+03 0.  0.
</event>
<event>
 4    0  0.2259196E-002  0.1626656E+03  0.7546771E-02  0.1185720E+00
         21   -1    0    0  502  501  0.00000000000E+00  0.00000000000E+00  0.26350579234E+03  0.26350579234E+03  0.00000000000E+00 0.  1.
         21   -1    0    0  501  502 -0.00000000000E+00 -0.00000000000E+00 -0.10041559727E+03  0.10041559727E+03  0.00000000000E+00 0.  1.
         25    1    1    2    0    0 -0.54317808182E+02  0.60945016375E+02  0.15378369821E+03  0.21433419033E+03  0.12500000000E+03 0.  0.
         25    1    1    2    0    0  0.54317808182E+02 -0.60945016375E+02  0.93064968583E+01  0.14958719929E+03  0.12500000000E+03 0.  0.
</event>
<event>
 4    0  0.2259196E-002  0.2013950E+03  0.7546771E-02  0.1148567E+00
         21   -1    0    0  502  501  0.00000000000E+00  0.00000000000E+00  0.59935481643E+03  0.59935481643E+03  0.00000000000E+00 0. -1.
         21   -1    0    0  501  502 -0.00000000000E+00 -0.00000000000E+00 -0.67672667708E+02  0.67672667708E+02  0.00000000000E+00 0. -1.
         25    1    1    2    0    0  0.63186893414E+01  0.12736187125E+03  0.42007289095E+03  0.45645066085E+03  0.12500000000E+03 0.  0.
         25    1    1    2    0    0 -0.63186893414E+01 -0.12736187125E+03  0.11160925777E+03  0.21057682328E+03  0.12500000000E+03 0.  0.
</event>
<event>
 4    0  0.2259196E-002  0.2290887E+03  0.7546771E-02  0.1127283E+00
         21   -1    0    0  502  501  0.00000000000E+00  0.00000000000E+00  0.84044487101E+02  0.84044487101E+02  0.00000000000E+00 0.  1.
         21   -1    0    0  501  502 -0.00000000000E+00 -0.00000000000E+00 -0.62445039875E+03  0.62445039875E+03  0.00000000000E+00 0.  1.
         25    1    1    2    0    0  0.79541311024E+02 -0.80255092818E+02 -0.51020323119E+03  0.53730813990E+03  0.12500000000E+03 0.  0.
         25    1    1    2    0    0 -0.79541311024E+02  0.80255092818E+02 -0.30202680456E+02  0.17118674595E+03  0.12500000000E+03 0.  0.
</event>
<event>
 4    0  0.2259196E-002  0.4270160E+03  0.7546771E-02  0.1034807E+00
         21   -1    0    0  502  501  0.00000000000E+00  0.00000000000E+00  0.38687097012E+03  0.38687097012E+03  0.00000000000E+00 0.  1.
         21   -1    0    0  501  502 -0.00000000000E+00 -0.00000000000E+00 -0.47132674719E+03  0.47132674719E+03  0.00000000000E+00 0.  1.
         25    1    1    2    0    0  0.18393311696E+03 -0.22335297828E+03 -0.33172983239E+03  0.45758892701E+03  0.12500000000E+03 0.  0.
         25    1    1    2    0    0 -0.18393311696E+03  0.22335297828E+03  0.24727405533E+03  0.40060879029E+03  0.12500000000E+03 0.  0.
</event>
<event>
 4    0  0.2259196E-002  0.1929142E+03  0.7546771E-02  0.1155859E+00
         21   -1    0    0  502  501  0.00000000000E+00  0.00000000000E+00  0.25712182701E+03  0.25712182701E+03  0.00000000000E+00 0.  1.
         21   -1    0    0  501  502 -0.00000000000E+00 -0.00000000000E+00 -0.14474034906E+03  0.14474034906E+03  0.00000000000E+00 0.  1.
         25    1    1    2    0    0  0.14100548102E+03  0.36068095403E+02  0.35166517950E+02  0.19505162693E+03  0.12500000000E+03 0.  0.
         25    1    1    2    0    0 -0.14100548102E+03 -0.36068095403E+02  0.77214959996E+02  0.20681054913E+03  0.12500000000E+03 0.  0.
</event>
<event>
 4    0  0.2259196E-002  0.5603738E+03  0.7546771E-02  0.9991209E-01
         21   -1    0    0  502  501  0.00000000000E+00  0.00000000000E+00  0.14068813425E+03  0.14068813425E+03  0.00000000000E+00 0. -1.
         21   -1    0    0  501  502 -0.00000000000E+00 -0.00000000000E+00 -0.22320201298E+04  0.22320201298E+04  0.00000000000E+00 0. -1.
         25    1    1    2    0    0  0.27828424767E+02  0.33789297860E+02  0.10707704281E+03  0.17031333175E+03  0.12500000000E+03 0.  0.
         25    1    1    2    0    0 -0.27828424767E+02 -0.33789297860E+02 -0.21984090384E+04  0.22023949323E+04  0.12500000000E+03 0.  0.
</event>
<event>
 4    0  0.2259196E-002  0.2533747E+03  0.7546771E-02  0.1111190E+00
         21   -1    0    0  502  501  0.00000000000E+00  0.00000000000E+00  0.62501650286E+03  0.62501650286E+03  0.00000000000E+00 0.  1.
         21   -1    0    0  501  502 -0.00000000000E+00 -0.00000000000E+00 -0.10271526024E+03  0.10271526024E+03  0.00000000000E+00 0.  1.
         25    1    1    2    0    0 -0.11333089946E+03  0.16116339747E+03  0.11930418182E+03  0.26206110214E+03  0.12500000000E+03 0.  0.
         25    1    1    2    0    0  0.11333089946E+03 -0.16116339747E+03  0.40299706080E+03  0.46567066095E+03  0.12500000000E+03 0.  0.
</event>
<event>
 4    0  0.2259196E-002  0.2018687E+03  0.7546771E-02  0.1148172E+00
         21   -1    0    0  502  501  0.00000000000E+00  0.00000000000E+00  0.35691774163E+03  0.35691774163E+03  0.00000000000E+00 0. -1.
         21   -1    0    0  501  502 -0.00000000000E+00 -0.00000000000E+00 -0.11417472441E+03  0.11417472441E+03  0.00000000000E+00 0. -1.
         25    1    1    2    0    0  0.67968393805E+01  0.13568855596E+03  0.26087933047E+02  0.18644881736E+03  0.12500000000E+03 0.  0.
         25    1    1    2    0    0 -0.67968393805E+01 -0.13568855596E+03  0.21665508417E+03  0.28464364869E+03  0.12500000000E+03 0.  0.
</event>
<event>
 4    0  0.2259196E-002  0.2005092E+03  0.7546771E-02  0.1149310E+00
         21   -1    0    0  502  501  0.00000000000E+00  0.00000000000E+00  0.55919434005E+02  0.55919434005E+02  0.00000000000E+00 0. -1.
         21   -1    0    0  501  502 -0.00000000000E+00 -0.00000000000E+00 -0.71896176858E+03  0.71896176858E+03  0.00000000000E+00 0. -1.
         25    1    1    2    0    0 -0.68173142023E+02 -0.87584662488E+02 -0.11756681423E+03  0.20436635292E+03  0.12500000000E+03 0.  0.
         25    1    1    2    0    0  0.68173142023E+02  0.87584662488E+02 -0.54547552034E+03  0.57051484966E+03  0.12500000000E+03 0.  0.
</event>
<event>
 4    0  0.2259196E-002  0.3065326E+03  0.7546771E-02  0.1082020E+00
         21   -1    0    0  502  501  0.00000000000E+00  0.00000000000E+00  0.48196773268E+03  0.48196773268E+03  0.00000000000E+00 0.  1.
         21   -1    0    0  501  502 -0.00000000000E+00 -0.00000000000E+00 -0.19495542135E+03  0.19495542135E+03  0.00000000000E+00 0.  1.
         25    1    1    2    0    0 -0.24301358774E+03 -0.13831544223E+03  0.12996240482E+03  0.33271908880E+03  0.12500000000E+03 0.  0.
         25    1    1    2    0    0  0.24301358774E+03  0.13831544223E+03  0.15704990651E+03  0.34420406523E+03  0.12500000000E+03 0.  0.
</event>
<event>
 4    0  0.2259196E-002  0.2055628E+03  0.7546771E-02  0.1145129E+00
         21   -1    0    0  502  501  0.00000000000E+00  0.00000000000E+00  0.11241546922E+03  0.11241546922E+03  0.00000000000E+00 0.  1.
         21   -1    0    0  501  502 -0.00000000000E+00 -0.00000000000E+00 -0.37589193572E+03  0.37589193572E+03  0.00000000000E+00 0.  1.
         25    1    1    2    0    0  0.10304408135E+03  0.12418144437E+03 -0.10284055606E+03  0.22856135675E+03  0.12500000000E+03 0.  0.
         25    1    1    2    0    0 -0.10304408135E+03 -0.12418144437E+03 -0.16063591044E+03  0.25974604819E+03  0.12500000000E+03 0.  0.
</event>
<event>
 4    0  0.2259196E-002  0.2609419E+03  0.7546771E-02  0.1106579E+00
         21   -1    0    0  502  501  0.00000000000E+00  0.00000000000E+00  0.46148001020E+03  0.46148001020E+03  0.00000000000E+00 0. -1.
         21   -1    0    0  501  502 -0.00000000000E+00 -0.00000000000E+00 -0.14754851337E+03  0.14754851337E+03  0.00000000000E+00 0. -1.
         25    1    1    2    0    0 -0.10922285978E+02  0.22878709113E+03  0.15893931080E+03  0.30553155961E+03  0.12500000000E+03 0.  0.
         25    1    1    2    0    0  0.10922285978E+02 -0.22878709113E+03  0.15499218602E+03  0.30349696395E+03  0.12500000000E+03 0.  0.
</event>
<event>
 4    0  0.2259196E-002  0.1899142E+03  0.7546771E-02  0.1158539E+00
         21   -1    0    0  502  501  0.00000000000E+00  0.00000000000E+00  0.16207591987E+03  0.16207591987E+03  0.00000000000E+00 0.  1.
         21   -1    0    0  501  502 -0.00000000000E+00 -0.00000000000E+00 -0.22253391609E+03  0.22253391609E+03  0.00000000000E+00 0.  1.
         25    1    1    2    0    0 -0.82811431909E+01 -0.74429419900E+02 -0.15355744095E+03  0.21169129304E+03  0.12500000000E+03 0.  0.
         25    1    1    2    0    0  0.82811431909E+01  0.74429419900E+02  0.93099444724E+02  0.17291854292E+03  0.12500000000E+03 0.  0.
</event>
<event>
 4    0  0.2259196E-002  0.1821488E+03  0.7546771E-02  0.1165740E+00
         21   -1    0    0  502  501  0.00000000000E+00  0.00000000000E+00  0.82906068745E+02  0.82906068745E+02  0.00000000000E+00 0.  1.
         21   -1    0    0  501  502 -0.00000000000E+00 -0.00000000000E+00 -0.40018994623E+03  0.40018994623E+03  0.00000000000E+00 0.  1.
         25    1    1    2    0    0 -0.55436482559E+02 -0.11697560421E+03 -0.12121200458E+03  0.21696507930E+03  0.12500000000E+03 0.  0.
         25    1    1    2    0    0  0.55436482559E+02  0.11697560421E+03 -0.19607187290E+03  0.26613093567E+03  0.12500000000E+03 0.  0.
</event>
<event>
 4    0  0.2259196E-002  0.2214195E+03  0.7546771E-02  0.1132829E+00
         21   -1    0    0  502  501  0.00000000000E+00  0.00000000000E+00  0.15668318266E+03  0.15668318266E+03  0.00000000000E+00 0.  1.
         21   -1    0    0  501  502 -0.00000000000E+00 -0.00000000000E+00 -0.31290286625E+03  0.31290286625E+03  0.00000000000E+00 0.  1.
         25    1    1    2    0    0 -0.89159453583E+02  0.13240980613E+03  0.16258812230E+02  0.20339890338E+03  0.12500000000E+03 0.  0.
         25    1    1    2    0    0  0.89159453583E+02 -0.13240980613E+03 -0.17247849582E+03  0.26618714552E+03  0.12500000000E+03 0.  0.
</event>
<event>
 4    0  0.2259196E-002  0.2489240E+03  0.7546771E-02  0.1113987E+00
         21   -1    0    0  502  501  0.00000000000E+00  0.00000000000E+00  0.48038970452E+03  0.48038970452E+03  0.00000000000E+00 0.  1.
         21   -1    0    0  501  502 -0.00000000000E+00 -0.00000000000E+00 -0.12898520430E+03  0.12898520430E+03  0.00000000000E+00 0.  1.
         25    1    1    2    0    0  0.57321404032E+02 -0.75885732361E+02  0.41207965502E+03  0.44099776623E+03  0.12500000000E+03 0.  0.
         25    1    1    2    0    0 -0.57321404032E+02  0.75885732361E+02 -0.60675154804E+02  0.16837714259E+03  0.12500000000E+03 0.  0.
</event>
<event>
 4    0  0.2259196E-002  0.2842178E+03  0.7546771E-02  0.1093407E+00
         21   -1    0    0  502  501  0.00000000000E+00  0.00000000000E+00  0.86212964161E+02  0.86212964161E+02  0.00000000000E+00 0.  1.
         21   -1    0    0  501  502 -0.00000000000E+00 -0.00000000000E+00 -0.93697938645E+03  0.93697938645E+03  0.00000000000E+00 0.  1.
         25    1    1    2    0    0 -0.21734216488E+02  0.24801381181E+03 -0.52675364407E+03  0.59588390527E+03  0.12500000000E+03 0.  0.
         25    1    1    2    0    0  0.21734216488E+02 -0.24801381181E+03 -0.32401277821E+03  0.42730844534E+03  0.12500000000E+03 0.  0.
</event>
<event>
 4    0  0.2259196E-002  0.2927655E+03  0.7546771E-02  0.1088914E+00
         21   -1    0    0  502  501  0.00000000000E+00  0.00000000000E+00  0.80862046613E+02  0.80862046613E+02  0.00000000000E+00 0. -1.
         21   -1    0    0  501  502 -0.00000000000E+00 -0.00000000000E+00 -0.10599732871E+04  0.10599732871E+04  0.00000000000E+00 0. -1.
         25    1    1    2    0    0 -0.88381850661E+02 -0.16641848102E+03 -0.85187082566E+03  0.88137129858E+03  0.12500000000E+03 0.  0.
         25    1    1    2    0    0  0.88381850661E+02  0.16641848102E+03 -0.12724041478E+03  0.25946403509E+03  0.12500000000E+03 0.  0.
</event>
<event>
 4    0  0.2259196E-002  0.1883875E+03  0.7546771E-02  0.1159924E+00
         21   -1    0    0  502  501  0.00000000000E+00  0.00000000000E+00  0.87681239249E+03  0.87681239249E+03  0.00000000000E+00 0. -1.
         21   -1    0    0  501  502 -0.00000000000E+00 -0.00000000000E+00 -0.40476011459E+02  0.40476011459E+02  0.00000000000E+00 0. -1.
         25    1    1    2    0    0  0.43661248135E+01 -0.10215125384E+03  0.65434644535E+03  0.67397938563E+03  0.12500000000E+03 0.  0.
         25    1    1    2    0    0 -0.43661248135E+01  0.10215125384E+03  0.18198993568E+03  0.24330901832E+03  0.12500000000E+03 0.  0.
</event>
<event>
 4    0  0.2259196E-002  0.2066535E+03  0.7546771E-02  0.1144244E+00
         21   -1    0    0  502  501  0.00000000000E+00  0.00000000000E+00  0.18860160222E+02  0.18860160222E+02  0.00000000000E+00 0.  1.
         21   -1    0    0  501  502 -0.00000000000E+00 -0.00000000000E+00 -0.22643331508E+04  0.22643331508E+04  0.00000000000E+00 0.  1.
         25    1    1    2    0    0  0.42053560083E+02 -0.13288539224E+03 -0.63945037380E+03  0.66629483710E+03  0.12500000000E+03 0.  0.
         25    1    1    2    0    0 -0.42053560083E+02  0.13288539224E+03 -0.16060226168E+04  0.16168984739E+04  0.12500000000E+03 0.  0.
</event>
<event>
 4    0  0.2259196E-002  0.2346932E+03  0.7546771E-02  0.1123379E+00
         21   -1    0    0  502  501  0.00000000000E+00  0.00000000000E+00  0.48997117229E+03  0.48997117229E+03  0.00000000000E+00 0.  1.
         21   -1    0    0  501  502 -0.00000000000E+00 -0.00000000000E+00 -0.11241659702E+03  0.11241659702E+03  0.00000000000E+00 0.  1.
         25    1    1    2    0    0 -0.70792849724E+02  0.36382777196E+02 -0.44780573361E+02  0.15480837768E+03  0.12500000000E+03 0.  0.
         25    1    1    2    0    0  0.70792849724E+02 -0.36382777196E+02  0.42233514863E+03  0.44757939164E+03  0.12500000000E+03 0.  0.
</event>
<event>
 4    0  0.2259196E-002  0.2846701E+03  0.7546771E-02  0.1093165E+00
         21   -1    0    0  502  501  0.00000000000E+00  0.00000000000E+00  0.13568107904E+03  0.13568107904E+03  0.00000000000E+00 0.  1.
         21   -1    0    0  501  502 -0.00000000000E+00 -0.00000000000E+00 -0.59726131279E+03  0.59726131279E+03  0.00000000000E+00 0.  1.
         25    1    1    2    0    0  0.24673422581E+03  0.36390851848E+02 -0.30372741184E+03  0.41240442892E+03  0.12500000000E+03 0.  0.
         25    1    1    2    0    0 -0.24673422581E+03 -0.36390851848E+02 -0.15785282190E+03  0.32053796291E+03  0.12500000000E+03 0.  0.
</event>
<event>
 4    0  0.2259196E-002  0.2479826E+03  0.7546771E-02  0.1114586E+00
         21   -1    0    0  502  501  0.00000000000E+00  0.00000000000E+00  0.52194508093E+03  0.52194508093E+03  0.00000000000E+00 0.  1.
         21   -1    0    0  501  502 -0.00000000000E+00 -0.00000000000E+00 -0.11781957699E+03  0.11781957699E+03  0.00000000000E+00 0.  1.
         25    1    1    2    0    0  0.19599222367E+03  0.75613296093E+02  0.25587077420E+03  0.35387169338E+03  0.12500000000E+03 0.  0.
         25    1    1    2    0    0 -0.19599222367E+03 -0.75613296093E+02  0.14825472974E+03  0.28589296455E+03  0.12500000000E+03 0.  0.
</event>
<event>
 4    0  0.2259196E-002  0.3091511E+03  0.7546771E-02  0.1080753E+00
         21   -1    0    0  502  501  0.00000000000E+00  0.00000000000E+00  0.18359174578E+03  0.18359174578E+03  0.00000000000E+00 0. -1.
         21   -1    0    0  501  502 -0.00000000000E+00 -0.00000000000E+00 -0.52058129099E+03  0.52058129099E+03  0.00000000000E+00 0. -1.
         25    1    1    2    0    0 -0.26971608120E+03 -0.84865182225E+02 -0.16935039351E+03  0.35249598493E+03  0.12500000000E+03 0.  0.
         25    1    1    2    0    0  0.26971608120E+03  0.84865182225E+02 -0.16763915170E+03  0.35167705184E+03  0.12500000000E+03 0.  0.
</event>
<event>
 4    0  0.2259196E-002  0.3734734E+03  0.7546771E-02  0.1053373E+00
         21   -1    0    0  502  501  0.00000000000E+00  0.00000000000E+00  0.19413690023E+04  0.19413690023E+04  0.00000000000E+00 0.  1.
         21   -1    0    0  501  502 -0.00000000000E+00 -0.00000000000E+00 -0.71847447642E+02  0.71847447642E+02  0.00000000000E+00 0.  1.
         25    1    1    2    0    0  0.17674440744E+03  0.16520690018E+03  0.16236384926E+04  0.16463167557E+04  0.12500000000E+03 0.  0.
         25    1    1    2    0    0 -0.17674440744E+03 -0.16520690018E+03  0.24588306205E+03  0.36689969424E+03  0.12500000000E+03 0.  0.
</event>
<event>
 4    0  0.2259196E-002  0.1920459E+03  0.7546771E-02  0.1156629E+00
         21   -1    0    0  502  501  0.00000000000E+00  0.00000000000E+00  0.94536053170E+02  0.94536053170E+02  0.00000000000E+00 0. -1.
         21   -1    0    0  501  502 -0.00000000000E+00 -0.00000000000E+00 -0.39013312705E+03  0.39013312705E+03  0.00000000000E+00 0. -1.
         25    1    1    2    0    0 -0.85469515040E+02 -0.37213808455E+02 -0.28925460567E+03  0.32860787033E+03  0.12500000000E+03 0.  0.
         25    1    1    2    0    0  0.85469515040E+02  0.37213808455E+02 -0.63424682071E+01  0.15606130989E+03  0.12500000000E+03 0.  0.
</event>
<event>
 4    0  0.2259196E-002  0.1622983E+03  0.7546771E-02  0.1186126E+00
         21   -1    0    0  502  501  0.00000000000E+00  0.00000000000E+00  0.56413722841E+03  0.56413722841E+03  0.00000000000E+00 0. -1.
         21   -1    0    0  501  502 -0.00000000000E+00 -0.00000000000E+00 -0.46692075405E+02  0.46692075405E+02  0.00000000000E+00 0. -1.
         25    1    1    2    0    0 -0.82054531066E+02  0.61208658343E+02  0.22979577042E+03  0.28091020278E+03  0.12500000000E+03 0.  0.
         25    1    1    2    0    0  0.82054531066E+02 -0.61208658343E+02  0.28764938258E+03  0.32991910103E+03  0.12500000000E+03 0.  0.
</event>
<event>
 4    0  0.2259196E-002  0.1982189E+03  0.7546771E-02  0.1151251E+00
         21   -1    0    0  502  501  0.00000000000E+00  0.00000000000E+00  0.36620107296E+02  0.36620107296E+02  0.00000000000E+00 0.  1.
         21   -1    0    0  501  502 -0.00000000000E+00 -0.00000000000E+00 -0.10729275115E+04  0.10729275115E+04  0.00000000000E+00 0.  1.
         25    1    1    2    0    0  0.10344043428E+03 -0.10001393597E+03 -0.67050196064E+03  0.69706569996E+03  0.12500000000E+03 0.  0.
         25    1    1    2    0    0 -0.10344043428E+03  0.10001393597E+03 -0.36580544357E+03  0.41248191885E+03  0.12500000000E+03 0.  0.
</event>
<event>
 4    0  0.2259196E-002  0.1770124E+03  0.7546771E-02  0.1170726E+00
         21   -1    0    0  502  501  0.00000000000E+00  0.00000000000E+00  0.51709258670E+02  0.51709258670E+02  0.00000000000E+00 0.  1.
         21   -1    0    0  501  502 -0.00000000000E+00 -0.00000000000E+00 -0.60595315438E+03  0.60595315438E+03  0.00000000000E+00 0.  1.
         25    1    1    2    0    0  0.65028964407E+02 -0.40209782369E+02 -0.92633421829E+02  0.17335381060E+03  0.12500000000E+03 0.  0.
         25    1    1    2    0    0 -0.65028964407E+02  0.40209782369E+02 -0.46161047388E+03  0.48430860245E+03  0.12500000000E+03 0.  0.
</event>
<event>
 4    0  0.2259196E-002  0.2915735E+03  0.7546771E-02  0.1089530E+00
         21   -1    0    0  502  501  0.00000000000E+00  0.00000000000E+00  0.14351222381E+03  0.14351222381E+03  0.00000000000E+00 0.  1.
         21   -1    0    0  501  502 -0.00000000000E+00 -0.00000000000E+00 -0.59238926597E+03  0.59238926597E+03  0.00000000000E+00 0.  1.
         25    1    1    2    0    0 -0.13018168956E+03  0.80784435775E+02 -0.49485116846E+03  0.53289405729E+03  0.12500000000E+03 0.  0.
         25    1    1    2    0    0  0.13018168956E+03 -0.80784435775E+02  0.45974126300E+02  0.20300743249E+03  0.12500000000E+03 0.  0.
</event>
<event>
 4    0  0.2259196E-002  0.1936697E+03  0.7546771E-02  0.1155192E+00
         21   -1    0    0  502  501  0.00000000000E+00  0.00000000000E+00  0.66769589602E+03  0.66769589602E+03  0.00000000000E+00 0. -1.
         21   -1    0    0  501  502 -0.00000000000E+00 -0.00000000000E+00 -0.56175225503E+02  0.56175225503E+02  0.00000000000E+00 0. -1.
         25    1    1    2    0    0  0.90602309653E+02  0.11000638645E+03  0.37987497880E+03  0.42454703284E+03  0.12500000000E+03 0.  0.
         25    1    1    2    0    0 -0.90602309653E+02 -0.11000638645E+03  0.23164569172E+03  0.29932408868E+03  0.12500000000E+03 0.  0.
</event>
<event>
 4    0  0.2259196E-002  0.1918006E+03  0.7546771E-02  0.1156847E+00
         21   -1    0    0  502  501  0.00000000000E+00  0.00000000000E+00  0.35157932781E+03  0.35157932781E+03  0.00000000000E+00 0.  1.
         21   -1    0    0  501  502 -0.00000000000E+00 -0.00000000000E+00 -0.10463486586E+03  0.10463486586E+03  0.00000000000E+00 0.  1.
         25    1    1    2    0    0  0.46233552006E+02  0.11370203778E+03  0.30610129287E+02  0.17784171261E+03  0.12500000000E+03 0.  0.
         25    1    1    2    0    0 -0.46233552006E+02 -0.11370203778E+03  0.21633433266E+03  0.27837248107E+03  0.12500000000E+03 0.  0.
</event>
<event>
 4    0  0.2259196E-002  0.2082448E+03  0.7546771E-02  0.1142963E+00
         21   -1    0    0  502  501  0.00000000000E+00  0.00000000000E+00  0.84019058466E+03  0.84019058466E+03  0.00000000000E+00 0. -1.
         21   -1    0    0  501  502 -0.00000000000E+00 -0.00000000000E+00 -0.51614360971E+02  0.51614360971E+02  0.00000000000E+00 0. -1.
         25    1    1    2    0    0  0.83334145449E+02 -0.13249364498E+03  0.51620272087E+03  0.55370515149E+03  0.12500000000E+03 0.  0.
         25    1    1    2    0    0 -0.83334145449E+02  0.13249364498E+03  0.27237350282E+03  0.33809979414E+03  0.12500000000E+03 0.  0.
</event>
<event>
 4    0  0.2259196E-002  0.3170534E+03  0.7546771E-02  0.1077013E+00
         21   -1    0    0  502  501  0.00000000000E+00  0.00000000000E+00  0.11655432305E+03  0.11655432305E+03  0.00000000000E+00 0. -1.
         21   -1    0    0  501  502 -0.00000000000E+00 -0.00000000000E+00 -0.86245522293E+03  0.86245522293E+03  0.00000000000E+00 0. -1.
         25    1    1    2    0    0 -0.19304032326E+03 -0.11931527714E+03 -0.90800890244E+02  0.27453688902E+03  0.12500000000E+03 0.  0.
         25    1    1    2    0    0  0.19304032326E+03  0.11931527714E+03 -0.65510000964E+03  0.70447265695E+03  0.12500000000E+03 0.  0.
</event>
<event>
 4    0  0.2259196E-002  0.2782239E+03  0.7546771E-02  0.1096663E+00
         21   -1    0    0  502  501  0.00000000000E+00  0.00000000000E+00  0.11088269996E+03  0.11088269996E+03  0.00000000000E+00 0. -1.
         21   -1    0    0  501  502 -0.00000000000E+00 -0.00000000000E+00 -0.69811212296E+03  0.69811212296E+03  0.00000000000E+00 0. -1.
         25    1    1    2    0    0  0.14209538708E+03  0.55791343396E+02 -0.84225572829E+01  0.19748344867E+03  0.12500000000E+03 0.  0.
         25    1    1    2    0    0 -0.14209538708E+03 -0.55791343396E+02 -0.57880686572E+03  0.61151137425E+03  0.12500000000E+03 0.  0.
</event>
<event>
 4    0  0.2259196E-002  0.2505503E+03  0.7546771E-02  0.1112958E+00
         21   -1    0    0  502  501  0.00000000000E+00  0.00000000000E+00  0.12374964562E+03  0.12374964562E+03  0.00000000000E+00 0.  1.
         21   -1    0    0  501  502 -0.00000000000E+00 -0.00000000000E+00 -0.50727796206E+03  0.50727796206E+03  0.00000000000E+00 0.  1.
         25    1    1    2    0    0 -0.16604054329E+03 -0.64412085443E+01 -0.36779156672E+03  0.42250039968E+03  0.12500000000E+03 0.  0.
         25    1    1    2    0    0  0.16604054329E+03  0.64412085443E+01 -0.15736749724E+02  0.20852720800E+03  0.12500000000E+03 0.  0.
</event>
<event>
 4    0  0.2259196E-002  0.2519518E+03  0.7546771E-02  0.1112077E+00
         21   -1    0    0  502  501  0.00000000000E+00  0.00000000000E+00  0.18226338364E+03  0.18226338364E+03  0.00000000000E+00 0.  1.
         21   -1    0    0  501  502 -0.00000000000E+00 -0.00000000000E+00 -0.34828570828E+03  0.34828570828E+03  0.00000000000E+00 0.  1.
         25    1    1    2    0    0  0.88610652763E+02  0.19179666981E+03 -0.23294124219E+02  0.24658756367E+03  0.12500000000E+03 0.  0.
         25    1    1    2    0    0 -0.88610652763E+02 -0.19179666981E+03 -0.14272820043E+03  0.28396152826E+03  0.12500000000E+03 0.  0.
</event>
<event>
 4    0  0.2259196E-002  0.3750558E+03  0.7546771E-02  0.1052776E+00
         21   -1    0    0  502  501  0.00000000000E+00  0.00000000000E+00  0.85385999218E+02  0.85385999218E+02  0.00000000000E+00 0.  1.
         21   -1    0    0  501  502 -0.00000000000E+00 -0.00000000000E+00 -0.16474229553E+04  0.16474229553E+04  0.00000000000E+00 0.  1.
         25    1    1    2    0    0 -0.30174716250E+03 -0.72281138531E+02 -0.11728181787E+04  0.12195914862E+04  0.12500000000E+03 0.  0.
         25    1    1    2    0    0  0.30174716250E+03  0.72281138531E+02 -0.38921877739E+03  0.51321746827E+03  0.12500000000E+03 0.  0.
</event>
<event>
 4    0  0.2259196E-002  0.2547856E+03  0.7546771E-02  0.1110317E+00
         21   -1    0    0  502  501  0.00000000000E+00  0.00000000000E+00  0.11780382701E+03  0.11780382701E+03  0.00000000000E+00 0. -1.
         21   -1    0    0  501  502 -0.00000000000E+00 -0.00000000000E+00 -0.55104930266E+03  0.55104930266E+03  0.00000000000E+00 0. -1.
         25    1    1    2    0    0  0.10211131226E+03  0.14781461833E+03 -0.45408564338E+02  0.22352364349E+03  0.12500000000E+03 0.  0.
         25    1    1    2    0    0 -0.10211131226E+03 -0.14781461833E+03 -0.38783691131E+03  0.44532948618E+03  0.12500000000E+03 0.  0.
</event>
<event>
 4    0  0.2259196E-002  0.2540744E+03  0.7546771E-02  0.1110757E+00
         21   -1    0    0  502  501  0.00000000000E+00  0.00000000000E+00  0.21612962706E+02  0.21612962706E+02  0.00000000000E+00 0.  1.
         21   -1    0    0  501  502 -0.00000000000E+00 -0.00000000000E+00 -0.29868101008E+04  0.29868101008E+04  0.00000000000E+00 0.  1.
         25    1    1    2    0    0 -0.93370199625E+02  0.47322667382E+02 -0.26362541798E+04  0.26412910724E+04  0.12500000000E+03 0.  0.
         25    1    1    2    0    0  0.93370199625E+02 -0.47322667382E+02 -0.32894295829E+03  0.36713199103E+03  0.12500000000E+03 0.  0.
</event>
<event>
 4    0  0.2259196E-002  0.2386212E+03  0.7546771E-02  0.1120715E+00
         21   -1    0    0  502  501  0.00000000000E+00  0.00000000000E+00  0.94267881839E+03  0.94267881839E+03  0.00000000000E+00 0. -1.
         21   -1    0    0  501  502 -0.00000000000E+00 -0.00000000000E+00 -0.60402397312E+02  0.60402397312E+02  0.00000000000E+00 0. -1.
         25    1    1    2    0    0 -0.30712367525E+02 -0.13237474616E+03  0.12343014174E+03  0.22209530123E+03  0.12500000000E+03 0.  0.
         25    1    1    2    0    0  0.30712367525E+02  0.13237474616E+03  0.75884627933E+03  0.78098591447E+03  0.12500000000E+03 0.  0.
</event>
<event>
 4    0  0.2259196E-002  0.2690491E+03  0.7546771E-02  0.1101825E+00
         21   -1    0    0  502  501  0.00000000000E+00  0.00000000000E+00  0.28002057540E+03  0.28002057540E+03  0.00000000000E+00 0. -1.
         21   -1    0    0  501  502 -0.00000000000E+00 -0.00000000000E+00 -0.25850744238E+03  0.25850744238E+03  0.00000000000E+00 0. -1.
         25    1    1    2    0    0  0.20587887394E+03 -0.15572864904E+02  0.12973710809E+03  0.27401704704E+03  0.12500000000E+03 0.  0.
         25    1    1    2    0    0 -0.20587887394E+03  0.15572864904E+02 -0.10822397507E+03  0.26451097073E+03  0.12500000000E+03 0.  0.
</event>
<event>
 4    0  0.2259196E-002  0.2212798E+03  0.7546771E-02  0.1132932E+00
         21   -1    0    0  502  501  0.00000000000E+00  0.00000000000E+00  0.21801939694E+03  0.21801939694E+03  0.00000000000E+00 0. -1.
         21   -1    0    0  501  502 -0.00000000000E+00 -0.00000000000E+00 -0.22458900408E+03  0.22458900408E+03  0.00000000000E+00 0. -1.
         25    1    1    2    0    0  0.11376681774E+03  0.13132768037E+03  0.52845445828E+02  0.22047106294E+03  0.12500000000E+03 0.  0.
         25    1    1    2    0    0 -0.11376681774E+03 -0.13132768037E+03 -0.59415052969E+02  0.22213733808E+03  0.12500000000E+03 0.  0.
</event>
<event>
 4    0  0.2259196E-002  0.2116773E+03  0.7546771E-02  0.1140245E+00
         21   -1    0    0  502  501  0.00000000000E+00  0.00000000000E+00  0.39961143773E+03  0.39961143773E+03  0.00000000000E+00 0.  1.
         21   -1    0    0  501  502 -0.00000000000E+00 -0.00000000000E+00 -0.11212711597E+03  0.11212711597E+03  0.00000000000E+00 0.  1.
         25    1    1    2    0    0 -0.11518933177E+02  0.41344997173E+02 -0.56126440113E+02  0.14358715783E+03  0.12500000000E+03 0.  0.
         25    1    1    2    0    0  0.11518933177E+02 -0.41344997173E+02  0.34361076187E+03  0.36815139587E+03  0.12500000000E+03 0.  0.
</event>
<event>
 4    0  0.2259196E-002  0.1936934E+03  0.7546771E-02  0.1155172E+00
         21   -1    0    0  502  501  0.00000000000E+00  0.00000000000E+00  0.72734589478E+02  0.72734589478E+02  0.00000000000E+00 0. -1.
         21   -1    0    0  501  502 -0.00000000000E+00 -0.00000000000E+00 -0.51580873767E+03  0.51580873767E+03  0.00000000000E+00 0. -1.
         25    1    1    2    0    0  0.95168486300E+02  0.36365020662E+02 -0.38454992462E+03  0.41699292564E+03  0.12500000000E+03 0.  0.
         25    1    1    2    0    0 -0.95168486300E+02 -0.36365020662E+02 -0.58524223578E+02  0.17155040151E+03  0.12500000000E+03 0.  0.
</event>
<event>
 4    0  0.2259196E-002  0.2109630E+03  0.7546771E-02  0.1140806E+00
         21   -1    0    0  502  501  0.00000000000E+00  0.00000000000E+00  0.42885892723E+03  0.42885892723E+03  0.00000000000E+00 0. -1.
         21   -1    0    0  501  502 -0.00000000000E+00 -0.00000000000E+00 -0.10377633105E+03  0.10377633105E+03  0.00000000000E+00 0. -1.
         25    1    1    2    0    0 -0.44068267991E+02 -0.16411728185E+03  0.16004458514E+03  0.26479381352E+03  0.12500000000E+03 0.  0.
         25    1    1    2    0    0  0.44068267991E+02  0.16411728185E+03  0.16503801105E+03  0.26784144477E+03  0.12500000000E+03 0.  0.
</event>
<event>
 4    0  0.2259196E-002  0.3292736E+03  0.7546771E-02  0.1071459E+00
         21   -1    0    0  502  501  0.00000000000E+00  0.00000000000E+00  0.13788873766E+03  0.13788873766E+03  0.00000000000E+00 0. -1.
         21   -1    0    0  501  502 -0.00000000000E+00 -0.00000000000E+00 -0.78629430134E+03  0.78629430134E+03  0.00000000000E+00 0. -1.
         25    1    1    2    0    0  0.38933655886E+02 -0.19394159747E+02 -0.74732217274E+03  0.75895150890E+03  0.12500000000E+03 0.  0.
         25    1    1    2    0    0 -0.38933655886E+02  0.19394159747E+02  0.98916609062E+02  0.16523153011E+03  0.12500000000E+03 0.  0.
</event>
<event>
 4    0  0.2259196E-002  0.2248030E+03  0.7546771E-02  0.1130352E+00
         21   -1    0    0  502  501  0.00000000000E+00  0.00000000000E+00  0.17736545837E+03  0.17736545837E+03  0.00000000000E+00 0. -1.
         21   -1    0    0  501  502 -0.00000000000E+00 -0.00000000000E+00 -0.28492794059E+03  0.28492794059E+03  0.00000000000E+00 0. -1.
         25    1    1    2    0    0  0.68705025395E+01 -0.18380169762E+03 -0.87589280109E+02  0.23901286543E+03  0.12500000000E+03 0.  0.
         25    1    1    2    0    0 -0.68705025395E+01  0.18380169762E+03 -0.19973202109E+02  0.22328053353E+03  0.12500000000E+03 0.  0.
</event>
<event>
 4    0  0.2259196E-002  0.1984519E+03  0.7546771E-02  0.1151052E+00
         21   -1    0    0  502  501  0.00000000000E+00  0.00000000000E+00  0.23947374657E+03  0.23947374657E+03  0.00000000000E+00 0.  1.
         21   -1    0    0  501  502 -0.00000000000E+00 -0.00000000000E+00 -0.16445701742E+03  0.16445701742E+03  0.00000000000E+00 0.  1.
         25    1    1    2    0    0  0.13817678275E+03 -0.40119166678E+02  0.93766057053E+02  0.21241338065E+03  0.12500000000E+03 0.  0.
         25    1    1    2    0    0 -0.13817678275E+03  0.40119166678E+02 -0.18749327899E+02  0.19151738334E+03  0.12500000000E+03 0.  0.
</event>
<event>
 4    0  0.2259196E-002  0.2326926E+03  0.7546771E-02  0.1124759E+00
         21   -1    0    0  502  501  0.00000000000E+00  0.00000000000E+00  0.59863132652E+03  0.59863132652E+03  0.00000000000E+00 0.  1.
         21   -1    0    0  501  502 -0.00000000000E+00 -0.00000000000E+00 -0.90449413826E+02  0.90449413826E+02  0.00000000000E+00 0.  1.
         25    1    1    2    0    0 -0.13617992846E+03  0.55533542594E+02  0.61650296705E+02  0.20261960999E+03  0.12500000000E+03 0.  0.
         25    1    1    2    0    0  0.13617992846E+03 -0.55533542594E+02  0.44653161599E+03  0.48646113036E+03  0.12500000000E+03 0.  0.
</event>
<event>
 4    0  0.2259196E-002  0.2952235E+03  0.7546771E-02  0.1087653E+00
         21   -1    0    0  502  501  0.00000000000E+00  0.00000000000E+00  0.87005874246E+03  0.87005874246E+03  0.00000000000E+00 0. -1.
         21   -1    0    0  501  502 -0.00000000000E+00 -0.00000000000E+00 -0.10017362384E+03  0.10017362384E+03  0.00000000000E+00 0. -1.
         25    1    1    2    0    0  0.61452887149E+02  0.99489496310E+02  0.78019443439E+03  0.79875088273E+03  0.12500000000E+03 0.  0.
         25    1    1    2    0    0 -0.61452887149E+02 -0.99489496310E+02 -0.10309315760E+02  0.17148148357E+03  0.12500000000E+03 0.  0.
</event>
<event>
 4    0  0.2259196E-002  0.2358143E+03  0.7546771E-02  0.1122613E+00
         21   -1    0    0  502  501  0.00000000000E+00  0.00000000000E+00  0.32720248049E+03  0.32720248049E+03  0.00000000000E+00 0.  1.
         21   -1    0    0  501  502 -0.00000000000E+00 -0.00000000000E+00 -0.16995096911E+03  0.16995096911E+03  0.00000000000E+00 0.  1.
         25    1    1    2    0    0 -0.15544410753E+03 -0.18357922352E+02  0.20979283285E+03  0.29006536607E+03  0.12500000000E+03 0.  0.
         25    1    1    2    0    0  0.15544410753E+03  0.18357922352E+02 -0.52541321467E+02  0.20708808353E+03  0.12500000000E+03 0.  0.
</event>
<event>
 4    0  0.2259196E-002  0.2551077E+03  0.7546771E-02  0.1110119E+00
         21   -1    0    0  502  501  0.00000000000E+00  0.00000000000E+00  0.73020409062E+03  0.73020409062E+03  0.00000000000E+00 0.  1.
         21   -1    0    0  501  502 -0.00000000000E+00 -0.00000000000E+00 -0.89125651772E+02  0.89125651772E+02  0.00000000000E+00 0.  1.
         25    1    1    2    0    0 -0.24360386998E+02 -0.20520141400E+03  0.18856731668E+03  0.30640444135E+03  0.12500000000E+03 0.  0.
         25    1    1    2    0    0  0.24360386998E+02  0.20520141400E+03  0.45251112216E+03  0.51292530103E+03  0.12500000000E+03 0.  0.
</event>
<event>
 4    0  0.2259196E-002  0.2688276E+03  0.7546771E-02  0.1101952E+00
         21   -1    0    0  502  501  0.00000000000E+00  0.00000000000E+00  0.74953821357E+03  0.74953821357E+03  0.00000000000E+00 0.  1.
         21   -1    0    0  501  502 -0.00000000000E+00 -0.00000000000E+00 -0.96417058127E+02  0.96417058127E+02  0.00000000000E+00 0.  1.
         25    1    1    2    0    0  0.10466963908E+03  0.65926228366E+02  0.64647622132E+03  0.66996903336E+03  0.12500000000E+03 0.  0.
         25    1    1    2    0    0 -0.10466963908E+03 -0.65926228366E+02  0.66449341184E+01  0.17598623833E+03  0.12500000000E+03 0.  0.
</event>
<event>
 4    0  0.2259196E-002  0.2357673E+03  0.7546771E-02  0.1122645E+00
         21   -1    0    0  502  501  0.00000000000E+00  0.00000000000E+00  0.11540805164E+03  0.11540805164E+03  0.00000000000E+00 0.  1.
         21   -1    0    0  501  502 -0.00000000000E+00 -0.00000000000E+00 -0.48164954154E+03  0.48164954154E+03  0.00000000000E+00 0.  1.
         25    1    1    2    0    0 -0.18625656975E+03  0.39443158695E+02 -0.26028592329E+03  0.34586273925E+03  0.12500000000E+03 0.  0.
         25    1    1    2    0    0  0.18625656975E+03 -0.39443158695E+02 -0.10595556661E+03  0.25119485392E+03  0.12500000000E+03 0.  0.
</event>
<event>
 4    0  0.2259196E-002  0.2399982E+03  0.7546771E-02  0.1119794E+00
         21   -1    0    0  502  501  0.00000000000E+00  0.00000000000E+00  0.37111669785E+03  0.37111669785E+03  0.00000000000E+00 0. -1.
         21   -1    0    0  501  502 -0.00000000000E+00 -0.00000000000E+00 -0.15520496747E+03  0.15520496747E+03  0.00000000000E+00 0. -1.
         25    1    1    2    0    0 -0.18537026995E+03 -0.71787349289E+02  0.53586201067E+02  0.24085688997E+03  0.12500000000E+03 0.  0.
         25    1    1    2    0    0  0.18537026995E+03  0.71787349289E+02  0.16232552932E+03  0.28546477535E+03  0.12500000000E+03 0.  0.
</event>
<event>
 4    0  0.2259196E-002  0.2802378E+03  0.7546771E-02  0.1095559E+00
         21   -1    0    0  502  501  0.00000000000E+00  0.00000000000E+00  0.28123358935E+03  0.28123358935E+03  0.00000000000E+00 0. -1.
         21   -1    0    0  501  502 -0.00000000000E+00 -0.00000000000E+00 -0.27924549984E+03  0.27924549984E+03  0.00000000000E+00 0.  1.
         25    1    1    2    0    0 -0.14091500167E+02  0.24631578512E+03  0.46140511936E+02  0.28039968477E+03  0.12500000000E+03 0.  0.
         25    1    1    2    0    0  0.14091500167E+02 -0.24631578512E+03 -0.44152422428E+02  0.28007940443E+03  0.12500000000E+03 0.  0.
</event>
<event>
 4    0  0.2259196E-002  0.1879289E+03  0.7546771E-02  0.1160343E+00
         21   -1    0    0  502  501  0.00000000000E+00  0.00000000000E+00  0.82930294688E+03  0.82930294688E+03  0.00000000000E+00 0. -1.
         21   -1    0    0  501  502 -0.00000000000E+00 -0.00000000000E+00 -0.42586699950E+02  0.42586699950E+02  0.00000000000E+00 0. -1.
         25    1    1    2    0    0 -0.19420793900E+02  0.17610629338E+02  0.71315305018E+03  0.72449953380E+03  0.12500000000E+03 0.  0.
         25    1    1    2    0    0  0.19420793900E+02 -0.17610629338E+02  0.73563196749E+02  0.14739011302E+03  0.12500000000E+03 0.  0.
</event>
<event>
 4    0  0.2259196E-002  0.1904877E+03  0.7546771E-02  0.1158022E+00
         21   -1    0    0  502  501  0.00000000000E+00  0.00000000000E+00  0.81836170167E+02  0.81836170167E+02  0.00000000000E+00 0.  1.
         21   -1    0    0  501  502 -0.00000000000E+00 -0.00000000000E+00 -0.44339276741E+03  0.44339276741E+03  0.00000000000E+00 0.  1.
         25    1    1    2    0    0 -0.85535207298E+02  0.10559165012E+03 -0.11619219967E+03  0.21815475133E+03  0.12500000000E+03 0.  0.
         25    1    1    2    0    0  0.85535207298E+02 -0.10559165012E+03 -0.24536439757E+03  0.30707418625E+03  0.12500000000E+03 0.  0.
</event>
<event>
 4    0  0.2259196E-002  0.2163258E+03  0.7546771E-02  0.1136652E+00
         21   -1    0    0  502  501  0.00000000000E+00  0.00000000000E+00  0.11094718291E+04  0.11094718291E+04  0.00000000000E+00 0. -1.
         21   -1    0    0  501  502 -0.00000000000E+00 -0.00000000000E+00 -0.42179406356E+02  0.42179406356E+02  0.00000000000E+00 0. -1.
         25    1    1    2    0    0  0.13937568511E+03 -0.21030756038E+02  0.25063836884E+03  0.31354818806E+03  0.12500000000E+03 0.  0.
         25    1    1    2    0    0 -0.13937568511E+03  0.21030756038E+02  0.81665405392E+03  0.83810304741E+03  0.12500000000E+03 0.  0.
</event>
<event>
 4    0  0.2259196E-002  0.2229709E+03  0.7546771E-02  0.1131687E+00
         21   -1    0    0  502  501  0.00000000000E+00  0.00000000000E+00  0.33023261539E+03  0.33023261539E+03  0.00000000000E+00 0. -1.
         21   -1    0    0  501  502 -0.00000000000E+00 -0.00000000000E+00 -0.15054854965E+03  0.15054854965E+03  0.00000000000E+00 0. -1.
         25    1    1    2    0    0 -0.49949827904E+02  0.32243650857E+02  0.27830251342E+03  0.31082459250E+03  0.12500000000E+03 0.  0.
         25    1    1    2    0    0  0.49949827904E+02 -0.32243650857E+02 -0.98618447677E+02  0.16995657254E+03  0.12500000000E+03 0.  0.
</event>
<event>
 4    0  0.2259196E-002  0.1516942E+03  0.7546771E-02  0.1198406E+00
         21   -1    0    0  502  501  0.00000000000E+00  0.00000000000E+00  0.30413808448E+02  0.30413808448E+02  0.00000000000E+00 0. -1.
         21   -1    0    0  501  502 -0.00000000000E+00 -0.00000000000E+00 -0.75660165120E+03  0.75660165120E+03  0.00000000000E+00 0. -1.
         25    1    1    2    0    0  0.15140913731E+02  0.58572466298E+02 -0.20474512207E+03  0.24739754665E+03  0.12500000000E+03 0.  0.
         25    1    1    2    0    0 -0.15140913731E+02 -0.58572466298E+02 -0.52144272068E+03  0.53961791300E+03  0.12500000000E+03 0.  0.
</event>
<event>
 4    0  0.2259196E-002  0.1789386E+03  0.7546771E-02  0.1168834E+00
         21   -1    0    0  502  501  0.00000000000E+00  0.00000000000E+00  0.29846107528E+03  0.29846107528E+03  0.00000000000E+00 0. -1.
         21   -1    0    0  501  502 -0.00000000000E+00 -0.00000000000E+00 -0.10728039238E+03  0.10728039238E+03  0.00000000000E+00 0. -1.
         25    1    1    2    0    0  0.57773379474E+02  0.27777385025E+02 -0.30069701993E+02  0.14366117594E+03  0.12500000000E+03 0.  0.
         25    1    1    2    0    0 -0.57773379474E+02 -0.27777385025E+02  0.22125038489E+03  0.26208029172E+03  0.12500000000E+03 0.  0.
</event>
<event>
 4    0  0.2259196E-002  0.1506640E+03  0.7546771E-02  0.1199659E+00
         21   -1    0    0  502  501  0.00000000000E+00  0.00000000000E+00  0.23272058550E+02  0.23272058550E+02  0.00000000000E+00 0.  1.
         21   -1    0    0  501  502 -0.00000000000E+00 -0.00000000000E+00 -0.97540359972E+03  0.97540359972E+03  0.00000000000E+00 0.  1.
         25    1    1    2    0    0  0.35746971482E+02  0.25172555774E+02 -0.71421111765E+03  0.72638421246E+03  0.12500000000E+03 0.  0.
         25    1    1    2    0    0 -0.35746971482E+02 -0.25172555774E+02 -0.23792042353E+03  0.27229144582E+03  0.12500000000E+03 0.  0.
</event>
<event>
 4    0  0.2259196E-002  0.1948643E+03  0.7546771E-02  0.1154146E+00
         21   -1    0    0  502  501  0.00000000000E+00  0.00000000000E+00  0.80671582986E+03  0.80671582986E+03  0.00000000000E+00 0. -1.
         21   -1    0    0  501  502 -0.00000000000E+00 -0.00000000000E+00 -0.47069956250E+02  0.47069956250E+02  0.00000000000E+00 0. -1.
         25    1    1    2    0    0 -0.12866995127E+02  0.11855380720E+03  0.57731010536E+03  0.60260478136E+03  0.12500000000E+03 0.  0.
         25    1    1    2    0    0  0.12866995127E+02 -0.11855380720E+03  0.18233576824E+03  0.25118100475E+03  0.12500000000E+03 0.  0.
</event>
<event>
 4    0  0.2259196E-002  0.2801015E+03  0.7546771E-02  0.1095634E+00
         21   -1    0    0  502  501  0.00000000000E+00  0.00000000000E+00  0.56730852047E+03  0.56730852047E+03  0.00000000000E+00 0.  1.
         21   -1    0    0  501  502 -0.00000000000E+00 -0.00000000000E+00 -0.13829658615E+03  0.13829658615E+03  0.00000000000E+00 0. -1.
         25    1    1    2    0    0  0.17733634255E+03 -0.15039457323E+03  0.33242812269E+03  0.42449989729E+03  0.12500000000E+03 0.  0.
         25    1    1    2    0    0 -0.17733634255E+03  0.15039457323E+03  0.96583811629E+02  0.28110520933E+03  0.12500000000E+03 0.  0.
</event>
<event>
 4    0  0.2259196E-002  0.2174817E+03  0.7546771E-02  0.1135775E+00
         21   -1    0    0  502  501  0.00000000000E+00  0.00000000000E+00  0.11630804561E+03  0.11630804561E+03  0.00000000000E+00 0.  1.
         21   -1    0    0  501  502 -0.00000000000E+00 -0.00000000000E+00 -0.40666408109E+03  0.40666408109E+03  0.00000000000E+00 0.  1.
         25    1    1    2    0    0  0.16216342871E+03  0.71551227350E+02 -0.16444350178E+03  0.27218233048E+03  0.12500000000E+03 0.  0.
         25    1    1    2    0    0 -0.16216342871E+03 -0.71551227350E+02 -0.12591253369E+03  0.25078979622E+03  0.12500000000E+03 0.  0.
</event>
<event>
 4    0  0.2259196E-002  0.2117935E+03  0.7546771E-02  0.1140154E+00
         21   -1    0    0  502  501  0.00000000000E+00  0.00000000000E+00  0.53825678609E+03  0.53825678609E+03  0.00000000000E+00 0. -1.
         21   -1    0    0  501  502 -0.00000000000E+00 -0.00000000000E+00 -0.83336584387E+02  0.83336584387E+02  0.00000000000E+00 0. -1.
         25    1    1    2    0    0 -0.16890767446E+03 -0.26133429953E+02  0.23380984765E+03  0.31544381990E+03  0.12500000000E+03 0.  0.
         25    1    1    2    0    0  0.16890767446E+03  0.26133429953E+02  0.22111035405E+03  0.30614955058E+03  0.12500000000E+03 0.  0.
</event>
<event>
 4    0  0.2259196E-002  0.1799553E+03  0.7546771E-02  0.1167846E+00
         21   -1    0    0  502  501  0.00000000000E+00  0.00000000000E+00  0.28947351805E+02  0.28947351805E+02  0.00000000000E+00 0.  1.
         21   -1    0    0  501  502 -0.00000000000E+00 -0.00000000000E+00 -0.11187180350E+04  0.11187180350E+04  0.00000000000E+00 0.  1.
         25    1    1    2    0    0  0.85638408207E+02 -0.10281378526E+02 -0.85271591270E+03  0.86613455737E+03  0.12500000000E+03 0.  0.
         25    1    1    2    0    0 -0.85638408207E+02  0.10281378526E+02 -0.23705477048E+03  0.28153082942E+03  0.12500000000E+03 0.  0.
</event>
<event>
 4    0  0.2259196E-002  0.2020991E+03  0.7546771E-02  0.1147980E+00
         21   -1    0    0  502  501  0.00000000000E+00  0.00000000000E+00  0.86359098343E+03  0.86359098343E+03  0.00000000000E+00 0. -1.
         21   -1    0    0  501  502 -0.00000000000E+00 -0.00000000000E+00 -0.47295570949E+02  0.47295570949E+02  0.00000000000E+00 0. -1.
         25    1    1    2    0    0  0.10551626821E+03 -0.10556543210E+03  0.28592874526E+03  0.34591616134E+03  0.12500000000E+03 0.  0.
         25    1    1    2    0    0 -0.10551626821E+03  0.10556543210E+03  0.53036666722E+03  0.56497039303E+03  0.12500000000E+03 0.  0.
</event>
<event>
 4    0  0.2259196E-002  0.1869161E+03  0.7546771E-02  0.1161273E+00
         21   -1    0    0  502  501  0.00000000000E+00  0.00000000000E+00  0.94229153083E+02  0.94229153083E+02  0.00000000000E+00 0.  1.
         21   -1    0    0  501  502 -0.00000000000E+00 -0.00000000000E+00 -0.37077283700E+03  0.37077283700E+03  0.00000000000E+00 0.  1.
         25    1    1    2    0    0  0.92614317364E+02  0.92475788765E+02 -0.80148902748E+02  0.19793440808E+03  0.12500000000E+03 0.  0.
         25    1    1    2    0    0 -0.92614317364E+02 -0.92475788765E+02 -0.19639478117E+03  0.26706758201E+03  0.12500000000E+03 0.  0.
</event>
<event>
 4    0  0.2259196E-002  0.1926293E+03  0.7546771E-02  0.1156111E+00
         21   -1    0    0  502  501  0.00000000000E+00  0.00000000000E+00  0.23160035965E+03  0.23160035965E+03  0.00000000000E+00 0. -1.
         21   -1    0    0  501  502 -0.00000000000E+00 -0.00000000000E+00 -0.16021589081E+03  0.16021589081E+03  0.00000000000E+00 0. -1.
         25    1    1    2    0    0  0.86479097782E+02 -0.11118607669E+03 -0.54949919430E+01  0.18840428058E+03  0.12500000000E+03 0.  0.
         25    1    1    2    0    0 -0.86479097782E+02  0.11118607669E+03  0.76879460788E+02  0.20341196989E+03  0.12500000000E+03 0.  0.
</event>
<event>
 4    0  0.2259196E-002  0.2343853E+03  0.7546771E-02  0.1123591E+00
         21   -1    0    0  502  501  0.00000000000E+00  0.00000000000E+00  0.10359409625E+03  0.10359409625E+03  0.00000000000E+00 0.  1.
         21   -1    0    0  501  502 -0.00000000000E+00 -0.00000000000E+00 -0.53030522204E+03  0.53030522204E+03  0.00000000000E+00 0.  1.
         25    1    1    2    0    0  0.89665546848E+01  0.64845892398E+02 -0.46643434404E+03  0.48731035918E+03  0.12500000000E+03 0.  0.
         25    1    1    2    0    0 -0.89665546848E+01 -0.64845892398E+02  0.39723218246E+02  0.14658895911E+03  0.12500000000E+03 0.  0.
</event>
<event>
 4    0  0.2259196E-002  0.2776933E+03  0.7546771E-02  0.1096956E+00
         21   -1    0    0  502  501  0.00000000000E+00  0.00000000000E+00  0.78372326881E+02  0.78372326881E+02  0.00000000000E+00 0. -1.
         21   -1    0    0  501  502 -0.00000000000E+00 -0.00000000000E+00 -0.98393890658E+03  0.98393890658E+03  0.00000000000E+00 0. -1.
         25    1    1    2    0    0 -0.11771937522E+03  0.92613249634E+02 -0.74787978906E+02  0.20893373854E+03  0.12500000000E+03 0.  0.
         25    1    1    2    0    0  0.11771937522E+03 -0.92613249634E+02 -0.83077860079E+03  0.85337749492E+03  0.12500000000E+03 0.  0.
</event>
<event>
 4    0  0.2259196E-002  0.1941584E+03  0.7546771E-02  0.1154763E+00
         21   -1    0    0  502  501  0.00000000000E+00  0.00000000000E+00  0.10006367722E+03  0.10006367722E+03  0.00000000000E+00 0. -1.
         21   -1    0    0  501  502 -0.00000000000E+00 -0.00000000000E+00 -0.37673505884E+03  0.37673505884E+03  0.00000000000E+00 0. -1.
         25    1    1    2    0    0  0.89355430746E+01 -0.13302204349E+03 -0.21883113717E+03  0.28510835586E+03  0.12500000000E+03 0.  0.
         25    1    1    2    0    0 -0.89355430746E+01  0.13302204349E+03 -0.57840244454E+02  0.19169038020E+03  0.12500000000E+03 0.  0.
</event>
<event>
 4    0  0.2259196E-002  0.2528005E+03  0.7546771E-02  0.1111548E+00
         21   -1    0    0  502  501  0.00000000000E+00  0.00000000000E+00  0.12890881494E+03  0.12890881494E+03  0.00000000000E+00 0. -1.
         21   -1    0    0  501  502 -0.00000000000E+00 -0.00000000000E+00 -0.49576189335E+03  0.49576189335E+03  0.00000000000E+00 0. -1.
         25    1    1    2    0    0  0.15816107478E+03 -0.15064266839E+03 -0.15380182490E+03  0.29493751958E+03  0.12500000000E+03 0.  0.
         25    1    1    2    0    0 -0.15816107478E+03  0.15064266839E+03 -0.21305125350E+03  0.32973318871E+03  0.12500000000E+03 0.  0.
</event>
<event>
 4    0  0.2259196E-002  0.2005502E+03  0.7546771E-02  0.1149276E+00
         21   -1    0    0  502  501  0.00000000000E+00  0.00000000000E+00  0.83767535937E+03  0.83767535937E+03  0.00000000000E+00 0.  1.
         21   -1    0    0  501  502 -0.00000000000E+00 -0.00000000000E+00 -0.48014290360E+02  0.48014290360E+02  0.00000000000E+00 0.  1.
         25    1    1    2    0    0 -0.94077696076E+02 -0.12138582472E+03  0.32464553638E+03  0.38026945135E+03  0.12500000000E+03 0.  0.
         25    1    1    2    0    0  0.94077696076E+02  0.12138582472E+03  0.46501553263E+03  0.50542019838E+03  0.12500000000E+03 0.  0.
</event>
<event>
 4    0  0.2259196E-002  0.2789926E+03  0.7546771E-02  0.1096240E+00
         21   -1    0    0  502  501  0.00000000000E+00  0.00000000000E+00  0.59941756500E+03  0.59941756500E+03  0.00000000000E+00 0. -1.
         21   -1    0    0  501  502 -0.00000000000E+00 -0.00000000000E+00 -0.12985419566E+03  0.12985419566E+03  0.00000000000E+00 0. -1.
         25    1    1    2    0    0  0.24312641290E+03  0.49915144669E+02  0.20250417145E+03  0.34385304096E+03  0.12500000000E+03 0.  0.
         25    1    1    2    0    0 -0.24312641290E+03 -0.49915144669E+02  0.26705919789E+03  0.38541871970E+03  0.12500000000E+03 0.  0.
</event>
<event>
 4    0  0.2259196E-002  0.2634538E+03  0.7546771E-02  0.1105086E+00
         21   -1    0    0  502  501  0.00000000000E+00  0.00000000000E+00  0.26178696762E+03  0.26178696762E+03  0.00000000000E+00 0.  1.
         21   -1    0    0  501  502 -0.00000000000E+00 -0.00000000000E+00 -0.26513118085E+03  0.26513118085E+03  0.00000000000E+00 0.  1.
         25    1    1    2    0    0 -0.17263125735E+03  0.83507092695E+02 -0.13208908188E+03  0.26428679705E+03  0.12500000000E+03 0.  0.
         25    1    1    2    0    0  0.17263125735E+03 -0.83507092695E+02  0.12874486865E+03  0.26263135142E+03  0.12500000000E+03 0.  0.
</event>
<event>
 4    0  0.2259196E-002  0.5791358E+03  0.7546771E-02  0.9949664E-01
         21   -1    0    0  502  501  0.00000000000E+00  0.00000000000E+00  0.34535960510E+03  0.34535960510E+03  0.00000000000E+00 0.  1.
         21   -1    0    0  501  502 -0.00000000000E+00 -0.00000000000E+00 -0.97115674382E+03  0.97115674382E+03  0.00000000000E+00 0. -1.
         25    1    1    2    0    0  0.56384750878E+03 -0.21904337105E+02 -0.35496118479E+03  0.67825235410E+03  0.12500000000E+03 0.  0.
         25    1    1    2    0    0 -0.56384750878E+03  0.21904337105E+02 -0.27083595394E+03  0.63826399482E+03  0.12500000000E+03 0.  0.
</event>
<event>
 4    0  0.2259196E-002  0.1816568E+03  0.7546771E-02  0.1166209E+00
         21   -1    0    0  502  501  0.00000000000E+00  0.00000000000E+00  0.37201093157E+03  0.37201093157E+03  0.00000000000E+00 0. -1.
         21   -1    0    0  501  502 -0.00000000000E+00 -0.00000000000E+00 -0.88704920723E+02  0.88704920723E+02  0.00000000000E+00 0. -1.
         25    1    1    2    0    0 -0.12906264082E+02  0.52033158541E+02 -0.11046677093E+02  0.13645896935E+03  0.12500000000E+03 0.  0.
         25    1    1    2    0    0  0.12906264082E+02 -0.52033158541E+02  0.29435268794E+03  0.32425688295E+03  0.12500000000E+03 0.  0.
</event>
<event>
 4    0  0.2259196E-002  0.2064282E+03  0.7546771E-02  0.1144426E+00
         21   -1    0    0  502  501  0.00000000000E+00  0.00000000000E+00  0.45814269047E+02  0.45814269047E+02  0.00000000000E+00 0.  1.
         21   -1    0    0  501  502 -0.00000000000E+00 -0.00000000000E+00 -0.93011593203E+03  0.93011593203E+03  0.00000000000E+00 0.  1.
         25    1    1    2    0    0  0.10035667848E+03 -0.10331270700E+03 -0.25538272957E+03  0.31873235936E+03  0.12500000000E+03 0.  0.
         25    1    1    2    0    0 -0.10035667848E+03  0.10331270700E+03 -0.62891893341E+03  0.65719784171E+03  0.12500000000E+03 0.  0.
</event>
<event>
 4    0  0.2259196E-002  0.1698347E+03  0.7546771E-02  0.1178020E+00
         21   -1    0    0  502  501  0.00000000000E+00  0.00000000000E+00  0.46185493818E+02  0.46185493818E+02  0.00000000000E+00 0.  1.
         21   -1    0    0  501  502 -0.00000000000E+00 -0.00000000000E+00 -0.62452150373E+03  0.62452150373E+03  0.00000000000E+00 0.  1.
         25    1    1    2    0    0 -0.92033189249E+02 -0.39134551387E+02 -0.40116754936E+03  0.43192826221E+03  0.12500000000E+03 0.  0.
         25    1    1    2    0    0  0.92033189249E+02  0.39134551387E+02 -0.17716846056E+03  0.23877873534E+03  0.12500000000E+03 0.  0.
</event>
<event>
 4    0  0.2259196E-002  0.1771854E+03  0.7546771E-02  0.1170555E+00
         21   -1    0    0  502  501  0.00000000000E+00  0.00000000000E+00  0.57512880336E+02  0.57512880336E+02  0.00000000000E+00 0. -1.
         21   -1    0    0  501  502 -0.00000000000E+00 -0.00000000000E+00 -0.54587161371E+03  0.54587161371E+03  0.00000000000E+00 0. -1.
         25    1    1    2    0    0 -0.48053105360E+01 -0.80170512727E+02 -0.79807783228E+02  0.16865551987E+03  0.12500000000E+03 0.  0.
         25    1    1    2    0    0  0.48053105360E+01  0.80170512727E+02 -0.40855095015E+03  0.43472897417E+03  0.12500000000E+03 0.  0.
</event>
<event>
 4    0  0.2259196E-002  0.1974738E+03  0.7546771E-02  0.1151888E+00
         21   -1    0    0  502  501  0.00000000000E+00  0.00000000000E+00  0.28274738459E+02  0.28274738459E+02  0.00000000000E+00 0.  1.
         21   -1    0    0  501  502 -0.00000000000E+00 -0.00000000000E+00 -0.13791782434E+04  0.13791782434E+04  0.00000000000E+00 0.  1.
         25    1    1    2    0    0 -0.12439789954E+03 -0.26211150999E+02 -0.37287665003E+03  0.41330842961E+03  0.12500000000E+03 0.  0.
         25    1    1    2    0    0  0.12439789954E+03  0.26211150999E+02 -0.97802685487E+03  0.99414455221E+03  0.12500000000E+03 0.  0.
</event>
<event>
 4    0  0.2259196E-002  0.1722322E+03  0.7546771E-02  0.1175540E+00
         21   -1    0    0  502  501  0.00000000000E+00  0.00000000000E+00  0.27017429808E+03  0.27017429808E+03  0.00000000000E+00 0.  1.
         21   -1    0    0  501  502 -0.00000000000E+00 -0.00000000000E+00 -0.10979554513E+03  0.10979554513E+03  0.00000000000E+00 0.  1.
         25    1    1    2    0    0  0.73029478705E+02  0.68225462744E+02  0.15039653029E+03  0.21961815692E+03  0.12500000000E+03 0.  0.
         25    1    1    2    0    0 -0.73029478705E+02 -0.68225462744E+02  0.99822226570E+01  0.16035168629E+03  0.12500000000E+03 0.  0.
</event>
<event>
 4    0  0.2259196E-002  0.2033129E+03  0.7546771E-02  0.1146974E+00
         21   -1    0    0  502  501  0.00000000000E+00  0.00000000000E+00  0.74980023773E+03  0.74980023773E+03  0.00000000000E+00 0.  1.
         21   -1    0    0  501  502 -0.00000000000E+00 -0.00000000000E+00 -0.55129548196E+02  0.55129548196E+02  0.00000000000E+00 0.  1.
         25    1    1    2    0    0 -0.57870260929E+02 -0.92802749578E+02  0.11521581716E+03  0.20214104470E+03  0.12500000000E+03 0.  0.
         25    1    1    2    0    0  0.57870260929E+02  0.92802749578E+02  0.57945487237E+03  0.60278874122E+03  0.12500000000E+03 0.  0.
</event>
<event>
 4    0  0.2259196E-002  0.1714683E+03  0.7546771E-02  0.1176325E+00
         21   -1    0    0  502  501  0.00000000000E+00  0.00000000000E+00  0.12037619295E+03  0.12037619295E+03  0.00000000000E+00 0.  1.
         21   -1    0    0  501  502 -0.00000000000E+00 -0.00000000000E+00 -0.24424566952E+03  0.24424566952E+03  0.00000000000E+00 0.  1.
         25    1    1    2    0    0  0.10734869332E+03 -0.24459270305E+02 -0.18688855513E+02  0.16761942364E+03  0.12500000000E+03 0.  0.
         25    1    1    2    0    0 -0.10734869332E+03  0.24459270305E+02 -0.10518062106E+03  0.19700243883E+03  0.12500000000E+03 0.  0.
</event>
<event>
 4    0  0.2259196E-002  0.2271523E+03  0.7546771E-02  0.1128660E+00
         21   -1    0    0  502  501  0.00000000000E+00  0.00000000000E+00  0.99561715410E+03  0.99561715410E+03  0.00000000000E+00 0.  1.
         21   -1    0    0  501  502 -0.00000000000E+00 -0.00000000000E+00 -0.51825291180E+02  0.51825291180E+02  0.00000000000E+00 0.  1.
         25    1    1    2    0    0 -0.18502998596E+03 -0.41301822138E+02  0.48477690759E+03  0.53532755053E+03  0.12500000000E+03 0.  0.
         25    1    1    2    0    0  0.18502998596E+03  0.41301822138E+02  0.45901495533E+03  0.51211489476E+03  0.12500000000E+03 0.  0.
</event>
<event>
 4    0  0.2259196E-002  0.3696328E+03  0.7546771E-02  0.1054833E+00
         21   -1    0    0  502  501  0.00000000000E+00  0.00000000000E+00  0.26501607941E+03  0.26501607941E+03  0.00000000000E+00 0.  1.
         21   -1    0    0  501  502 -0.00000000000E+00 -0.00000000000E+00 -0.51554759269E+03  0.51554759269E+03  0.00000000000E+00 0.  1.
         25    1    1    2    0    0  0.37144528913E+02 -0.32072648977E+03  0.11419473469E+02  0.34641102991E+03  0.12500000000E+03 0.  0.
         25    1    1    2    0    0 -0.37144528913E+02  0.32072648977E+03 -0.26195098674E+03  0.43415264219E+03  0.12500000000E+03 0.  0.
</event>
<event>
 4    0  0.2259196E-002  0.1875885E+03  0.7546771E-02  0.1160655E+00
         21   -1    0    0  502  501  0.00000000000E+00  0.00000000000E+00  0.50763961724E+03  0.50763961724E+03  0.00000000000E+00 0. -1.
         21   -1    0    0  501  502 -0.00000000000E+00 -0.00000000000E+00 -0.69319701753E+02  0.69319701753E+02  0.00000000000E+00 0. -1.
         25    1    1    2    0    0 -0.16766969751E+02  0.11443773044E+03  0.98194955555E+02  0.19658172529E+03  0.12500000000E+03 0.  0.
         25    1    1    2    0    0  0.16766969751E+02 -0.11443773044E+03  0.34012495993E+03  0.38037759370E+03  0.12500000000E+03 0.  0.
</event>
<event>
 4    0  0.2259196E-002  0.3567635E+03  0.7546771E-02  0.1059873E+00
         21   -1    0    0  502  501  0.00000000000E+00  0.00000000000E+00  0.44815220626E+03  0.44815220626E+03  0.00000000000E+00 0. -1.
         21   -1    0    0  501  502 -0.00000000000E+00 -0.00000000000E+00 -0.28401108938E+03  0.28401108938E+03  0.00000000000E+00 0. -1.
         25    1    1    2    0    0  0.41563258172E+02 -0.62722413152E+02  0.41614045450E+03  0.44097560410E+03  0.12500000000E+03 0.  0.
         25    1    1    2    0    0 -0.41563258172E+02  0.62722413152E+02 -0.25199933762E+03  0.29118769154E+03  0.12500000000E+03 0.  0.
</event>
<event>
 4    0  0.2259196E-002  0.1789316E+03  0.7546771E-02  0.1168841E+00
         21   -1    0    0  502  501  0.00000000000E+00  0.00000000000E+00  0.65512091752E+02  0.65512091752E+02  0.00000000000E+00 0. -1.
         21   -1    0    0  501  502 -0.00000000000E+00 -0.00000000000E+00 -0.48871153434E+03  0.48871153434E+03  0.00000000000E+00 0. -1.
         25    1    1    2    0    0 -0.10970060448E+03 -0.47342361635E+02 -0.28283992136E+03  0.33151009478E+03  0.12500000000E+03 0.  0.
         25    1    1    2    0    0  0.10970060448E+03  0.47342361635E+02 -0.14035952123E+03  0.22271353131E+03  0.12500000000E+03 0.  0.
</event>
<event>
 4    0  0.2259196E-002  0.1992302E+03  0.7546771E-02  0.1150390E+00
         21   -1    0    0  502  501  0.00000000000E+00  0.00000000000E+00  0.17968618890E+03  0.17968618890E+03  0.00000000000E+00 0. -1.
         21   -1    0    0  501  502 -0.00000000000E+00 -0.00000000000E+00 -0.22090006671E+03  0.22090006671E+03  0.00000000000E+00 0. -1.
         25    1    1    2    0    0  0.10712893937E+03  0.10704349863E+03 -0.54443156690E+02  0.20377432998E+03  0.12500000000E+03 0.  0.
         25    1    1    2    0    0 -0.10712893937E+03 -0.10704349863E+03  0.13229278875E+02  0.19681192562E+03  0.12500000000E+03 0.  0.
</event>
<event>
 4    0  0.2259196E-002  0.1883968E+03  0.7546771E-02  0.1159915E+00
         21   -1    0    0  502  501  0.00000000000E+00  0.00000000000E+00  0.31401690359E+02  0.31401690359E+02  0.00000000000E+00 0.  1.
         21   -1    0    0  501  502 -0.00000000000E+00 -0.00000000000E+00 -0.11303010364E+04  0.11303010364E+04  0.00000000000E+00 0.  1.
         25    1    1    2    0    0 -0.34436034757E+02 -0.83981609863E+00 -0.97085594768E+03  0.97947578680E+03  0.12500000000E+03 0.  0.
         25    1    1    2    0    0  0.34436034757E+02  0.83981609863E+00 -0.12804339834E+03  0.18222693994E+03  0.12500000000E+03 0.  0.
</event>
<event>
 4    0  0.2259196E-002  0.1993217E+03  0.7546771E-02  0.1150313E+00
         21   -1    0    0  502  501  0.00000000000E+00  0.00000000000E+00  0.15830977608E+04  0.15830977608E+04  0.00000000000E+00 0.  1.
         21   -1    0    0  501  502 -0.00000000000E+00 -0.00000000000E+00 -0.25095811695E+02  0.25095811695E+02  0.00000000000E+00 0.  1.
         25    1    1    2    0    0  0.13071860019E+03 -0.44077417301E+01  0.44154244714E+03  0.47717031891E+03  0.12500000000E+03 0.  0.
         25    1    1    2    0    0 -0.13071860019E+03  0.44077417301E+01  0.11164595020E+04  0.11310232536E+04  0.12500000000E+03 0.  0.
</event>
<event>
 4    0  0.2259196E-002  0.2198953E+03  0.7546771E-02  0.1133961E+00
         21   -1    0    0  502  501  0.00000000000E+00  0.00000000000E+00  0.28573735683E+03  0.28573735683E+03  0.00000000000E+00 0. -1.
         21   -1    0    0  501  502 -0.00000000000E+00 -0.00000000000E+00 -0.16922512374E+03  0.16922512374E+03  0.00000000000E+00 0. -1.
         25    1    1    2    0    0 -0.31767114432E+02  0.17737644827E+03  0.41659415026E+02  0.22323095848E+03  0.12500000000E+03 0.  0.
         25    1    1    2    0    0  0.31767114432E+02 -0.17737644827E+03  0.74852818066E+02  0.23173152210E+03  0.12500000000E+03 0.  0.
</event>
<event>
 4    0  0.2259196E-002  0.1572829E+03  0.7546771E-02  0.1191799E+00
         21   -1    0    0  502  501  0.00000000000E+00  0.00000000000E+00  0.90157828705E+02  0.90157828705E+02  0.00000000000E+00 0. -1.
         21   -1    0    0  501  502 -0.00000000000E+00 -0.00000000000E+00 -0.27438449543E+03  0.27438449543E+03  0.00000000000E+00 0. -1.
         25    1    1    2    0    0 -0.35575024726E+02 -0.61376807633E+02 -0.16613826318E+03  0.21968071693E+03  0.12500000000E+03 0.  0.
         25    1    1    2    0    0  0.35575024726E+02  0.61376807633E+02 -0.18088403550E+02  0.14486160721E+03  0.12500000000E+03 0.  0.
</event>
<event>
 4    0  0.2259196E-002  0.4423560E+03  0.7546771E-02  0.1030026E+00
         21   -1    0    0  502  501  0.00000000000E+00  0.00000000000E+00  0.17515739991E+03  0.17515739991E+03  0.00000000000E+00 0. -1.
         21   -1    0    0  501  502 -0.00000000000E+00 -0.00000000000E+00 -0.11171601533E+04  0.11171601533E+04  0.00000000000E+00 0. -1.
         25    1    1    2    0    0  0.36291087969E+03 -0.27344347644E+02 -0.15230348540E+03  0.41385187158E+03  0.12500000000E+03 0.  0.
         25    1    1    2    0    0 -0.36291087969E+03  0.27344347644E+02 -0.78969926801E+03  0.87846568166E+03  0.12500000000E+03 0.  0.
</event>
<event>
 4    0  0.2259196E-002  0.1753557E+03  0.7546771E-02  0.1172375E+00
         21   -1    0    0  502  501  0.00000000000E+00  0.00000000000E+00  0.17064430586E+04  0.17064430586E+04  0.00000000000E+00 0. -1.
         21   -1    0    0  501  502 -0.00000000000E+00 -0.00000000000E+00 -0.18019723117E+02  0.18019723117E+02  0.00000000000E+00 0. -1.
         25    1    1    2    0    0 -0.11006216826E+02  0.21769693447E+02  0.14369053926E+04  0.14425384445E+04  0.12500000000E+03 0.  0.
         25    1    1    2    0    0  0.11006216826E+02 -0.21769693447E+02  0.25151794281E+03  0.28192433722E+03  0.12500000000E+03 0.  0.
</event>
<event>
 4    0  0.2259196E-002  0.3164961E+03  0.7546771E-02  0.1077273E+00
         21   -1    0    0  502  501  0.00000000000E+00  0.00000000000E+00  0.20823703324E+03  0.20823703324E+03  0.00000000000E+00 0.  1.
         21   -1    0    0  501  502 -0.00000000000E+00 -0.00000000000E+00 -0.48103733563E+03  0.48103733563E+03  0.00000000000E+00 0.  1.
         25    1    1    2    0    0 -0.15322424005E+03 -0.24181623097E+03 -0.80961354103E+02  0.32269567422E+03  0.12500000000E+03 0.  0.
         25    1    1    2    0    0  0.15322424005E+03  0.24181623097E+03 -0.19183894829E+03  0.36657869466E+03  0.12500000000E+03 0.  0.
</event>
<event>
 4    0  0.2259196E-002  0.2823276E+03  0.7546771E-02  0.1094424E+00
         21   -1    0    0  502  501  0.00000000000E+00  0.00000000000E+00  0.35027245939E+02  0.35027245939E+02  0.00000000000E+00 0. -1.
         21   -1    0    0  501  502 -0.00000000000E+00 -0.00000000000E+00 -0.22756252526E+04  0.22756252526E+04  0.00000000000E+00 0. -1.
         25    1    1    2    0    0 -0.48802478320E+02 -0.21951483349E+03 -0.15960354114E+04  0.16166392543E+04  0.12500000000E+03 0.  0.
         25    1    1    2    0    0  0.48802478320E+02  0.21951483349E+03 -0.64456259531E+03  0.69401324431E+03  0.12500000000E+03 0.  0.
</event>
<event>
 4    0  0.2259196E-002  0.2024742E+03  0.7546771E-02  0.1147668E+00
         21   -1    0    0  502  501  0.00000000000E+00  0.00000000000E+00  0.32499055794E+03  0.32499055794E+03  0.00000000000E+00 0. -1.
         21   -1    0    0  501  502 -0.00000000000E+00 -0.00000000000E+00 -0.12614459582E+03  0.12614459582E+03  0.00000000000E+00 0. -1.
         25    1    1    2    0    0  0.11621848954E+03  0.74687182088E+02  0.11096613675E+02  0.18663613614E+03  0.12500000000E+03 0.  0.
         25    1    1    2    0    0 -0.11621848954E+03 -0.74687182088E+02  0.18774934844E+03  0.26449901761E+03  0.12500000000E+03 0.  0.
</event>
<event>
 4    0  0.2259196E-002  0.1913295E+03  0.7546771E-02  0.1157268E+00
         21   -1    0    0  502  501  0.00000000000E+00  0.00000000000E+00  0.12492896321E+03  0.12492896321E+03  0.00000000000E+00 0.  1.
         21   -1    0    0  501  502 -0.00000000000E+00 -0.00000000000E+00 -0.29302245366E+03  0.29302245366E+03  0.00000000000E+00 0.  1.
         25    1    1    2    0    0 -0.26453339006E+01 -0.60125532658E+02  0.59862127407E+02  0.15109782185E+03  0.12500000000E+03 0.  0.
         25    1    1    2    0    0  0.26453339006E+01  0.60125532658E+02 -0.22795561786E+03  0.26685359503E+03  0.12500000000E+03 0.  0.
</event>
<event>
 4    0  0.2259196E-002  0.1914799E+03  0.7546771E-02  0.1157133E+00
         21   -1    0    0  502  501  0.00000000000E+00  0.00000000000E+00  0.46683826315E+02  0.46683826315E+02  0.00000000000E+00 0. -1.
         21   -1    0    0  501  502 -0.00000000000E+00 -0.00000000000E+00 -0.78537994963E+03  0.78537994963E+03  0.00000000000E+00 0. -1.
         25    1    1    2    0    0  0.11335467265E+03  0.80333485445E+02 -0.45989571622E+03  0.49641899691E+03  0.12500000000E+03 0.  0.
         25    1    1    2    0    0 -0.11335467265E+03 -0.80333485445E+02 -0.27880040709E+03  0.33564477903E+03  0.12500000000E+03 0.  0.
</event>
<event>
 4    0  0.2259196E-002  0.2877266E+03  0.7546771E-02  0.1091542E+00
         21   -1    0    0  502  501  0.00000000000E+00  0.00000000000E+00  0.52341722230E+03  0.52341722230E+03  0.00000000000E+00 0.  1.
         21   -1    0    0  501  502 -0.00000000000E+00 -0.00000000000E+00 -0.15816562198E+03  0.15816562198E+03  0.00000000000E+00 0.  1.
         25    1    1    2    0    0  0.20632215555E+03  0.10677199951E+03  0.31866762983E+03  0.41369451296E+03  0.12500000000E+03 0.  0.
         25    1    1    2    0    0 -0.20632215555E+03 -0.10677199951E+03  0.46583970482E+02  0.26788833132E+03  0.12500000000E+03 0.  0.
</event>
<event>
 4    0  0.2259196E-002  0.2418133E+03  0.7546771E-02  0.1118591E+00
         21   -1    0    0  502  501  0.00000000000E+00  0.00000000000E+00  0.97555866353E+02  0.97555866353E+02  0.00000000000E+00 0.  1.
         21   -1    0    0  501  502 -0.00000000000E+00 -0.00000000000E+00 -0.59938661780E+03  0.59938661780E+03  0.00000000000E+00 0.  1.
         25    1    1    2    0    0  0.14035441742E+03  0.17969987587E+02 -0.46863893138E+03  0.50524224977E+03  0.12500000000E+03 0.  0.
         25    1    1    2    0    0 -0.14035441742E+03 -0.17969987587E+02 -0.33191820066E+02  0.19170023439E+03  0.12500000000E+03 0.  0.
</event>
<event>
 4    0  0.2259196E-002  0.3798543E+03  0.7546771E-02  0.1050988E+00
         21   -1    0    0  502  501  0.00000000000E+00  0.00000000000E+00  0.19127454188E+04  0.19127454188E+04  0.00000000000E+00 0.  1.
         21   -1    0    0  501  502 -0.00000000000E+00 -0.00000000000E+00 -0.75435715399E+02  0.75435715399E+02  0.00000000000E+00 0.  1.
         25    1    1    2    0    0 -0.34275671165E+03  0.10563148941E+03  0.93151406394E+03  0.10059739690E+04  0.12500000000E+03 0.  0.
         25    1    1    2    0    0  0.34275671165E+03 -0.10563148941E+03  0.90579563942E+03  0.98220716518E+03  0.12500000000E+03 0.  0.
</event>
<event>
 4    0  0.2259196E-002  0.2785232E+03  0.7546771E-02  0.1096498E+00
         21   -1    0    0  502  501  0.00000000000E+00  0.00000000000E+00  0.73745027068E+02  0.73745027068E+02  0.00000000000E+00 0.  1.
         21   -1    0    0  501  502 -0.00000000000E+00 -0.00000000000E+00 -0.10519380115E+04  0.10519380115E+04  0.00000000000E+00 0. -1.
         25    1    1    2    0    0  0.19835004174E+03  0.96684516953E+02 -0.25640030031E+03  0.36063381549E+03  0.12500000000E+03 0.  0.
         25    1    1    2    0    0 -0.19835004174E+03 -0.96684516953E+02 -0.72179268408E+03  0.76504922304E+03  0.12500000000E+03 0.  0.
</event>
<event>
 4    0  0.2259196E-002  0.3289369E+03  0.7546771E-02  0.1071608E+00
         21   -1    0    0  502  501  0.00000000000E+00  0.00000000000E+00  0.79039919022E+03  0.79039919022E+03  0.00000000000E+00 0.  1.
         21   -1    0    0  501  502 -0.00000000000E+00 -0.00000000000E+00 -0.13689221968E+03  0.13689221968E+03  0.00000000000E+00 0.  1.
         25    1    1    2    0    0 -0.11133936624E+03 -0.24267650690E+03  0.53240042767E+03  0.60857502155E+03  0.12500000000E+03 0.  0.
         25    1    1    2    0    0  0.11133936624E+03  0.24267650690E+03  0.12110654288E+03  0.31871638835E+03  0.12500000000E+03 0.  0.
</event>
<event>
 4    0  0.2259196E-002  0.2588447E+03  0.7546771E-02  0.1107839E+00
         21   -1    0    0  502  501  0.00000000000E+00  0.00000000000E+00  0.20518953534E+03  0.20518953534E+03  0.00000000000E+00 0.  1.
         21   -1    0    0  501  502 -0.00000000000E+00 -0.00000000000E+00 -0.32653030210E+03  0.32653030210E+03  0.00000000000E+00 0.  1.
         25    1    1    2    0    0 -0.99395202876E+02 -0.97767481631E-01  0.14855655710E+03  0.21811342593E+03  0.12500000000E+03 0.  0.
         25    1    1    2    0    0  0.99395202876E+02  0.97767481631E-01 -0.26989732387E+03  0.31360641151E+03  0.12500000000E+03 0.  0.
</event>
<event>
 4    0  0.2259196E-002  0.3735646E+03  0.7546771E-02  0.1053338E+00
         21   -1    0    0  502  501  0.00000000000E+00  0.00000000000E+00  0.14740800529E+03  0.14740800529E+03  0.00000000000E+00 0.  1.
         21   -1    0    0  501  502 -0.00000000000E+00 -0.00000000000E+00 -0.94669550641E+03  0.94669550641E+03  0.00000000000E+00 0.  1.
         25    1    1    2    0    0 -0.27977067755E+03 -0.17300422388E+03 -0.21601698153E+03  0.41290486774E+03  0.12500000000E+03 0.  0.
         25    1    1    2    0    0  0.27977067755E+03  0.17300422388E+03 -0.58327051960E+03  0.68119864395E+03  0.12500000000E+03 0.  0.
</event>
<event>
 4    0  0.2259196E-002  0.3383842E+03  0.7546771E-02  0.1067486E+00
         21   -1    0    0  502  501  0.00000000000E+00  0.00000000000E+00  0.70733815808E+02  0.70733815808E+02  0.00000000000E+00 0. -1.
         21   -1    0    0  501  502 -0.00000000000E+00 -0.00000000000E+00 -0.16187990888E+04  0.16187990888E+04  0.00000000000E+00 0. -1.
         25    1    1    2    0    0  0.20684694678E+03  0.21189575424E+03 -0.10381561111E+04  0.10867743929E+04  0.12500000000E+03 0.  0.
         25    1    1    2    0    0 -0.20684694678E+03 -0.21189575424E+03 -0.50990916190E+03  0.60275851172E+03  0.12500000000E+03 0.  0.
</event>
<event>
 4    0  0.2259196E-002  0.2141340E+03  0.7546771E-02  0.1138333E+00
         21   -1    0    0  502  501  0.00000000000E+00  0.00000000000E+00  0.64812994262E+03  0.64812994262E+03  0.00000000000E+00 0.  1.
         21   -1    0    0  501  502 -0.00000000000E+00 -0.00000000000E+00 -0.70747211546E+02  0.70747211546E+02  0.00000000000E+00 0.  1.
         25    1    1    2    0    0  0.10570814032E+03 -0.13261629424E+03  0.22439774083E+03  0.30779967270E+03  0.12500000000E+03 0.  0.
         25    1    1    2    0    0 -0.10570814032E+03  0.13261629424E+03  0.35298499025E+03  0.41107748146E+03  0.12500000000E+03 0.  0.
</event>
<event>
 4    0  0.2259196E-002  0.2118155E+03  0.7546771E-02  0.1140136E+00
         21   -1    0    0  502  501  0.00000000000E+00  0.00000000000E+00  0.13946428406E+03  0.13946428406E+03  0.00000000000E+00 0.  1.
         21   -1    0    0  501  502 -0.00000000000E+00 -0.00000000000E+00 -0.32170111638E+03  0.32170111638E+03  0.00000000000E+00 0.  1.
         25    1    1    2    0    0 -0.43826524388E+02  0.70441881869E+02  0.71655698885E+02  0.16625992344E+03  0.12500000000E+03 0.  0.
         25    1    1    2    0    0  0.43826524388E+02 -0.70441881869E+02 -0.25389253120E+03  0.29490547700E+03  0.12500000000E+03 0.  0.
</event>
<event>
 4    0  0.2259196E-002  0.1945333E+03  0.7546771E-02  0.1154435E+00
         21   -1    0    0  502  501  0.00000000000E+00  0.00000000000E+00  0.51308185727E+03  0.51308185727E+03  0.00000000000E+00 0.  1.
         21   -1    0    0  501  502 -0.00000000000E+00 -0.00000000000E+00 -0.73756698740E+02  0.73756698740E+02  0.00000000000E+00 0.  1.
         25    1    1    2    0    0 -0.61337345905E+02  0.12864045676E+03  0.28554002332E+03  0.34273713256E+03  0.12500000000E+03 0.  0.
         25    1    1    2    0    0  0.61337345905E+02 -0.12864045676E+03  0.15378513520E+03  0.24410142344E+03  0.12500000000E+03 0.  0.
</event>
<event>
 4    0  0.2259196E-002  0.3187191E+03  0.7546771E-02  0.1076240E+00
         21   -1    0    0  502  501  0.00000000000E+00  0.00000000000E+00  0.21638664610E+03  0.21638664610E+03  0.00000000000E+00 0. -1.
         21   -1    0    0  501  502 -0.00000000000E+00 -0.00000000000E+00 -0.46944608411E+03  0.46944608411E+03  0.00000000000E+00 0. -1.
         25    1    1    2    0    0  0.23149093517E+03 -0.50744600632E+02  0.59183596785E+02  0.27439162831E+03  0.12500000000E+03 0.  0.
         25    1    1    2    0    0 -0.23149093517E+03  0.50744600632E+02 -0.31224303479E+03  0.41144110190E+03  0.12500000000E+03 0.  0.
</event>
<event>
 4    0  0.2259196E-002  0.1904221E+03  0.7546771E-02  0.1158081E+00
         21   -1    0    0  502  501  0.00000000000E+00  0.00000000000E+00  0.28828247622E+03  0.28828247622E+03  0.00000000000E+00 0.  1.
         21   -1    0    0  501  502 -0.00000000000E+00 -0.00000000000E+00 -0.12578141848E+03  0.12578141848E+03  0.00000000000E+00 0.  1.
         25    1    1    2    0    0  0.68568888143E+02  0.79050134541E+02  0.18824688188E+03  0.24902310080E+03  0.12500000000E+03 0.  0.
         25    1    1    2    0    0 -0.68568888143E+02 -0.79050134541E+02 -0.25745824134E+02  0.16504079390E+03  0.12500000000E+03 0.  0.
</event>
<event>
 4    0  0.2259196E-002  0.2093519E+03  0.7546771E-02  0.1142080E+00
         21   -1    0    0  502  501  0.00000000000E+00  0.00000000000E+00  0.30968246760E+02  0.30968246760E+02  0.00000000000E+00 0. -1.
         21   -1    0    0  501  502 -0.00000000000E+00 -0.00000000000E+00 -0.14152634749E+04  0.14152634749E+04  0.00000000000E+00 0. -1.
         25    1    1    2    0    0 -0.13182640024E+03 -0.59894521118E+02 -0.39829438363E+03  0.44184722415E+03  0.12500000000E+03 0.  0.
         25    1    1    2    0    0  0.13182640024E+03  0.59894521118E+02 -0.98600084453E+03  0.10043844975E+04  0.12500000000E+03 0.  0.
</event>
<event>
 4    0  0.2259196E-002  0.1738583E+03  0.7546771E-02  0.1173883E+00
         21   -1    0    0  502  501  0.00000000000E+00  0.00000000000E+00  0.69198101144E+02  0.69198101144E+02  0.00000000000E+00 0. -1.
         21   -1    0    0  501  502 -0.00000000000E+00 -0.00000000000E+00 -0.43681391062E+03  0.43681391062E+03  0.00000000000E+00 0. -1.
         25    1    1    2    0    0 -0.24941310421E+02 -0.11627742725E+03 -0.21499169783E+03  0.27566091342E+03  0.12500000000E+03 0.  0.
         25    1    1    2    0    0  0.24941310421E+02  0.11627742725E+03 -0.15262411165E+03  0.23035109835E+03  0.12500000000E+03 0.  0.
</event>
<event>
 4    0  0.2259196E-002  0.1865207E+03  0.7546771E-02  0.1161637E+00
         21   -1    0    0  502  501  0.00000000000E+00  0.00000000000E+00  0.16396469234E+03  0.16396469234E+03  0.00000000000E+00 0.  1.
         21   -1    0    0  501  502 -0.00000000000E+00 -0.00000000000E+00 -0.21217964032E+03  0.21217964032E+03  0.00000000000E+00 0.  1.
         25    1    1    2    0    0 -0.89411324362E+02  0.33879889018E+02 -0.12505383889E+03  0.20101167733E+03  0.12500000000E+03 0.  0.
         25    1    1    2    0    0  0.89411324362E+02 -0.33879889018E+02  0.76838890909E+02  0.17513265532E+03  0.12500000000E+03 0.  0.
</event>
<event>
 4    0  0.2259196E-002  0.2306979E+03  0.7546771E-02  0.1126150E+00
         21   -1    0    0  502  501  0.00000000000E+00  0.00000000000E+00  0.13024887897E+04  0.13024887897E+04  0.00000000000E+00 0.  1.
         21   -1    0    0  501  502 -0.00000000000E+00 -0.00000000000E+00 -0.40861402338E+02  0.40861402338E+02  0.00000000000E+00 0.  1.
         25    1    1    2    0    0 -0.21798175860E+02  0.54564965483E+02  0.11688021507E+04  0.11769349869E+04  0.12500000000E+03 0.  0.
         25    1    1    2    0    0  0.21798175860E+02 -0.54564965483E+02  0.92825236608E+02  0.16641520508E+03  0.12500000000E+03 0.  0.
</event>
<event>
 4    0  0.2259196E-002  0.1972813E+03  0.7546771E-02  0.1152053E+00
         21   -1    0    0  502  501  0.00000000000E+00  0.00000000000E+00  0.18327152979E+03  0.18327152979E+03  0.00000000000E+00 0. -1.
         21   -1    0    0  501  502 -0.00000000000E+00 -0.00000000000E+00 -0.21236204578E+03  0.21236204578E+03  0.00000000000E+00 0. -1.
         25    1    1    2    0    0 -0.51657144930E+02  0.37890587865E+02  0.12436146847E+03  0.18760312393E+03  0.12500000000E+03 0.  0.
         25    1    1    2    0    0  0.51657144930E+02 -0.37890587865E+02 -0.15345198446E+03  0.20803045163E+03  0.12500000000E+03 0.  0.
</event>
<event>
 4    0  0.2259196E-002  0.2813963E+03  0.7546771E-02  0.1094929E+00
         21   -1    0    0  502  501  0.00000000000E+00  0.00000000000E+00  0.42747254102E+03  0.42747254102E+03  0.00000000000E+00 0. -1.
         21   -1    0    0  501  502 -0.00000000000E+00 -0.00000000000E+00 -0.18523731619E+03  0.18523731619E+03  0.00000000000E+00 0. -1.
         25    1    1    2    0    0 -0.23668808517E+03  0.11493713239E+02  0.27429596904E+02  0.26931531314E+03  0.12500000000E+03 0.  0.
         25    1    1    2    0    0  0.23668808517E+03 -0.11493713239E+02  0.21480562793E+03  0.34339454407E+03  0.12500000000E+03 0.  0.
</event>
<event>
 4    0  0.2259196E-002  0.2474537E+03  0.7546771E-02  0.1114925E+00
         21   -1    0    0  502  501  0.00000000000E+00  0.00000000000E+00  0.11591926820E+03  0.11591926820E+03  0.00000000000E+00 0. -1.
         21   -1    0    0  501  502 -0.00000000000E+00 -0.00000000000E+00 -0.52824104023E+03  0.52824104023E+03  0.00000000000E+00 0. -1.
         25    1    1    2    0    0  0.17371901155E+03 -0.12421688910E+03 -0.20671966048E+03  0.32243782120E+03  0.12500000000E+03 0.  0.
         25    1    1    2    0    0 -0.17371901155E+03  0.12421688910E+03 -0.20560211155E+03  0.32172248723E+03  0.12500000000E+03 0.  0.
</event>
<event>
 4    0  0.2259196E-002  0.2832130E+03  0.7546771E-02  0.1093947E+00
         21   -1    0    0  502  501  0.00000000000E+00  0.00000000000E+00  0.10465353943E+03  0.10465353943E+03  0.00000000000E+00 0. -1.
         21   -1    0    0  501  502 -0.00000000000E+00 -0.00000000000E+00 -0.76643010455E+03  0.76643010455E+03  0.00000000000E+00 0. -1.
         25    1    1    2    0    0 -0.25105055949E+03  0.35033449434E+02 -0.30291372983E+03  0.41428909438E+03  0.12500000000E+03 0.  0.
         25    1    1    2    0    0  0.25105055949E+03 -0.35033449434E+02 -0.35886283528E+03  0.45679454960E+03  0.12500000000E+03 0.  0.
</event>
<event>
 4    0  0.2259196E-002  0.2498541E+03  0.7546771E-02  0.1113397E+00
         21   -1    0    0  502  501  0.00000000000E+00  0.00000000000E+00  0.42680777400E+03  0.42680777400E+03  0.00000000000E+00 0.  1.
         21   -1    0    0  501  502 -0.00000000000E+00 -0.00000000000E+00 -0.14626511457E+03  0.14626511457E+03  0.00000000000E+00 0.  1.
         25    1    1    2    0    0  0.61770667441E+02  0.16650723228E+02 -0.96731853704E+02  0.17051367529E+03  0.12500000000E+03 0.  0.
         25    1    1    2    0    0 -0.61770667441E+02 -0.16650723228E+02  0.37727451313E+03  0.40255921328E+03  0.12500000000E+03 0.  0.
</event>
<event>
 4    0  0.2259196E-002  0.2221008E+03  0.7546771E-02  0.1132326E+00
         21   -1    0    0  502  501  0.00000000000E+00  0.00000000000E+00  0.22388201311E+03  0.22388201311E+03  0.00000000000E+00 0. -1.
         21   -1    0    0  501  502 -0.00000000000E+00 -0.00000000000E+00 -0.22033375413E+03  0.22033375413E+03  0.00000000000E+00 0. -1.
         25    1    1    2    0    0  0.15411760966E+03  0.51155468725E+02 -0.83871143861E+02  0.22142377551E+03  0.12500000000E+03 0.  0.
         25    1    1    2    0    0 -0.15411760966E+03 -0.51155468725E+02  0.87419402841E+02  0.22279199174E+03  0.12500000000E+03 0.  0.
</event>
<event>
 4    0  0.2259196E-002  0.1730791E+03  0.7546771E-02  0.1174674E+00
         21   -1    0    0  502  501  0.00000000000E+00  0.00000000000E+00  0.29431063412E+03  0.29431063412E+03  0.00000000000E+00 0. -1.
         21   -1    0    0  501  502 -0.00000000000E+00 -0.00000000000E+00 -0.10178486584E+03  0.10178486584E+03  0.00000000000E+00 0. -1.
         25    1    1    2    0    0 -0.18925469857E+02 -0.56527450711E+02 -0.22530223574E+02  0.14030729513E+03  0.12500000000E+03 0.  0.
         25    1    1    2    0    0  0.18925469857E+02  0.56527450711E+02  0.21505599186E+03  0.25578820483E+03  0.12500000000E+03 0.  0.
</event>
<event>
 4    0  0.2259196E-002  0.3287962E+03  0.7546771E-02  0.1071671E+00
         21   -1    0    0  502  501  0.00000000000E+00  0.00000000000E+00  0.13833630350E+03  0.13833630350E+03  0.00000000000E+00 0.  1.
         21   -1    0    0  501  502 -0.00000000000E+00 -0.00000000000E+00 -0.78147896594E+03  0.78147896594E+03  0.00000000000E+00 0.  1.
         25    1    1    2    0    0 -0.28623828212E+03 -0.14812379279E+02 -0.17940484896E+03  0.36050362073E+03  0.12500000000E+03 0.  0.
         25    1    1    2    0    0  0.28623828212E+03  0.14812379279E+02 -0.46373781348E+03  0.55931164870E+03  0.12500000000E+03 0.  0.
</event>
<event>
 4    0  0.2259196E-002  0.1887032E+03  0.7546771E-02  0.1159636E+00
         21   -1    0    0  502  501  0.00000000000E+00  0.00000000000E+00  0.99757753072E+02  0.99757753072E+02  0.00000000000E+00 0. -1.
         21   -1    0    0  501  502 -0.00000000000E+00 -0.00000000000E+00 -0.35695363046E+03  0.35695363046E+03  0.00000000000E+00 0. -1.
         25    1    1    2    0    0  0.92702666688E+02 -0.93724305111E+02 -0.66823565831E+02  0.19356760765E+03  0.12500000000E+03 0.  0.
         25    1    1    2    0    0 -0.92702666688E+02  0.93724305111E+02 -0.19037231156E+03  0.26314377588E+03  0.12500000000E+03 0.  0.
</event>
<event>
 4    0  0.2259196E-002  0.1973197E+03  0.7546771E-02  0.1152020E+00
         21   -1    0    0  502  501  0.00000000000E+00  0.00000000000E+00  0.13474981960E+04  0.13474981960E+04  0.00000000000E+00 0. -1.
         21   -1    0    0  501  502 -0.00000000000E+00 -0.00000000000E+00 -0.28894348470E+02  0.28894348470E+02  0.00000000000E+00 0. -1.
         25    1    1    2    0    0  0.85052633721E+02  0.99401941868E+02  0.38478068645E+03  0.42520097979E+03  0.12500000000E+03 0.  0.
         25    1    1    2    0    0 -0.85052633721E+02 -0.99401941868E+02  0.93382316110E+03  0.95119156470E+03  0.12500000000E+03 0.  0.
</event>
<event>
 4    0  0.2259196E-002  0.2051018E+03  0.7546771E-02  0.1145505E+00
         21   -1    0    0  502  501  0.00000000000E+00  0.00000000000E+00  0.78234917143E+02  0.78234917143E+02  0.00000000000E+00 0.  1.
         21   -1    0    0  501  502 -0.00000000000E+00 -0.00000000000E+00 -0.53769794928E+03  0.53769794928E+03  0.00000000000E+00 0.  1.
         25    1    1    2    0    0 -0.14987263121E+03 -0.57175019162E+02 -0.26976822113E+03  0.33783232755E+03  0.12500000000E+03 0.  0.
         25    1    1    2    0    0  0.14987263121E+03  0.57175019162E+02 -0.18969481101E+03  0.27810053888E+03  0.12500000000E+03 0.  0.
</event>
<event>
 4    0  0.2259196E-002  0.2317165E+03  0.7546771E-02  0.1125437E+00
         21   -1    0    0  502  501  0.00000000000E+00  0.00000000000E+00  0.24621219698E+03  0.24621219698E+03  0.00000000000E+00 0.  1.
         21   -1    0    0  501  502 -0.00000000000E+00 -0.00000000000E+00 -0.21807428091E+03  0.21807428091E+03  0.00000000000E+00 0.  1.
         25    1    1    2    0    0 -0.15986465384E+03  0.72092272213E+02 -0.71607792938E+02  0.22695083007E+03  0.12500000000E+03 0.  0.
         25    1    1    2    0    0  0.15986465384E+03 -0.72092272213E+02  0.99745709010E+02  0.23733564782E+03  0.12500000000E+03 0.  0.
</event>
<event>
 4    0  0.2259196E-002  0.2307497E+03  0.7546771E-02  0.1126113E+00
         21   -1    0    0  502  501  0.00000000000E+00  0.00000000000E+00  0.25050570739E+03  0.25050570739E+03  0.00000000000E+00 0.  1.
         21   -1    0    0  501  502 -0.00000000000E+00 -0.00000000000E+00 -0.21255178974E+03  0.21255178974E+03  0.00000000000E+00 0.  1.
         25    1    1    2    0    0 -0.17247571454E+03 -0.11861248307E+02  0.10720489990E+03  0.23876023932E+03  0.12500000000E+03 0.  0.
         25    1    1    2    0    0  0.17247571454E+03  0.11861248307E+02 -0.69250982257E+02  0.22429725781E+03  0.12500000000E+03 0.  0.
</event>
<event>
 4    0  0.2259196E-002  0.2578224E+03  0.7546771E-02  0.1108459E+00
         21   -1    0    0  502  501  0.00000000000E+00  0.00000000000E+00  0.76085253621E+03  0.76085253621E+03  0.00000000000E+00 0. -1.
         21   -1    0    0  501  502 -0.00000000000E+00 -0.00000000000E+00 -0.87365637904E+02  0.87365637904E+02  0.00000000000E+00 0. -1.
         25    1    1    2    0    0  0.18703552835E+03 -0.73864663586E+02  0.16891584967E+03  0.29085364302E+03  0.12500000000E+03 0.  0.
         25    1    1    2    0    0 -0.18703552835E+03  0.73864663586E+02  0.50457104864E+03  0.55736453109E+03  0.12500000000E+03 0.  0.
</event>
<event>
 4    0  0.2259196E-002  0.2893990E+03  0.7546771E-02  0.1090663E+00
         21   -1    0    0  502  501  0.00000000000E+00  0.00000000000E+00  0.13114804880E+03  0.13114804880E+03  0.00000000000E+00 0. -1.
         21   -1    0    0  501  502 -0.00000000000E+00 -0.00000000000E+00 -0.63860493802E+03  0.63860493802E+03  0.00000000000E+00 0. -1.
         25    1    1    2    0    0  0.75145888236E+02 -0.20802413405E+03 -0.43803511915E+03  0.50638000600E+03  0.12500000000E+03 0.  0.
         25    1    1    2    0    0 -0.75145888236E+02  0.20802413405E+03 -0.69421770073E+02  0.26337298082E+03  0.12500000000E+03 0.  0.
</event>
<event>
 4    0  0.2259196E-002  0.1986942E+03  0.7546771E-02  0.1150845E+00
         21   -1    0    0  502  501  0.00000000000E+00  0.00000000000E+00  0.16418712073E+03  0.16418712073E+03  0.00000000000E+00 0.  1.
         21   -1    0    0  501  502 -0.00000000000E+00 -0.00000000000E+00 -0.24045350738E+03  0.24045350738E+03  0.00000000000E+00 0.  1.
         25    1    1    2    0    0 -0.63650224136E+02  0.11069144519E+03 -0.12661215163E+03  0.21899676712E+03  0.12500000000E+03 0.  0.
         25    1    1    2    0    0  0.63650224136E+02 -0.11069144519E+03  0.50345764979E+02  0.18564386099E+03  0.12500000000E+03 0.  0.
</event>
<event>
 4    0  0.2259196E-002  0.2030002E+03  0.7546771E-02  0.1147232E+00
         21   -1    0    0  502  501  0.00000000000E+00  0.00000000000E+00  0.72646123008E+02  0.72646123008E+02  0.00000000000E+00 0.  1.
         21   -1    0    0  501  502 -0.00000000000E+00 -0.00000000000E+00 -0.56725774022E+03  0.56725774022E+03  0.00000000000E+00 0.  1.
         25    1    1    2    0    0  0.14694328616E+03  0.61521484784E+02 -0.22463748749E+03  0.30243052627E+03  0.12500000000E+03 0.  0.
         25    1    1    2    0    0 -0.14694328616E+03 -0.61521484784E+02 -0.26997412973E+03  0.33747333696E+03  0.12500000000E+03 0.  0.
</event>
<event>
 4    0  0.2259196E-002  0.1870317E+03  0.7546771E-02  0.1161166E+00
         21   -1    0    0  502  501  0.00000000000E+00  0.00000000000E+00  0.67939302381E+02  0.67939302381E+02  0.00000000000E+00 0. -1.
         21   -1    0    0  501  502 -0.00000000000E+00 -0.00000000000E+00 -0.51488382446E+03  0.51488382446E+03  0.00000000000E+00 0. -1.
         25    1    1    2    0    0 -0.18297061359E+02  0.13038657013E+03 -0.15343790746E+03  0.23770492542E+03  0.12500000000E+03 0.  0.
         25    1    1    2    0    0  0.18297061359E+02 -0.13038657013E+03 -0.29350661462E+03  0.34511820142E+03  0.12500000000E+03 0.  0.
</event>
<event>
 4    0  0.2259196E-002  0.2138516E+03  0.7546771E-02  0.1138552E+00
         21   -1    0    0  502  501  0.00000000000E+00  0.00000000000E+00  0.55270667979E+02  0.55270667979E+02  0.00000000000E+00 0.  1.
         21   -1    0    0  501  502 -0.00000000000E+00 -0.00000000000E+00 -0.82742804187E+03  0.82742804187E+03  0.00000000000E+00 0.  1.
         25    1    1    2    0    0  0.11757814735E+03  0.11541958134E+03 -0.49838492983E+03  0.53959136277E+03  0.12500000000E+03 0.  0.
         25    1    1    2    0    0 -0.11757814735E+03 -0.11541958134E+03 -0.27377244406E+03  0.34310734708E+03  0.12500000000E+03 0.  0.
</event>
<event>
 4    0  0.2259196E-002  0.2715864E+03  0.7546771E-02  0.1100375E+00
         21   -1    0    0  502  501  0.00000000000E+00  0.00000000000E+00  0.46366017056E+03  0.46366017056E+03  0.00000000000E+00 0.  1.
         21   -1    0    0  501  502 -0.00000000000E+00 -0.00000000000E+00 -0.15908019741E+03  0.15908019741E+03  0.00000000000E+00 0.  1.
         25    1    1    2    0    0  0.12438952146E+03  0.13142780179E+03  0.33496722409E+03  0.40071693418E+03  0.12500000000E+03 0.  0.
         25    1    1    2    0    0 -0.12438952146E+03 -0.13142780179E+03 -0.30387250931E+02  0.22202343378E+03  0.12500000000E+03 0.  0.
</event>
<event>
 4    0  0.2259196E-002  0.1526919E+03  0.7546771E-02  0.1197204E+00
         21   -1    0    0  502  501  0.00000000000E+00  0.00000000000E+00  0.24316589086E+03  0.24316589086E+03  0.00000000000E+00 0.  1.
         21   -1    0    0  501  502 -0.00000000000E+00 -0.00000000000E+00 -0.95880332029E+02  0.95880332029E+02  0.00000000000E+00 0.  1.
         25    1    1    2    0    0 -0.18907097473E+02 -0.78782264538E+02  0.11089264398E+03  0.18570487885E+03  0.12500000000E+03 0.  0.
         25    1    1    2    0    0  0.18907097473E+02  0.78782264538E+02  0.36392914856E+02  0.15334134404E+03  0.12500000000E+03 0.  0.
</event>
<event>
 4    0  0.2259196E-002  0.2537102E+03  0.7546771E-02  0.1110982E+00
         21   -1    0    0  502  501  0.00000000000E+00  0.00000000000E+00  0.65857557714E+02  0.65857557714E+02  0.00000000000E+00 0. -1.
         21   -1    0    0  501  502 -0.00000000000E+00 -0.00000000000E+00 -0.97739556643E+03  0.97739556643E+03  0.00000000000E+00 0. -1.
         25    1    1    2    0    0 -0.17049718652E+03 -0.91520881256E+02 -0.23722820119E+03  0.33067745880E+03  0.12500000000E+03 0.  0.
         25    1    1    2    0    0  0.17049718652E+03  0.91520881256E+02 -0.67430980753E+03  0.71257566535E+03  0.12500000000E+03 0.  0.
</event>
<event>
 4    0  0.2259196E-002  0.2041922E+03  0.7546771E-02  0.1146249E+00
         21   -1    0    0  502  501  0.00000000000E+00  0.00000000000E+00  0.68646164482E+02  0.68646164482E+02  0.00000000000E+00 0. -1.
         21   -1    0    0  501  502 -0.00000000000E+00 -0.00000000000E+00 -0.60738217354E+03  0.60738217354E+03  0.00000000000E+00 0. -1.
         25    1    1    2    0    0  0.13003080213E+03 -0.94838461244E+02 -0.29076739110E+03  0.35506762590E+03  0.12500000000E+03 0.  0.
         25    1    1    2    0    0 -0.13003080213E+03  0.94838461244E+02 -0.24796861796E+03  0.32096071213E+03  0.12500000000E+03 0.  0.
</event>
<event>
 4    0  0.2259196E-002  0.1945508E+03  0.7546771E-02  0.1154420E+00
         21   -1    0    0  502  501  0.00000000000E+00  0.00000000000E+00  0.17764230823E+03  0.17764230823E+03  0.00000000000E+00 0. -1.
         21   -1    0    0  501  502 -0.00000000000E+00 -0.00000000000E+00 -0.21306875622E+03  0.21306875622E+03  0.00000000000E+00 0. -1.
         25    1    1    2    0    0  0.93721455434E+02  0.40578419551E+02  0.91339417892E+02  0.18546754056E+03  0.12500000000E+03 0.  0.
         25    1    1    2    0    0 -0.93721455434E+02 -0.40578419551E+02 -0.12676586589E+03  0.20524352388E+03  0.12500000000E+03 0.  0.
</event>
<event>
 4    0  0.2259196E-002  0.2246650E+03  0.7546771E-02  0.1130452E+00
         21   -1    0    0  502  501  0.00000000000E+00  0.00000000000E+00  0.33272795709E+02  0.33272795709E+02  0.00000000000E+00 0.  1.
         21   -1    0    0  501  502 -0.00000000000E+00 -0.00000000000E+00 -0.15169855750E+04  0.15169855750E+04  0.00000000000E+00 0.  1.
         25    1    1    2    0    0 -0.11232320590E+03  0.13977460875E+03 -0.56271695715E+03  0.60367939976E+03  0.12500000000E+03 0.  0.
         25    1    1    2    0    0  0.11232320590E+03 -0.13977460875E+03 -0.92099582212E+03  0.94657897093E+03  0.12500000000E+03 0.  0.
</event>
<event>
 4    0  0.2259196E-002  0.2011739E+03  0.7546771E-02  0.1148752E+00
         21   -1    0    0  502  501  0.00000000000E+00  0.00000000000E+00  0.73080270635E+02  0.73080270635E+02  0.00000000000E+00 0.  1.
         21   -1    0    0  501  502 -0.00000000000E+00 -0.00000000000E+00 -0.55378747968E+03  0.55378747968E+03  0.00000000000E+00 0.  1.
         25    1    1    2    0    0  0.11641495056E+03  0.10458593221E+03 -0.21098655885E+03  0.29091405251E+03  0.12500000000E+03 0.  0.
         25    1    1    2    0    0 -0.11641495056E+03 -0.10458593221E+03 -0.26972065019E+03  0.33595369781E+03  0.12500000000E+03 0.  0.
</event>
<event>
 4    0  0.2259196E-002  0.1758067E+03  0.7546771E-02  0.1171924E+00
         21   -1    0    0  502  501  0.00000000000E+00  0.00000000000E+00  0.12562598618E+02  0.12562598618E+02  0.00000000000E+00 0.  1.
         21   -1    0    0  501  502 -0.00000000000E+00 -0.00000000000E+00 -0.24603179578E+04  0.24603179578E+04  0.00000000000E+00 0.  1.
         25    1    1    2    0    0  0.52064196520E+02 -0.11203848269E+03 -0.12550811887E+04  0.12673267505E+04  0.12500000000E+03 0.  0.
         25    1    1    2    0    0 -0.52064196520E+02  0.11203848269E+03 -0.11926741705E+04  0.12055538060E+04  0.12500000000E+03 0.  0.
</event>
<event>
 4    0  0.2259196E-002  0.1481780E+03  0.7546771E-02  0.1202730E+00
         21   -1    0    0  502  501  0.00000000000E+00  0.00000000000E+00  0.70678928848E+03  0.70678928848E+03  0.00000000000E+00 0.  1.
         21   -1    0    0  501  502 -0.00000000000E+00 -0.00000000000E+00 -0.31065434429E+02  0.31065434429E+02  0.00000000000E+00 0.  1.
         25    1    1    2    0    0  0.36851569385E+02 -0.20080833684E+02  0.16954178326E+03  0.21478057249E+03  0.12500000000E+03 0.  0.
         25    1    1    2    0    0 -0.36851569385E+02  0.20080833684E+02  0.50618207080E+03  0.52307415043E+03  0.12500000000E+03 0.  0.
</event>
<event>
 4    0  0.2259196E-002  0.3163307E+03  0.7546771E-02  0.1077351E+00
         21   -1    0    0  502  501  0.00000000000E+00  0.00000000000E+00  0.69336481471E+02  0.69336481471E+02  0.00000000000E+00 0. -1.
         21   -1    0    0  501  502 -0.00000000000E+00 -0.00000000000E+00 -0.14431811277E+04  0.14431811277E+04  0.00000000000E+00 0. -1.
         25    1    1    2    0    0  0.13740923980E+03  0.23502363215E+03 -0.92982128832E+03  0.97688793373E+03  0.12500000000E+03 0.  0.
         25    1    1    2    0    0 -0.13740923980E+03 -0.23502363215E+03 -0.44402335794E+03  0.53562967548E+03  0.12500000000E+03 0.  0.
</event>
<event>
 4    0  0.2259196E-002  0.2049978E+03  0.7546771E-02  0.1145590E+00
         21   -1    0    0  502  501  0.00000000000E+00  0.00000000000E+00  0.71126956330E+03  0.71126956330E+03  0.00000000000E+00 0. -1.
         21   -1    0    0  501  502 -0.00000000000E+00 -0.00000000000E+00 -0.59083250042E+02  0.59083250042E+02  0.00000000000E+00 0. -1.
         25    1    1    2    0    0 -0.70705819650E+02  0.14595581102E+03  0.30761594085E+03  0.36953346096E+03  0.12500000000E+03 0.  0.
         25    1    1    2    0    0  0.70705819650E+02 -0.14595581102E+03  0.34457037240E+03  0.40081935238E+03  0.12500000000E+03 0.  0.
</event>
<event>
 4    0  0.2259196E-002  0.1379559E+03  0.7546771E-02  0.1216106E+00
         21   -1    0    0  502  501  0.00000000000E+00  0.00000000000E+00  0.10645766044E+04  0.10645766044E+04  0.00000000000E+00 0. -1.
         21   -1    0    0  501  502 -0.00000000000E+00 -0.00000000000E+00 -0.17877359669E+02  0.17877359669E+02  0.00000000000E+00 0. -1.
         25    1    1    2    0    0 -0.61494906685E+01  0.16307200250E+02  0.74189198131E+03  0.75255063148E+03  0.12500000000E+03 0.  0.
         25    1    1    2    0    0  0.61494906685E+01 -0.16307200250E+02  0.30480726342E+03  0.32990333258E+03  0.12500000000E+03 0.  0.
</event>
<event>
 4    0  0.2259196E-002  0.2041436E+03  0.7546771E-02  0.1146289E+00
         21   -1    0    0  502  501  0.00000000000E+00  0.00000000000E+00  0.11047192618E+04  0.11047192618E+04  0.00000000000E+00 0.  1.
         21   -1    0    0  501  502 -0.00000000000E+00 -0.00000000000E+00 -0.37724150769E+02  0.37724150769E+02  0.00000000000E+00 0.  1.
         25    1    1    2    0    0 -0.81654438995E+02  0.89956965486E+02  0.83081056628E+03  0.84889981746E+03  0.12500000000E+03 0.  0.
         25    1    1    2    0    0  0.81654438995E+02 -0.89956965486E+02  0.23618454474E+03  0.29354359509E+03  0.12500000000E+03 0.  0.
</event>
<event>
 4    0  0.2259196E-002  0.2457672E+03  0.7546771E-02  0.1116009E+00
         21   -1    0    0  502  501  0.00000000000E+00  0.00000000000E+00  0.18955739047E+02  0.18955739047E+02  0.00000000000E+00 0. -1.
         21   -1    0    0  501  502 -0.00000000000E+00 -0.00000000000E+00 -0.31864512027E+04  0.31864512027E+04  0.00000000000E+00 0. -1.
         25    1    1    2    0    0  0.74147173438E+02 -0.92092670681E+02 -0.27281748511E+04  0.27335950471E+04  0.12500000000E+03 0.  0.
         25    1    1    2    0    0 -0.74147173438E+02  0.92092670681E+02 -0.43932061255E+03  0.47181189465E+03  0.12500000000E+03 0.  0.
</event>
<event>
 4    0  0.2259196E-002  0.2870501E+03  0.7546771E-02  0.1091899E+00
         21   -1    0    0  502  501  0.00000000000E+00  0.00000000000E+00  0.52813660718E+02  0.52813660718E+02  0.00000000000E+00 0. -1.
         21   -1    0    0  501  502 -0.00000000000E+00 -0.00000000000E+00 -0.15601597123E+04  0.15601597123E+04  0.00000000000E+00 0. -1.
         25    1    1    2    0    0 -0.24648893482E+03 -0.15043169941E+02 -0.53989363574E+03  0.60670687309E+03  0.12500000000E+03 0.  0.
         25    1    1    2    0    0  0.24648893482E+03  0.15043169941E+02 -0.96745241586E+03  0.10062664999E+04  0.12500000000E+03 0.  0.
</event>
<event>
 4    0  0.2259196E-002  0.3652663E+03  0.7546771E-02  0.1056518E+00
         21   -1    0    0  502  501  0.00000000000E+00  0.00000000000E+00  0.27749208608E+03  0.27749208608E+03  0.00000000000E+00 0. -1.
         21   -1    0    0  501  502 -0.00000000000E+00 -0.00000000000E+00 -0.48080458454E+03  0.48080458454E+03  0.00000000000E+00 0. -1.
         25    1    1    2    0    0 -0.17042399922E+03 -0.19503262687E+02 -0.41022459106E+03  0.46188086329E+03  0.12500000000E+03 0.  0.
         25    1    1    2    0    0  0.17042399922E+03  0.19503262687E+02  0.20691209261E+03  0.29641580732E+03  0.12500000000E+03 0.  0.
</event>
<event>
 4    0  0.2259196E-002  0.4401182E+03  0.7546771E-02  0.1030711E+00
         21   -1    0    0  502  501  0.00000000000E+00  0.00000000000E+00  0.88608414345E+02  0.88608414345E+02  0.00000000000E+00 0. -1.
         21   -1    0    0  501  502 -0.00000000000E+00 -0.00000000000E+00 -0.21860678612E+04  0.21860678612E+04  0.00000000000E+00 0. -1.
         25    1    1    2    0    0 -0.34974305106E+03 -0.45139668440E+02 -0.44977607456E+03  0.58504812510E+03  0.12500000000E+03 0.  0.
         25    1    1    2    0    0  0.34974305106E+03  0.45139668440E+02 -0.16476833722E+04  0.16896281504E+04  0.12500000000E+03 0.  0.
</event>
<event>
 4    0  0.2259196E-002  0.2045802E+03  0.7546771E-02  0.1145931E+00
         21   -1    0    0  502  501  0.00000000000E+00  0.00000000000E+00  0.42966890216E+03  0.42966890216E+03  0.00000000000E+00 0.  1.
         21   -1    0    0  501  502 -0.00000000000E+00 -0.00000000000E+00 -0.97407656120E+02  0.97407656120E+02  0.00000000000E+00 0.  1.
         25    1    1    2    0    0 -0.89878380034E+02 -0.13014517052E+03  0.21098024119E+03  0.29181081333E+03  0.12500000000E+03 0.  0.
         25    1    1    2    0    0  0.89878380034E+02  0.13014517052E+03  0.12128100485E+03  0.23526574495E+03  0.12500000000E+03 0.  0.
</event>
<event>
 4    0  0.2259196E-002  0.2224710E+03  0.7546771E-02  0.1132054E+00
         21   -1    0    0  502  501  0.00000000000E+00  0.00000000000E+00  0.15671256027E+02  0.15671256027E+02  0.00000000000E+00 0.  1.
         21   -1    0    0  501  502 -0.00000000000E+00 -0.00000000000E+00 -0.31582241667E+04  0.31582241667E+04  0.00000000000E+00 0.  1.
         25    1    1    2    0    0 -0.65771535648E+02  0.16810023462E+03 -0.18269580812E+04  0.18401044574E+04  0.12500000000E+03 0.  0.
         25    1    1    2    0    0  0.65771535648E+02 -0.16810023462E+03 -0.13155948295E+04  0.13337909654E+04  0.12500000000E+03 0.  0.
</event>
<event>
 4    0  0.2259196E-002  0.2150815E+03  0.7546771E-02  0.1137604E+00
         21   -1    0    0  502  501  0.00000000000E+00  0.00000000000E+00  0.30547588373E+03  0.30547588373E+03  0.00000000000E+00 0. -1.
         21   -1    0    0  501  502 -0.00000000000E+00 -0.00000000000E+00 -0.15143596050E+03  0.15143596050E+03  0.00000000000E+00 0. -1.
         25    1    1    2    0    0 -0.16758753808E+03 -0.50488486459E+02  0.76379404813E+02  0.22823996947E+03  0.12500000000E+03 0.  0.
         25    1    1    2    0    0  0.16758753808E+03  0.50488486459E+02  0.77660518412E+02  0.22867187476E+03  0.12500000000E+03 0.  0.
</event>
<event>
 4    0  0.2259196E-002  0.1829471E+03  0.7546771E-02  0.1164981E+00
         21   -1    0    0  502  501  0.00000000000E+00  0.00000000000E+00  0.66272485494E+03  0.66272485494E+03  0.00000000000E+00 0.  1.
         21   -1    0    0  501  502 -0.00000000000E+00 -0.00000000000E+00 -0.50503068863E+02  0.50503068863E+02  0.00000000000E+00 0.  1.
         25    1    1    2    0    0  0.41047982010E+02 -0.12702511612E+03  0.31572419933E+03  0.36486584794E+03  0.12500000000E+03 0.  0.
         25    1    1    2    0    0 -0.41047982010E+02  0.12702511612E+03  0.29649758675E+03  0.34836207586E+03  0.12500000000E+03 0.  0.
</event>
<event>
 4    0  0.2259196E-002  0.1991690E+03  0.7546771E-02  0.1150442E+00
         21   -1    0    0  502  501  0.00000000000E+00  0.00000000000E+00  0.28074510187E+04  0.28074510187E+04  0.00000000000E+00 0. -1.
         21   -1    0    0  501  502 -0.00000000000E+00 -0.00000000000E+00 -0.14129647492E+02  0.14129647492E+02  0.00000000000E+00 0. -1.
         25    1    1    2    0    0  0.56725607460E+02  0.11078409555E+03  0.20517255189E+04  0.20592944217E+04  0.12500000000E+03 0.  0.
         25    1    1    2    0    0 -0.56725607460E+02 -0.11078409555E+03  0.74159585231E+03  0.76228624448E+03  0.12500000000E+03 0.  0.
</event>
<event>
 4    0  0.2259196E-002  0.4302783E+03  0.7546771E-02  0.1033772E+00
         21   -1    0    0  502  501  0.00000000000E+00  0.00000000000E+00  0.14589734416E+03  0.14589734416E+03  0.00000000000E+00 0.  1.
         21   -1    0    0  501  502 -0.00000000000E+00 -0.00000000000E+00 -0.12689705495E+04  0.12689705495E+04  0.00000000000E+00 0.  1.
         25    1    1    2    0    0 -0.42475412264E+02  0.35611118034E+02 -0.12322979858E+04  0.12398611366E+04  0.12500000000E+03 0.  0.
         25    1    1    2    0    0  0.42475412264E+02 -0.35611118034E+02  0.10922478038E+03  0.17500675708E+03  0.12500000000E+03 0.  0.
</event>
<event>
 4    0  0.2259196E-002  0.1904615E+03  0.7546771E-02  0.1158046E+00
         21   -1    0    0  502  501  0.00000000000E+00  0.00000000000E+00  0.87058006473E+03  0.87058006473E+03  0.00000000000E+00 0.  1.
         21   -1    0    0  501  502 -0.00000000000E+00 -0.00000000000E+00 -0.41668289793E+02  0.41668289793E+02  0.00000000000E+00 0.  1.
         25    1    1    2    0    0  0.30661568043E+02 -0.81556118237E+01  0.75010859799E+03  0.76111402204E+03  0.12500000000E+03 0.  0.
         25    1    1    2    0    0 -0.30661568043E+02  0.81556118237E+01  0.78803176940E+02  0.15113433248E+03  0.12500000000E+03 0.  0.
</event>
<event>
 4    0  0.2259196E-002  0.2502179E+03  0.7546771E-02  0.1113167E+00
         21   -1    0    0  502  501  0.00000000000E+00  0.00000000000E+00  0.14279480990E+04  0.14279480990E+04  0.00000000000E+00 0. -1.
         21   -1    0    0  501  502 -0.00000000000E+00 -0.00000000000E+00 -0.43845439439E+02  0.43845439439E+02  0.00000000000E+00 0. -1.
         25    1    1    2    0    0  0.13085136678E+03  0.11810029737E+03  0.32103623475E+03  0.38698711148E+03  0.12500000000E+03 0.  0.
         25    1    1    2    0    0 -0.13085136678E+03 -0.11810029737E+03  0.10630664248E+04  0.10848064270E+04  0.12500000000E+03 0.  0.
</event>
<event>
 4    0  0.2259196E-002  0.1709679E+03  0.7546771E-02  0.1176842E+00
         21   -1    0    0  502  501  0.00000000000E+00  0.00000000000E+00  0.15768526702E+03  0.15768526702E+03  0.00000000000E+00 0. -1.
         21   -1    0    0  501  502 -0.00000000000E+00 -0.00000000000E+00 -0.18536945953E+03  0.18536945953E+03  0.00000000000E+00 0. -1.
         25    1    1    2    0    0 -0.27615655904E+02 -0.98411429299E+02 -0.70218483147E+02  0.17607688447E+03  0.12500000000E+03 0.  0.
         25    1    1    2    0    0  0.27615655904E+02  0.98411429299E+02  0.42534290643E+02  0.16697784209E+03  0.12500000000E+03 0.  0.
</event>
<event>
 4    0  0.2259196E-002  0.2656558E+03  0.7546771E-02  0.1103792E+00
         21   -1    0    0  502  501  0.00000000000E+00  0.00000000000E+00  0.36894661515E+03  0.36894661515E+03  0.00000000000E+00 0. -1.
         21   -1    0    0  501  502 -0.00000000000E+00 -0.00000000000E+00 -0.19128236453E+03  0.19128236453E+03  0.00000000000E+00 0. -1.
         25    1    1    2    0    0  0.14601475359E+03 -0.13389732197E+03  0.22094794569E+03  0.32201210505E+03  0.12500000000E+03 0.  0.
         25    1    1    2    0    0 -0.14601475359E+03  0.13389732197E+03 -0.43283695064E+02  0.23821687463E+03  0.12500000000E+03 0.  0.
</event>
<event>
 4    0  0.2259196E-002  0.2809139E+03  0.7546771E-02  0.1095191E+00
         21   -1    0    0  502  501  0.00000000000E+00  0.00000000000E+00  0.27527614710E+04  0.27527614710E+04  0.00000000000E+00 0.  1.
         21   -1    0    0  501  502 -0.00000000000E+00 -0.00000000000E+00 -0.28666711403E+02  0.28666711403E+02  0.00000000000E+00 0.  1.
         25    1    1    2    0    0 -0.70501885743E+02 -0.55445050770E+02  0.19844914180E+03  0.25110103829E+03  0.12500000000E+03 0.  0.
         25    1    1    2    0    0  0.70501885743E+02  0.55445050770E+02  0.25256456178E+04  0.25303271441E+04  0.12500000000E+03 0.  0.
</event>
<event>
 4    0  0.2259196E-002  0.2474500E+03  0.7546771E-02  0.1114927E+00
         21   -1    0    0  502  501  0.00000000000E+00  0.00000000000E+00  0.10088129084E+03  0.10088129084E+03  0.00000000000E+00 0. -1.
         21   -1    0    0  501  502 -0.00000000000E+00 -0.00000000000E+00 -0.60696591975E+03  0.60696591975E+03  0.00000000000E+00 0. -1.
         25    1    1    2    0    0 -0.11686180487E+01 -0.19344914070E+03 -0.38242224669E+03  0.44642548143E+03  0.12500000000E+03 0.  0.
         25    1    1    2    0    0  0.11686180487E+01  0.19344914070E+03 -0.12366238222E+03  0.26142172917E+03  0.12500000000E+03 0.  0.
</event>
<event>
 4    0  0.2259196E-002  0.1968468E+03  0.7546771E-02  0.1152427E+00
         21   -1    0    0  502  501  0.00000000000E+00  0.00000000000E+00  0.27684357932E+03  0.27684357932E+03  0.00000000000E+00 0. -1.
         21   -1    0    0  501  502 -0.00000000000E+00 -0.00000000000E+00 -0.13996584871E+03  0.13996584871E+03  0.00000000000E+00 0. -1.
         25    1    1    2    0    0 -0.12035592713E+03  0.78433665850E+02  0.15648786002E+02  0.19106876677E+03  0.12500000000E+03 0.  0.
         25    1    1    2    0    0  0.12035592713E+03 -0.78433665850E+02  0.12122894460E+03  0.22574066125E+03  0.12500000000E+03 0.  0.
</event>
<event>
 4    0  0.2259196E-002  0.2610228E+03  0.7546771E-02  0.1106530E+00
         21   -1    0    0  502  501  0.00000000000E+00  0.00000000000E+00  0.11254750938E+03  0.11254750938E+03  0.00000000000E+00 0. -1.
         21   -1    0    0  501  502 -0.00000000000E+00 -0.00000000000E+00 -0.60537001704E+03  0.60537001704E+03  0.00000000000E+00 0. -1.
         25    1    1    2    0    0 -0.21339870068E+03  0.27400065497E+02 -0.35485279069E+03  0.43339966786E+03  0.12500000000E+03 0.  0.
         25    1    1    2    0    0  0.21339870068E+03 -0.27400065497E+02 -0.13796971697E+03  0.28451785857E+03  0.12500000000E+03 0.  0.
</event>
<event>
 4    0  0.2259196E-002  0.1971627E+03  0.7546771E-02  0.1152155E+00
         21   -1    0    0  502  501  0.00000000000E+00  0.00000000000E+00  0.39239816641E+03  0.39239816641E+03  0.00000000000E+00 0.  1.
         21   -1    0    0  501  502 -0.00000000000E+00 -0.00000000000E+00 -0.99065538312E+02  0.99065538312E+02  0.00000000000E+00 0.  1.
         25    1    1    2    0    0 -0.82474163461E+02 -0.11966840925E+03  0.89204483246E+02  0.21143546448E+03  0.12500000000E+03 0.  0.
         25    1    1    2    0    0  0.82474163461E+02  0.11966840925E+03  0.20412814486E+03  0.28002824024E+03  0.12500000000E+03 0.  0.
</event>
<event>
 4    0  0.2259196E-002  0.2169906E+03  0.7546771E-02  0.1136147E+00
         21   -1    0    0  502  501  0.00000000000E+00  0.00000000000E+00  0.93378292747E+02  0.93378292747E+02  0.00000000000E+00 0. -1.
         21   -1    0    0  501  502 -0.00000000000E+00 -0.00000000000E+00 -0.50423852961E+03  0.50423852961E+03  0.00000000000E+00 0. -1.
         25    1    1    2    0    0  0.81295849002E+02  0.56286977031E+02 -0.26578956016E+01  0.15940295875E+03  0.12500000000E+03 0.  0.
         25    1    1    2    0    0 -0.81295849002E+02 -0.56286977031E+02 -0.40820234126E+03  0.43821386361E+03  0.12500000000E+03 0.  0.
</event>
<event>
 4    0  0.2259196E-002  0.2858895E+03  0.7546771E-02  0.1092515E+00
         21   -1    0    0  502  501  0.00000000000E+00  0.00000000000E+00  0.13966801815E+04  0.13966801815E+04  0.00000000000E+00 0.  1.
         21   -1    0    0  501  502 -0.00000000000E+00 -0.00000000000E+00 -0.58519337379E+02  0.58519337379E+02  0.00000000000E+00 0.  1.
         25    1    1    2    0    0  0.34529678720E+02 -0.23911511799E+03  0.89297815817E+03  0.93348986569E+03  0.12500000000E+03 0.  0.
         25    1    1    2    0    0 -0.34529678720E+02  0.23911511799E+03  0.44518268595E+03  0.52170965319E+03  0.12500000000E+03 0.  0.
</event>
<event>
 4    0  0.2259196E-002  0.1972557E+03  0.7546771E-02  0.1152075E+00
         21   -1    0    0  502  501  0.00000000000E+00  0.00000000000E+00  0.52961857072E+02  0.52961857072E+02  0.00000000000E+00 0. -1.
         21   -1    0    0  501  502 -0.00000000000E+00 -0.00000000000E+00 -0.73467628390E+03  0.73467628390E+03  0.00000000000E+00 0. -1.
         25    1    1    2    0    0  0.77816122410E+02  0.30768054902E+02 -0.86096972613E+02  0.17331967806E+03  0.12500000000E+03 0.  0.
         25    1    1    2    0    0 -0.77816122410E+02 -0.30768054902E+02 -0.59561745422E+03  0.61431846292E+03  0.12500000000E+03 0.  0.
</event>
<event>
 4    0  0.2259196E-002  0.2506552E+03  0.7546771E-02  0.1112891E+00
         21   -1    0    0  502  501  0.00000000000E+00  0.00000000000E+00  0.53261979187E+02  0.53261979187E+02  0.00000000000E+00 0.  1.
         21   -1    0    0  501  502 -0.00000000000E+00 -0.00000000000E+00 -0.11796035012E+04  0.11796035012E+04  0.00000000000E+00 0.  1.
         25    1    1    2    0    0 -0.20191697524E+03  0.71428218052E+02 -0.65287780849E+03  0.69838878001E+03  0.12500000000E+03 0.  0.
         25    1    1    2    0    0  0.20191697524E+03 -0.71428218052E+02 -0.47346371354E+03  0.53447670040E+03  0.12500000000E+03 0.  0.
</event>
<event>
 4    0  0.2259196E-002  0.1968805E+03  0.7546771E-02  0.1152398E+00
         21   -1    0    0  502  501  0.00000000000E+00  0.00000000000E+00  0.99433236784E+02  0.99433236784E+02  0.00000000000E+00 0. -1.
         21   -1    0    0  501  502 -0.00000000000E+00 -0.00000000000E+00 -0.38982886085E+03  0.38982886085E+03  0.00000000000E+00 0. -1.
         25    1    1    2    0    0  0.10630998573E+03 -0.41030288605E+02 -0.20005671535E+02  0.17032476197E+03  0.12500000000E+03 0.  0.
         25    1    1    2    0    0 -0.10630998573E+03  0.41030288605E+02 -0.27038995253E+03  0.31893733566E+03  0.12500000000E+03 0.  0.
</event>
<event>
 4    0  0.2259196E-002  0.1929869E+03  0.7546771E-02  0.1155795E+00
         21   -1    0    0  502  501  0.00000000000E+00  0.00000000000E+00  0.10740353159E+04  0.10740353159E+04  0.00000000000E+00 0. -1.
         21   -1    0    0  501  502 -0.00000000000E+00 -0.00000000000E+00 -0.34676650449E+02  0.34676650449E+02  0.00000000000E+00 0. -1.
         25    1    1    2    0    0  0.20085907803E+02 -0.10768954070E+03  0.80139681799E+03  0.81845118410E+03  0.12500000000E+03 0.  0.
         25    1    1    2    0    0 -0.20085907803E+02  0.10768954070E+03  0.23796184748E+03  0.29026078227E+03  0.12500000000E+03 0.  0.
</event>
<event>
 4    0  0.2259196E-002  0.2141378E+03  0.7546771E-02  0.1138331E+00
         21   -1    0    0  502  501  0.00000000000E+00  0.00000000000E+00  0.11368110108E+03  0.11368110108E+03  0.00000000000E+00 0.  1.
         21   -1    0    0  501  502 -0.00000000000E+00 -0.00000000000E+00 -0.40336521962E+03  0.40336521962E+03  0.00000000000E+00 0.  1.
         25    1    1    2    0    0 -0.16852197779E+03  0.15870181425E+01 -0.19645678246E+03  0.28744119920E+03  0.12500000000E+03 0.  0.
         25    1    1    2    0    0  0.16852197779E+03 -0.15870181425E+01 -0.93227336082E+02  0.22960512150E+03  0.12500000000E+03 0.  0.
</event>
<event>
 4    0  0.2259196E-002  0.1943516E+03  0.7546771E-02  0.1154594E+00
         21   -1    0    0  502  501  0.00000000000E+00  0.00000000000E+00  0.64347015732E+02  0.64347015732E+02  0.00000000000E+00 0.  1.
         21   -1    0    0  501  502 -0.00000000000E+00 -0.00000000000E+00 -0.58701320975E+03  0.58701320975E+03  0.00000000000E+00 0. -1.
         25    1    1    2    0    0 -0.14023043416E+03  0.42853339160E+02 -0.21872332995E+03  0.29148907081E+03  0.12500000000E+03 0.  0.
         25    1    1    2    0    0  0.14023043416E+03 -0.42853339160E+02 -0.30394286408E+03  0.35987115467E+03  0.12500000000E+03 0.  0.
</event>
<event>
 4    0  0.2259196E-002  0.3526981E+03  0.7546771E-02  0.1061513E+00
         21   -1    0    0  502  501  0.00000000000E+00  0.00000000000E+00  0.26145554222E+04  0.26145554222E+04  0.00000000000E+00 0.  1.
         21   -1    0    0  501  502 -0.00000000000E+00 -0.00000000000E+00 -0.47578242674E+02  0.47578242674E+02  0.00000000000E+00 0.  1.
         25    1    1    2    0    0 -0.42536486735E+02  0.16253423948E+03  0.21242827268E+03  0.29829096993E+03  0.12500000000E+03 0.  0.
         25    1    1    2    0    0  0.42536486735E+02 -0.16253423948E+03  0.23545489069E+04  0.23638426950E+04  0.12500000000E+03 0.  0.
</event>
<event>
 4    0  0.2259196E-002  0.1669033E+03  0.7546771E-02  0.1181116E+00
         21   -1    0    0  502  501  0.00000000000E+00  0.00000000000E+00  0.14020224948E+03  0.14020224948E+03  0.00000000000E+00 0. -1.
         21   -1    0    0  501  502 -0.00000000000E+00 -0.00000000000E+00 -0.19868949561E+03  0.19868949561E+03  0.00000000000E+00 0. -1.
         25    1    1    2    0    0  0.42720555933E+02 -0.81989935119E+02  0.32379634912E+02  0.15881069270E+03  0.12500000000E+03 0.  0.
         25    1    1    2    0    0 -0.42720555933E+02  0.81989935119E+02 -0.90866881041E+02  0.18008105239E+03  0.12500000000E+03 0.  0.
</event>
<event>
 4    0  0.2259196E-002  0.2116835E+03  0.7546771E-02  0.1140240E+00
         21   -1    0    0  502  501  0.00000000000E+00  0.00000000000E+00  0.12381999740E+03  0.12381999740E+03  0.00000000000E+00 0. -1.
         21   -1    0    0  501  502 -0.00000000000E+00 -0.00000000000E+00 -0.36189551538E+03  0.36189551538E+03  0.00000000000E+00 0. -1.
         25    1    1    2    0    0 -0.15445767553E+03 -0.31107787644E+02 -0.19479251610E+03  0.27998927178E+03  0.12500000000E+03 0.  0.
         25    1    1    2    0    0  0.15445767553E+03  0.31107787644E+02 -0.43283001874E+02  0.20572624100E+03  0.12500000000E+03 0.  0.
</event>
<event>
 4    0  0.2259196E-002  0.1944873E+03  0.7546771E-02  0.1154475E+00
         21   -1    0    0  502  501  0.00000000000E+00  0.00000000000E+00  0.37822056913E+03  0.37822056913E+03  0.00000000000E+00 0.  1.
         21   -1    0    0  501  502 -0.00000000000E+00 -0.00000000000E+00 -0.10000861527E+03  0.10000861527E+03  0.00000000000E+00 0.  1.
         25    1    1    2    0    0 -0.62473078822E+02  0.12471067507E+03  0.74694916528E+02  0.20164317149E+03  0.12500000000E+03 0.  0.
         25    1    1    2    0    0  0.62473078822E+02 -0.12471067507E+03  0.20351703733E+03  0.27658601291E+03  0.12500000000E+03 0.  0.
</event>
<event>
 4    0  0.2259196E-002  0.1888877E+03  0.7546771E-02  0.1159468E+00
         21   -1    0    0  502  501  0.00000000000E+00  0.00000000000E+00  0.49018941138E+03  0.49018941138E+03  0.00000000000E+00 0.  1.
         21   -1    0    0  501  502 -0.00000000000E+00 -0.00000000000E+00 -0.72785253058E+02  0.72785253058E+02  0.00000000000E+00 0.  1.
         25    1    1    2    0    0 -0.88908049053E+02  0.34814347962E+02  0.52853831186E+02  0.16593736011E+03  0.12500000000E+03 0.  0.
         25    1    1    2    0    0  0.88908049053E+02 -0.34814347962E+02  0.36455032714E+03  0.39703730433E+03  0.12500000000E+03 0.  0.
</event>
<event>
 4    0  0.2259196E-002  0.1568726E+03  0.7546771E-02  0.1192274E+00
         21   -1    0    0  502  501  0.00000000000E+00  0.00000000000E+00  0.20809286336E+03  0.20809286336E+03  0.00000000000E+00 0.  1.
         21   -1    0    0  501  502 -0.00000000000E+00 -0.00000000000E+00 -0.11825974370E+03  0.11825974370E+03  0.00000000000E+00 0.  1.
         25    1    1    2    0    0 -0.21182808923E+02  0.46379186473E+02 -0.38195797005E+02  0.14029846485E+03  0.12500000000E+03 0.  0.
         25    1    1    2    0    0  0.21182808923E+02 -0.46379186473E+02  0.12802891666E+03  0.18605414221E+03  0.12500000000E+03 0.  0.
</event>
<event>
 4    0  0.2259196E-002  0.2398928E+03  0.7546771E-02  0.1119864E+00
         21   -1    0    0  502  501  0.00000000000E+00  0.00000000000E+00  0.35327169583E+03  0.35327169583E+03  0.00000000000E+00 0. -1.
         21   -1    0    0  501  502 -0.00000000000E+00 -0.00000000000E+00 -0.16290171807E+03  0.16290171807E+03  0.00000000000E+00 0. -1.
         25    1    1    2    0    0  0.12335767948E+03 -0.15413331685E+03  0.15361190886E+03  0.27963514621E+03  0.12500000000E+03 0.  0.
         25    1    1    2    0    0 -0.12335767948E+03  0.15413331685E+03  0.36758068904E+02  0.23653826769E+03  0.12500000000E+03 0.  0.
</event>
<event>
 4    0  0.2259196E-002  0.2405120E+03  0.7546771E-02  0.1119452E+00
         21   -1    0    0  502  501  0.00000000000E+00  0.00000000000E+00  0.38272863466E+03  0.38272863466E+03  0.00000000000E+00 0. -1.
         21   -1    0    0  501  502 -0.00000000000E+00 -0.00000000000E+00 -0.15114114875E+03  0.15114114875E+03  0.00000000000E+00 0.  1.
         25    1    1    2    0    0  0.13941599529E+03  0.10329942571E+03 -0.63587999423E+01  0.21394631437E+03  0.12500000000E+03 0.  0.
         25    1    1    2    0    0 -0.13941599529E+03 -0.10329942571E+03  0.23794628585E+03  0.31992346904E+03  0.12500000000E+03 0.  0.
</event>
<event>
 4    0  0.2259196E-002  0.3403262E+03  0.7546771E-02  0.1066657E+00
         21   -1    0    0  502  501  0.00000000000E+00  0.00000000000E+00  0.21477139456E+03  0.21477139456E+03  0.00000000000E+00 0. -1.
         21   -1    0    0  501  502 -0.00000000000E+00 -0.00000000000E+00 -0.53928011043E+03  0.53928011043E+03  0.00000000000E+00 0. -1.
         25    1    1    2    0    0 -0.30290655462E+03 -0.64641841023E+02 -0.23461220910E+03  0.40816520810E+03  0.12500000000E+03 0.  0.
         25    1    1    2    0    0  0.30290655462E+03  0.64641841023E+02 -0.89896506765E+02  0.34588629688E+03  0.12500000000E+03 0.  0.
</event>
<event>
 4    0  0.2259196E-002  0.2190582E+03  0.7546771E-02  0.1134587E+00
         21   -1    0    0  502  501  0.00000000000E+00  0.00000000000E+00  0.14137196671E+03  0.14137196671E+03  0.00000000000E+00 0. -1.
         21   -1    0    0  501  502 -0.00000000000E+00 -0.00000000000E+00 -0.33943443473E+03  0.33943443473E+03  0.00000000000E+00 0. -1.
         25    1    1    2    0    0  0.43239032555E+02  0.15304065181E+03 -0.67519030104E+01  0.20238982987E+03  0.12500000000E+03 0.  0.
         25    1    1    2    0    0 -0.43239032555E+02 -0.15304065181E+03 -0.19131056501E+03  0.27841657157E+03  0.12500000000E+03 0.  0.
</event>
<event>
 4    0  0.2259196E-002  0.2620513E+03  0.7546771E-02  0.1105917E+00
         21   -1    0    0  502  501  0.00000000000E+00  0.00000000000E+00  0.90457092320E+03  0.90457092320E+03  0.00000000000E+00 0.  1.
         21   -1    0    0  501  502 -0.00000000000E+00 -0.00000000000E+00 -0.75915441280E+02  0.75915441280E+02  0.00000000000E+00 0.  1.
         25    1    1    2    0    0 -0.10945284646E+03  0.17074321344E+03  0.21013944500E+03  0.31767397892E+03  0.12500000000E+03 0.  0.
         25    1    1    2    0    0  0.10945284646E+03 -0.17074321344E+03  0.61851603692E+03  0.66281238556E+03  0.12500000000E+03 0.  0.
</event>
<event>
 4    0  0.2259196E-002  0.1794201E+03  0.7546771E-02  0.1168365E+00
         21   -1    0    0  502  501  0.00000000000E+00  0.00000000000E+00  0.25695615454E+03  0.25695615454E+03  0.00000000000E+00 0.  1.
         21   -1    0    0  501  502 -0.00000000000E+00 -0.00000000000E+00 -0.12528036812E+03  0.12528036812E+03  0.00000000000E+00 0.  1.
         25    1    1    2    0    0  0.37140694274E+02  0.11452337332E+03  0.17356342010E+02  0.17441696252E+03  0.12500000000E+03 0.  0.
         25    1    1    2    0    0 -0.37140694274E+02 -0.11452337332E+03  0.11431944441E+03  0.20781956014E+03  0.12500000000E+03 0.  0.
</event>
<event>
 4    0  0.2259196E-002  0.5107980E+03  0.7546771E-02  0.1010998E+00
         21   -1    0    0  502  501  0.00000000000E+00  0.00000000000E+00  0.77521925574E+03  0.77521925574E+03  0.00000000000E+00 0. -1.
         21   -1    0    0  501  502 -0.00000000000E+00 -0.00000000000E+00 -0.33656879471E+03  0.33656879471E+03  0.00000000000E+00 0.  1.
         25    1    1    2    0    0  0.47332038381E+03  0.14451666886E+03  0.24032539534E+03  0.56417953610E+03  0.12500000000E+03 0.  0.
         25    1    1    2    0    0 -0.47332038381E+03 -0.14451666886E+03  0.19832506569E+03  0.54760851435E+03  0.12500000000E+03 0.  0.
</event>
<event>
 4    0  0.2259196E-002  0.2146427E+03  0.7546771E-02  0.1137941E+00
         21   -1    0    0  502  501  0.00000000000E+00  0.00000000000E+00  0.97436954976E+03  0.97436954976E+03  0.00000000000E+00 0.  1.
         21   -1    0    0  501  502 -0.00000000000E+00 -0.00000000000E+00 -0.47283390927E+02  0.47283390927E+02  0.00000000000E+00 0.  1.
         25    1    1    2    0    0 -0.10044104017E+03  0.14249049388E+03  0.44596520785E+03  0.49487565106E+03  0.12500000000E+03 0.  0.
         25    1    1    2    0    0  0.10044104017E+03 -0.14249049388E+03  0.48112095098E+03  0.52677728963E+03  0.12500000000E+03 0.  0.
</event>
<event>
 4    0  0.2259196E-002  0.2690002E+03  0.7546771E-02  0.1101853E+00
         21   -1    0    0  502  501  0.00000000000E+00  0.00000000000E+00  0.66309186943E+02  0.66309186943E+02  0.00000000000E+00 0.  1.
         21   -1    0    0  501  502 -0.00000000000E+00 -0.00000000000E+00 -0.10912678435E+04  0.10912678435E+04  0.00000000000E+00 0.  1.
         25    1    1    2    0    0  0.13986345822E+03 -0.13349570515E+03 -0.81180481034E+03  0.84382162827E+03  0.12500000000E+03 0.  0.
         25    1    1    2    0    0 -0.13986345822E+03  0.13349570515E+03 -0.21315384623E+03  0.31375540219E+03  0.12500000000E+03 0.  0.
</event>
<event>
 4    0  0.2259196E-002  0.1857097E+03  0.7546771E-02  0.1162389E+00
         21   -1    0    0  502  501  0.00000000000E+00  0.00000000000E+00  0.77246595199E+02  0.77246595199E+02  0.00000000000E+00 0. -1.
         21   -1    0    0  501  502 -0.00000000000E+00 -0.00000000000E+00 -0.44646732188E+03  0.44646732188E+03  0.00000000000E+00 0.  1.
         25    1    1    2    0    0 -0.34164867883E+02  0.96360248086E+02 -0.31392321044E+03  0.35302311208E+03  0.12500000000E+03 0.  0.
         25    1    1    2    0    0  0.34164867883E+02 -0.96360248086E+02 -0.55297516240E+02  0.17069080500E+03  0.12500000000E+03 0.  0.
</event>
<event>
 4    0  0.2259196E-002  0.2237362E+03  0.7546771E-02  0.1131128E+00
         21   -1    0    0  502  501  0.00000000000E+00  0.00000000000E+00  0.26938509956E+03  0.26938509956E+03  0.00000000000E+00 0. -1.
         21   -1    0    0  501  502 -0.00000000000E+00 -0.00000000000E+00 -0.18582281592E+03  0.18582281592E+03  0.00000000000E+00 0. -1.
         25    1    1    2    0    0 -0.79337757011E+02  0.10772481451E+03 -0.89025445457E+02  0.20359185958E+03  0.12500000000E+03 0.  0.
         25    1    1    2    0    0  0.79337757011E+02 -0.10772481451E+03  0.17258772909E+03  0.25161605589E+03  0.12500000000E+03 0.  0.
</event>
<event>
 4    0  0.2259196E-002  0.1682399E+03  0.7546771E-02  0.1179696E+00
         21   -1    0    0  502  501  0.00000000000E+00  0.00000000000E+00  0.21634668319E+03  0.21634668319E+03  0.00000000000E+00 0. -1.
         21   -1    0    0  501  502 -0.00000000000E+00 -0.00000000000E+00 -0.13083013004E+03  0.13083013004E+03  0.00000000000E+00 0. -1.
         25    1    1    2    0    0  0.38804365849E+02  0.10570023498E+02 -0.65762198652E+02  0.14685765549E+03  0.12500000000E+03 0.  0.
         25    1    1    2    0    0 -0.38804365849E+02 -0.10570023498E+02  0.15127875180E+03  0.20031915773E+03  0.12500000000E+03 0.  0.
</event>
<event>
 4    0  0.2259196E-002  0.3924848E+03  0.7546771E-02  0.1046413E+00
         21   -1    0    0  502  501  0.00000000000E+00  0.00000000000E+00  0.56430959443E+03  0.56430959443E+03  0.00000000000E+00 0. -1.
         21   -1    0    0  501  502 -0.00000000000E+00 -0.00000000000E+00 -0.27297836718E+03  0.27297836718E+03  0.00000000000E+00 0. -1.
         25    1    1    2    0    0 -0.17671226300E+03 -0.22611263551E+03 -0.10689671100E+03  0.33076586078E+03  0.12500000000E+03 0.  0.
         25    1    1    2    0    0  0.17671226300E+03  0.22611263551E+03  0.39822793824E+03  0.50652210083E+03  0.12500000000E+03 0.  0.
</event>
<event>
 4    0  0.2259196E-002  0.2074558E+03  0.7546771E-02  0.1143597E+00
         21   -1    0    0  502  501  0.00000000000E+00  0.00000000000E+00  0.64511850800E+03  0.64511850800E+03  0.00000000000E+00 0. -1.
         21   -1    0    0  501  502 -0.00000000000E+00 -0.00000000000E+00 -0.66713172567E+02  0.66713172567E+02  0.00000000000E+00 0. -1.
         25    1    1    2    0    0 -0.16105550762E+03 -0.25068882563E+02  0.23931441025E+03  0.31537868089E+03  0.12500000000E+03 0.  0.
         25    1    1    2    0    0  0.16105550762E+03  0.25068882563E+02  0.33909092518E+03  0.39645299967E+03  0.12500000000E+03 0.  0.
</event>
<event>
 4    0  0.2259196E-002  0.1944316E+03  0.7546771E-02  0.1154524E+00
         21   -1    0    0  502  501  0.00000000000E+00  0.00000000000E+00  0.11199626379E+04  0.11199626379E+04  0.00000000000E+00 0.  1.
         21   -1    0    0  501  502 -0.00000000000E+00 -0.00000000000E+00 -0.33754375072E+02  0.33754375072E+02  0.00000000000E+00 0.  1.
         25    1    1    2    0    0 -0.10613362452E+03 -0.97402555871E+02  0.43102628426E+03  0.47133879733E+03  0.12500000000E+03 0.  0.
         25    1    1    2    0    0  0.10613362452E+03  0.97402555871E+02  0.65518197855E+03  0.68237821562E+03  0.12500000000E+03 0.  0.
</event>
<event>
 4    0  0.2259196E-002  0.2118041E+03  0.7546771E-02  0.1140145E+00
         21   -1    0    0  502  501  0.00000000000E+00  0.00000000000E+00  0.61728016026E+02  0.61728016026E+02  0.00000000000E+00 0.  1.
         21   -1    0    0  501  502 -0.00000000000E+00 -0.00000000000E+00 -0.72675234339E+03  0.72675234339E+03  0.00000000000E+00 0.  1.
         25    1    1    2    0    0  0.46924045100E+02  0.74065296788E+02 -0.60574600217E+03  0.62469252704E+03  0.12500000000E+03 0.  0.
         25    1    1    2    0    0 -0.46924045100E+02 -0.74065296788E+02 -0.59278325197E+02  0.16378783238E+03  0.12500000000E+03 0.  0.
</event>
<event>
 4    0  0.2259196E-002  0.2321721E+03  0.7546771E-02  0.1125120E+00
         21   -1    0    0  502  501  0.00000000000E+00  0.00000000000E+00  0.79751449281E+02  0.79751449281E+02  0.00000000000E+00 0.  1.
         21   -1    0    0  501  502 -0.00000000000E+00 -0.00000000000E+00 -0.67589842379E+03  0.67589842379E+03  0.00000000000E+00 0. -1.
         25    1    1    2    0    0  0.17172389633E+03 -0.90777198306E+02 -0.25993367814E+03  0.34773569465E+03  0.12500000000E+03 0.  0.
         25    1    1    2    0    0 -0.17172389633E+03  0.90777198306E+02 -0.33621329637E+03  0.40791417843E+03  0.12500000000E+03 0.  0.
</event>
<event>
 4    0  0.2259196E-002  0.2223319E+03  0.7546771E-02  0.1132156E+00
         21   -1    0    0  502  501  0.00000000000E+00  0.00000000000E+00  0.35386946898E+02  0.35386946898E+02  0.00000000000E+00 0.  1.
         21   -1    0    0  501  502 -0.00000000000E+00 -0.00000000000E+00 -0.13968837837E+04  0.13968837837E+04  0.00000000000E+00 0.  1.
         25    1    1    2    0    0 -0.48484271537E+02 -0.16565497091E+01 -0.12519959809E+04  0.12591554332E+04  0.12500000000E+03 0.  0.
         25    1    1    2    0    0  0.48484271537E+02  0.16565497091E+01 -0.10950085582E+03  0.17311529733E+03  0.12500000000E+03 0.  0.
</event>
<event>
 4    0  0.2259196E-002  0.2075775E+03  0.7546771E-02  0.1143499E+00
         21   -1    0    0  502  501  0.00000000000E+00  0.00000000000E+00  0.67107858081E+02  0.67107858081E+02  0.00000000000E+00 0. -1.
         21   -1    0    0  501  502 -0.00000000000E+00 -0.00000000000E+00 -0.64207684247E+03  0.64207684247E+03  0.00000000000E+00 0. -1.
         25    1    1    2    0    0 -0.16080508737E+02  0.16491062483E+03 -0.28227374630E+03  0.35036775649E+03  0.12500000000E+03 0.  0.
         25    1    1    2    0    0  0.16080508737E+02 -0.16491062483E+03 -0.29269523809E+03  0.35881694406E+03  0.12500000000E+03 0.  0.
</event>
<event>
 4    0  0.2259196E-002  0.3328084E+03  0.7546771E-02  0.1069901E+00
         21   -1    0    0  502  501  0.00000000000E+00  0.00000000000E+00  0.16741404710E+03  0.16741404710E+03  0.00000000000E+00 0. -1.
         21   -1    0    0  501  502 -0.00000000000E+00 -0.00000000000E+00 -0.66160189209E+03  0.66160189209E+03  0.00000000000E+00 0. -1.
         25    1    1    2    0    0 -0.60960932697E+02 -0.47445959849E+02 -0.61901068245E+03  0.63621268410E+03  0.12500000000E+03 0.  0.
         25    1    1    2    0    0  0.60960932697E+02  0.47445959849E+02  0.12482283746E+03  0.19280325509E+03  0.12500000000E+03 0.  0.
</event>
<event>
 4    0  0.2259196E-002  0.2667814E+03  0.7546771E-02  0.1103136E+00
         21   -1    0    0  502  501  0.00000000000E+00  0.00000000000E+00  0.28749041850E+03  0.28749041850E+03  0.00000000000E+00 0.  1.
         21   -1    0    0  501  502 -0.00000000000E+00 -0.00000000000E+00 -0.24756414462E+03  0.24756414462E+03  0.00000000000E+00 0.  1.
         25    1    1    2    0    0 -0.97970209325E+02  0.43527253933E+02  0.23044168116E+03  0.28323338815E+03  0.12500000000E+03 0.  0.
         25    1    1    2    0    0  0.97970209325E+02 -0.43527253933E+02 -0.19051540728E+03  0.25182117497E+03  0.12500000000E+03 0.  0.
</event>
<event>
 4    0  0.2259196E-002  0.1843778E+03  0.7546771E-02  0.1163632E+00
         21   -1    0    0  502  501  0.00000000000E+00  0.00000000000E+00  0.81738336076E+03  0.81738336076E+03  0.00000000000E+00 0.  1.
         21   -1    0    0  501  502 -0.00000000000E+00 -0.00000000000E+00 -0.41590248095E+02  0.41590248095E+02  0.00000000000E+00 0.  1.
         25    1    1    2    0    0  0.61263430531E+02 -0.39615484653E+02  0.65397285734E+03  0.66979705335E+03  0.12500000000E+03 0.  0.
         25    1    1    2    0    0 -0.61263430531E+02  0.39615484653E+02  0.12182025533E+03  0.18917655551E+03  0.12500000000E+03 0.  0.
</event>
<event>
 4    0  0.2259196E-002  0.2510169E+03  0.7546771E-02  0.1112664E+00
         21   -1    0    0  502  501  0.00000000000E+00  0.00000000000E+00  0.41442221512E+03  0.41442221512E+03  0.00000000000E+00 0. -1.
         21   -1    0    0  501  502 -0.00000000000E+00 -0.00000000000E+00 -0.15204177009E+03  0.15204177009E+03  0.00000000000E+00 0. -1.
         25    1    1    2    0    0  0.13902954108E+03 -0.99785727808E+02  0.28298457564E+03  0.35354161681E+03  0.12500000000E+03 0.  0.
         25    1    1    2    0    0 -0.13902954108E+03  0.99785727808E+02 -0.20604130605E+02  0.21292236840E+03  0.12500000000E+03 0.  0.
</event>
<event>
 4    0  0.2259196E-002  0.2541074E+03  0.7546771E-02  0.1110736E+00
         21   -1    0    0  502  501  0.00000000000E+00  0.00000000000E+00  0.70820654353E+03  0.70820654353E+03  0.00000000000E+00 0. -1.
         21   -1    0    0  501  502 -0.00000000000E+00 -0.00000000000E+00 -0.91174763922E+02  0.91174763922E+02  0.00000000000E+00 0. -1.
         25    1    1    2    0    0 -0.10286232782E+03 -0.10938028822E+02  0.61612241332E+03  0.63712803043E+03  0.12500000000E+03 0.  0.
         25    1    1    2    0    0  0.10286232782E+03  0.10938028822E+02  0.90936628751E+00  0.16225327703E+03  0.12500000000E+03 0.  0.
</event>
<event>
 4    0  0.2259196E-002  0.2096958E+03  0.7546771E-02  0.1141807E+00
         21   -1    0    0  502  501  0.00000000000E+00  0.00000000000E+00  0.17623306916E+03  0.17623306916E+03  0.00000000000E+00 0.  1.
         21   -1    0    0  501  502 -0.00000000000E+00 -0.00000000000E+00 -0.24951240333E+03  0.24951240333E+03  0.00000000000E+00 0.  1.
         25    1    1    2    0    0 -0.70323164039E+02 -0.14969245415E+03 -0.68647632106E+02  0.21838194894E+03  0.12500000000E+03 0.  0.
         25    1    1    2    0    0  0.70323164039E+02  0.14969245415E+03 -0.46317020652E+01  0.20736352354E+03  0.12500000000E+03 0.  0.
</event>
<event>
 4    0  0.2259196E-002  0.2075094E+03  0.7546771E-02  0.1143554E+00
         21   -1    0    0  502  501  0.00000000000E+00  0.00000000000E+00  0.52278721892E+03  0.52278721892E+03  0.00000000000E+00 0.  1.
         21   -1    0    0  501  502 -0.00000000000E+00 -0.00000000000E+00 -0.82366467100E+02  0.82366467100E+02  0.00000000000E+00 0.  1.
         25    1    1    2    0    0  0.38851694982E+02  0.12897175530E+03  0.79653579728E+02  0.20028195284E+03  0.12500000000E+03 0.  0.
         25    1    1    2    0    0 -0.38851694982E+02 -0.12897175530E+03  0.36076717209E+03  0.40487173318E+03  0.12500000000E+03 0.  0.
</event>
<event>
 4    0  0.2259196E-002  0.1806589E+03  0.7546771E-02  0.1167167E+00
         21   -1    0    0  502  501  0.00000000000E+00  0.00000000000E+00  0.24359384425E+03  0.24359384425E+03  0.00000000000E+00 0.  1.
         21   -1    0    0  501  502 -0.00000000000E+00 -0.00000000000E+00 -0.13398387783E+03  0.13398387783E+03  0.00000000000E+00 0.  1.
         25    1    1    2    0    0  0.12319826191E+02 -0.59840314229E+02  0.17522982507E+03  0.22374792271E+03  0.12500000000E+03 0.  0.
         25    1    1    2    0    0 -0.12319826191E+02  0.59840314229E+02 -0.65619858646E+02  0.15382979937E+03  0.12500000000E+03 0.  0.
</event>
<event>
 4    0  0.2259196E-002  0.2016387E+03  0.7546771E-02  0.1148364E+00
         21   -1    0    0  502  501  0.00000000000E+00  0.00000000000E+00  0.19148030463E+03  0.19148030463E+03  0.00000000000E+00 0.  1.
         21   -1    0    0  501  502 -0.00000000000E+00 -0.00000000000E+00 -0.21233600067E+03  0.21233600067E+03  0.00000000000E+00 0.  1.
         25    1    1    2    0    0 -0.29376156993E+02 -0.35229814716E+02 -0.16205366143E+03  0.20973909418E+03  0.12500000000E+03 0.  0.
         25    1    1    2    0    0  0.29376156993E+02  0.35229814716E+02  0.14119796539E+03  0.19407721112E+03  0.12500000000E+03 0.  0.
</event>
<event>
 4    0  0.2259196E-002  0.1689064E+03  0.7546771E-02  0.1178993E+00
         21   -1    0    0  502  501  0.00000000000E+00  0.00000000000E+00  0.12221739556E+04  0.12221739556E+04  0.00000000000E+00 0. -1.
         21   -1    0    0  501  502 -0.00000000000E+00 -0.00000000000E+00 -0.23343146693E+02  0.23343146693E+02  0.00000000000E+00 0. -1.
         25    1    1    2    0    0 -0.94117151271E+02 -0.52864001574E+02  0.72986160624E+03  0.74831517765E+03  0.12500000000E+03 0.  0.
         25    1    1    2    0    0  0.94117151271E+02  0.52864001574E+02  0.46896920263E+03  0.49720192462E+03  0.12500000000E+03 0.  0.
</event>
<event>
 4    0  0.2259196E-002  0.2100225E+03  0.7546771E-02  0.1141548E+00
         21   -1    0    0  502  501  0.00000000000E+00  0.00000000000E+00  0.19549663644E+03  0.19549663644E+03  0.00000000000E+00 0. -1.
         21   -1    0    0  501  502 -0.00000000000E+00 -0.00000000000E+00 -0.22562759694E+03  0.22562759694E+03  0.00000000000E+00 0. -1.
         25    1    1    2    0    0  0.48365382824E+02 -0.14173242983E+03  0.62962155229E+02  0.20497932801E+03  0.12500000000E+03 0.  0.
         25    1    1    2    0    0 -0.48365382824E+02  0.14173242983E+03 -0.93093115724E+02  0.21614490537E+03  0.12500000000E+03 0.  0.
</event>
<event>
 4    0  0.2259196E-002  0.4857765E+03  0.7546771E-02  0.1017560E+00
         21   -1    0    0  502  501  0.00000000000E+00  0.00000000000E+00  0.12449540404E+04  0.12449540404E+04  0.00000000000E+00 0. -1.
         21   -1    0    0  501  502 -0.00000000000E+00 -0.00000000000E+00 -0.18954819291E+03  0.18954819291E+03  0.00000000000E+00 0. -1.
         25    1    1    2    0    0  0.18870751181E+03  0.10547788780E+03  0.11429247324E+04  0.11698880519E+04  0.12500000000E+03 0.  0.
         25    1    1    2    0    0 -0.18870751181E+03 -0.10547788780E+03 -0.87518884926E+02  0.26461418149E+03  0.12500000000E+03 0.  0.
</event>
<event>
 4    0  0.2259196E-002  0.1833326E+03  0.7546771E-02  0.1164616E+00
         21   -1    0    0  502  501  0.00000000000E+00  0.00000000000E+00  0.82583268989E+03  0.82583268989E+03  0.00000000000E+00 0.  1.
         21   -1    0    0  501  502 -0.00000000000E+00 -0.00000000000E+00 -0.40699358052E+02  0.40699358052E+02  0.00000000000E+00 0.  1.
         25    1    1    2    0    0  0.86956250824E+02 -0.10013369422E+03  0.43969697551E+03  0.47596909201E+03  0.12500000000E+03 0.  0.
         25    1    1    2    0    0 -0.86956250824E+02  0.10013369422E+03  0.34543635633E+03  0.39056295593E+03  0.12500000000E+03 0.  0.
</event>
<event>
 4    0  0.2259196E-002  0.2219903E+03  0.7546771E-02  0.1132408E+00
         21   -1    0    0  502  501  0.00000000000E+00  0.00000000000E+00  0.91500317385E+03  0.91500317385E+03  0.00000000000E+00 0.  1.
         21   -1    0    0  501  502 -0.00000000000E+00 -0.00000000000E+00 -0.53857419133E+02  0.53857419133E+02  0.00000000000E+00 0.  1.
         25    1    1    2    0    0  0.73720968266E+01 -0.36801444211E+01  0.83050073673E+03  0.83989544884E+03  0.12500000000E+03 0.  0.
         25    1    1    2    0    0 -0.73720968266E+01  0.36801444211E+01  0.30645017979E+02  0.12896514413E+03  0.12500000000E+03 0.  0.
</event>
<event>
 4    0  0.2259196E-002  0.3355238E+03  0.7546771E-02  0.1068719E+00
         21   -1    0    0  502  501  0.00000000000E+00  0.00000000000E+00  0.31911406028E+03  0.31911406028E+03  0.00000000000E+00 0.  1.
         21   -1    0    0  501  502 -0.00000000000E+00 -0.00000000000E+00 -0.35277731306E+03  0.35277731306E+03  0.00000000000E+00 0.  1.
         25    1    1    2    0    0 -0.25364926657E+03  0.18058120476E+03 -0.18752057718E+02  0.33604190455E+03  0.12500000000E+03 0.  0.
         25    1    1    2    0    0  0.25364926657E+03 -0.18058120476E+03 -0.14911195056E+02  0.33584946879E+03  0.12500000000E+03 0.  0.
</event>
<event>
 4    0  0.2259196E-002  0.1979477E+03  0.7546771E-02  0.1151482E+00
         21   -1    0    0  502  501  0.00000000000E+00  0.00000000000E+00  0.10577295227E+04  0.10577295227E+04  0.00000000000E+00 0.  1.
         21   -1    0    0  501  502 -0.00000000000E+00 -0.00000000000E+00 -0.37044728767E+02  0.37044728767E+02  0.00000000000E+00 0.  1.
         25    1    1    2    0    0 -0.41892559650E+01  0.58804752894E+02  0.90222473916E+03  0.91274861204E+03  0.12500000000E+03 0.  0.
         25    1    1    2    0    0  0.41892559650E+01 -0.58804752894E+02  0.11846005475E+03  0.18202563940E+03  0.12500000000E+03 0.  0.
</event>
<event>
 4    0  0.2259196E-002  0.3286850E+03  0.7546771E-02  0.1071720E+00
         21   -1    0    0  502  501  0.00000000000E+00  0.00000000000E+00  0.34032752290E+03  0.34032752290E+03  0.00000000000E+00 0.  1.
         21   -1    0    0  501  502 -0.00000000000E+00 -0.00000000000E+00 -0.31744069019E+03  0.31744069019E+03  0.00000000000E+00 0.  1.
         25    1    1    2    0    0  0.94244543252E+02  0.13769102502E+02  0.30030012431E+03  0.33893478248E+03  0.12500000000E+03 0.  0.
         25    1    1    2    0    0 -0.94244543252E+02 -0.13769102502E+02 -0.27741329160E+03  0.31883343061E+03  0.12500000000E+03 0.  0.
</event>
<event>
 4    0  0.2259196E-002  0.2425882E+03  0.7546771E-02  0.1118081E+00
         21   -1    0    0  502  501  0.00000000000E+00  0.00000000000E+00  0.30001948414E+03  0.30001948414E+03  0.00000000000E+00 0. -1.
         21   -1    0    0  501  502 -0.00000000000E+00 -0.00000000000E+00 -0.19615074867E+03  0.19615074867E+03  0.00000000000E+00 0. -1.
         25    1    1    2    0    0  0.12468229548E+03 -0.86081830317E+02  0.19752705129E+03  0.27856362345E+03  0.12500000000E+03 0.  0.
         25    1    1    2    0    0 -0.12468229548E+03  0.86081830317E+02 -0.93658315816E+02  0.21760660936E+03  0.12500000000E+03 0.  0.
</event>
<event>
 4    0  0.2259196E-002  0.2075603E+03  0.7546771E-02  0.1143513E+00
         21   -1    0    0  502  501  0.00000000000E+00  0.00000000000E+00  0.49725987983E+03  0.49725987983E+03  0.00000000000E+00 0. -1.
         21   -1    0    0  501  502 -0.00000000000E+00 -0.00000000000E+00 -0.86637385831E+02  0.86637385831E+02  0.00000000000E+00 0. -1.
         25    1    1    2    0    0  0.35124797572E+02 -0.16099814710E+03  0.22976058516E+03  0.30914249346E+03  0.12500000000E+03 0.  0.
         25    1    1    2    0    0 -0.35124797572E+02  0.16099814710E+03  0.18086190884E+03  0.27475477220E+03  0.12500000000E+03 0.  0.
</event>
<event>
 4    0  0.2259196E-002  0.2105885E+03  0.7546771E-02  0.1141101E+00
         21   -1    0    0  502  501  0.00000000000E+00  0.00000000000E+00  0.13809028550E+03  0.13809028550E+03  0.00000000000E+00 0.  1.
         21   -1    0    0  501  502 -0.00000000000E+00 -0.00000000000E+00 -0.32114879283E+03  0.32114879283E+03  0.00000000000E+00 0.  1.
         25    1    1    2    0    0 -0.53478298600E+02 -0.13630721063E+02  0.83191546184E+02  0.15997361762E+03  0.12500000000E+03 0.  0.
         25    1    1    2    0    0  0.53478298600E+02  0.13630721063E+02 -0.26625005351E+03  0.29926546071E+03  0.12500000000E+03 0.  0.
</event>
<event>
 4    0  0.2259196E-002  0.3597392E+03  0.7546771E-02  0.1058687E+00
         21   -1    0    0  502  501  0.00000000000E+00  0.00000000000E+00  0.99783819486E+02  0.99783819486E+02  0.00000000000E+00 0.  1.
         21   -1    0    0  501  502 -0.00000000000E+00 -0.00000000000E+00 -0.12969263071E+04  0.12969263071E+04  0.00000000000E+00 0.  1.
         25    1    1    2    0    0  0.30949770733E+03 -0.13375511552E+03 -0.61874551807E+03  0.71564675497E+03  0.12500000000E+03 0.  0.
         25    1    1    2    0    0 -0.30949770733E+03  0.13375511552E+03 -0.57839696952E+03  0.68106337159E+03  0.12500000000E+03 0.  0.
</event>
<event>
 4    0  0.2259196E-002  0.1387520E+03  0.7546771E-02  0.1215018E+00
         21   -1    0    0  502  501  0.00000000000E+00  0.00000000000E+00  0.62395683859E+03  0.62395683859E+03  0.00000000000E+00 0.  1.
         21   -1    0    0  501  502 -0.00000000000E+00 -0.00000000000E+00 -0.30854882673E+02  0.30854882673E+02  0.00000000000E+00 0.  1.
         25    1    1    2    0    0 -0.23119231721E+02 -0.26010066582E+02  0.41253656190E+03  0.43246090846E+03  0.12500000000E+03 0.  0.
         25    1    1    2    0    0  0.23119231721E+02  0.26010066582E+02  0.18056539402E+03  0.22235081281E+03  0.12500000000E+03 0.  0.
</event>
<event>
 4    0  0.2259196E-002  0.1917635E+03  0.7546771E-02  0.1156880E+00
         21   -1    0    0  502  501  0.00000000000E+00  0.00000000000E+00  0.32738593884E+02  0.32738593884E+02  0.00000000000E+00 0.  1.
         21   -1    0    0  501  502 -0.00000000000E+00 -0.00000000000E+00 -0.11232376503E+04  0.11232376503E+04  0.00000000000E+00 0.  1.
         25    1    1    2    0    0 -0.12373171262E+03  0.76203380540E+02 -0.52827163917E+03  0.56197190025E+03  0.12500000000E+03 0.  0.
         25    1    1    2    0    0  0.12373171262E+03 -0.76203380540E+02 -0.56222741719E+03  0.59400434389E+03  0.12500000000E+03 0.  0.
</event>
<event>
 4    0  0.2259196E-002  0.2124172E+03  0.7546771E-02  0.1139666E+00
         21   -1    0    0  502  501  0.00000000000E+00  0.00000000000E+00  0.59863737197E+03  0.59863737197E+03  0.00000000000E+00 0. -1.
         21   -1    0    0  501  502 -0.00000000000E+00 -0.00000000000E+00 -0.75372938898E+02  0.75372938898E+02  0.00000000000E+00 0. -1.
         25    1    1    2    0    0 -0.16171425212E+03  0.54637542081E+02  0.29170503526E+03  0.36035203335E+03  0.12500000000E+03 0.  0.
         25    1    1    2    0    0  0.16171425212E+03 -0.54637542081E+02  0.23155939781E+03  0.31365827752E+03  0.12500000000E+03 0.  0.
</event>
<event>
 4    0  0.2259196E-002  0.1759389E+03  0.7546771E-02  0.1171792E+00
         21   -1    0    0  502  501  0.00000000000E+00  0.00000000000E+00  0.50109276789E+03  0.50109276789E+03  0.00000000000E+00 0. -1.
         21   -1    0    0  501  502 -0.00000000000E+00 -0.00000000000E+00 -0.61774001729E+02  0.61774001729E+02  0.00000000000E+00 0. -1.
         25    1    1    2    0    0 -0.83672814337E+02  0.87523198077E+02  0.26100409156E+03  0.31370302178E+03  0.12500000000E+03 0.  0.
         25    1    1    2    0    0  0.83672814337E+02 -0.87523198077E+02  0.17831467460E+03  0.24916374784E+03  0.12500000000E+03 0.  0.
</event>
<event>
 4    0  0.2259196E-002  0.2591881E+03  0.7546771E-02  0.1107632E+00
         21   -1    0    0  502  501  0.00000000000E+00  0.00000000000E+00  0.20714817028E+03  0.20714817028E+03  0.00000000000E+00 0.  1.
         21   -1    0    0  501  502 -0.00000000000E+00 -0.00000000000E+00 -0.32430156655E+03  0.32430156655E+03  0.00000000000E+00 0.  1.
         25    1    1    2    0    0 -0.66209704084E+02 -0.79588204893E+02  0.14859761124E+03  0.22005512341E+03  0.12500000000E+03 0.  0.
         25    1    1    2    0    0  0.66209704084E+02  0.79588204893E+02 -0.26575100751E+03  0.31139461341E+03  0.12500000000E+03 0.  0.
</event>
<event>
 4    0  0.2259196E-002  0.2352975E+03  0.7546771E-02  0.1122966E+00
         21   -1    0    0  502  501  0.00000000000E+00  0.00000000000E+00  0.23138507839E+03  0.23138507839E+03  0.00000000000E+00 0. -1.
         21   -1    0    0  501  502 -0.00000000000E+00 -0.00000000000E+00 -0.23927613094E+03  0.23927613094E+03  0.00000000000E+00 0. -1.
         25    1    1    2    0    0  0.14115562364E+03 -0.14075196581E+03 -0.19703181043E+01  0.23529748855E+03  0.12500000000E+03 0.  0.
         25    1    1    2    0    0 -0.14115562364E+03  0.14075196581E+03 -0.59207344456E+01  0.23536372078E+03  0.12500000000E+03 0.  0.
</event>
<event>
 4    0  0.2259196E-002  0.2894277E+03  0.7546771E-02  0.1090648E+00
         21   -1    0    0  502  501  0.00000000000E+00  0.00000000000E+00  0.26054584954E+03  0.26054584954E+03  0.00000000000E+00 0. -1.
         21   -1    0    0  501  502 -0.00000000000E+00 -0.00000000000E+00 -0.32151118594E+03  0.32151118594E+03  0.00000000000E+00 0. -1.
         25    1    1    2    0    0 -0.16291714673E+03 -0.15087608031E+03  0.10752738019E+03  0.27657318344E+03  0.12500000000E+03 0.  0.
         25    1    1    2    0    0  0.16291714673E+03  0.15087608031E+03 -0.16849271660E+03  0.30548385204E+03  0.12500000000E+03 0.  0.
</event>
<event>
 4    0  0.2259196E-002  0.2178273E+03  0.7546771E-02  0.1135513E+00
         21   -1    0    0  502  501  0.00000000000E+00  0.00000000000E+00  0.11831257171E+03  0.11831257171E+03  0.00000000000E+00 0.  1.
         21   -1    0    0  501  502 -0.00000000000E+00 -0.00000000000E+00 -0.40104542665E+03  0.40104542665E+03  0.00000000000E+00 0.  1.
         25    1    1    2    0    0  0.12037831983E+03  0.39412987662E+02 -0.29111742855E+03  0.34120181812E+03  0.12500000000E+03 0.  0.
         25    1    1    2    0    0 -0.12037831983E+03 -0.39412987662E+02  0.83845736112E+01  0.17815618023E+03  0.12500000000E+03 0.  0.
</event>
<event>
 4    0  0.2259196E-002  0.2124097E+03  0.7546771E-02  0.1139672E+00
         21   -1    0    0  502  501  0.00000000000E+00  0.00000000000E+00  0.53250717454E+03  0.53250717454E+03  0.00000000000E+00 0.  1.
         21   -1    0    0  501  502 -0.00000000000E+00 -0.00000000000E+00 -0.84727288657E+02  0.84727288657E+02  0.00000000000E+00 0.  1.
         25    1    1    2    0    0  0.86670217246E+02 -0.84686180515E+02  0.47076731325E+02  0.18034604060E+03  0.12500000000E+03 0.  0.
         25    1    1    2    0    0 -0.86670217246E+02  0.84686180515E+02  0.40070315456E+03  0.43688842260E+03  0.12500000000E+03 0.  0.
</event>
<event>
 4    0  0.2259196E-002  0.2901314E+03  0.7546771E-02  0.1090281E+00
         21   -1    0    0  502  501  0.00000000000E+00  0.00000000000E+00  0.45621182733E+03  0.45621182733E+03  0.00000000000E+00 0.  1.
         21   -1    0    0  501  502 -0.00000000000E+00 -0.00000000000E+00 -0.18451127840E+03  0.18451127840E+03  0.00000000000E+00 0.  1.
         25    1    1    2    0    0  0.95740671078E+02 -0.18678185062E+03 -0.36974687645E+02  0.24707461089E+03  0.12500000000E+03 0.  0.
         25    1    1    2    0    0 -0.95740671078E+02  0.18678185062E+03  0.30867523657E+03  0.39364849484E+03  0.12500000000E+03 0.  0.
</event>
<event>
 4    0  0.2259196E-002  0.1805264E+03  0.7546771E-02  0.1167295E+00
         21   -1    0    0  502  501  0.00000000000E+00  0.00000000000E+00  0.11409453856E+02  0.11409453856E+02  0.00000000000E+00 0.  1.
         21   -1    0    0  501  502 -0.00000000000E+00 -0.00000000000E+00 -0.28563852167E+04  0.28563852167E+04  0.00000000000E+00 0.  1.
         25    1    1    2    0    0 -0.97150464865E+02  0.34535268265E+01 -0.73394374615E+03  0.75083191341E+03  0.12500000000E+03 0.  0.
         25    1    1    2    0    0  0.97150464865E+02 -0.34535268265E+01 -0.21110320167E+04  0.21169627572E+04  0.12500000000E+03 0.  0.
</event>
<event>
 4    0  0.2259196E-002  0.2153500E+03  0.7546771E-02  0.1137398E+00
         21   -1    0    0  502  501  0.00000000000E+00  0.00000000000E+00  0.18194057758E+03  0.18194057758E+03  0.00000000000E+00 0.  1.
         21   -1    0    0  501  502 -0.00000000000E+00 -0.00000000000E+00 -0.25489423454E+03  0.25489423454E+03  0.00000000000E+00 0.  1.
         25    1    1    2    0    0  0.10062667640E+03  0.14058691434E+03 -0.66223686809E+02  0.22338528417E+03  0.12500000000E+03 0.  0.
         25    1    1    2    0    0 -0.10062667640E+03 -0.14058691434E+03 -0.67299701478E+01  0.21344952796E+03  0.12500000000E+03 0.  0.
</event>
<event>
 4    0  0.2259196E-002  0.2602468E+03  0.7546771E-02  0.1106995E+00
         21   -1    0    0  502  501  0.00000000000E+00  0.00000000000E+00  0.78580945943E+02  0.78580945943E+02  0.00000000000E+00 0.  1.
         21   -1    0    0  501  502 -0.00000000000E+00 -0.00000000000E+00 -0.86189370691E+03  0.86189370691E+03  0.00000000000E+00 0.  1.
         25    1    1    2    0    0  0.83993458803E+02  0.17252849460E+03 -0.61502798882E+03  0.65628150180E+03  0.12500000000E+03 0.  0.
         25    1    1    2    0    0 -0.83993458803E+02 -0.17252849460E+03 -0.16828477214E+03  0.28419315105E+03  0.12500000000E+03 0.  0.
</event>
<event>
 4    0  0.2259196E-002  0.2148415E+03  0.7546771E-02  0.1137788E+00
         21   -1    0    0  502  501  0.00000000000E+00  0.00000000000E+00  0.13974809631E+04  0.13974809631E+04  0.00000000000E+00 0. -1.
         21   -1    0    0  501  502 -0.00000000000E+00 -0.00000000000E+00 -0.33028612898E+02  0.33028612898E+02  0.00000000000E+00 0. -1.
         25    1    1    2    0    0 -0.14225530302E+03  0.94068591440E+02  0.80884108643E+03  0.83602295078E+03  0.12500000000E+03 0.  0.
         25    1    1    2    0    0  0.14225530302E+03 -0.94068591440E+02  0.55561126380E+03  0.59448662524E+03  0.12500000000E+03 0.  0.
</event>
<event>
 4    0  0.2259196E-002  0.1805600E+03  0.7546771E-02  0.1167262E+00
         21   -1    0    0  502  501  0.00000000000E+00  0.00000000000E+00  0.28111957008E+02  0.28111957008E+02  0.00000000000E+00 0. -1.
         21   -1    0    0  501  502 -0.00000000000E+00 -0.00000000000E+00 -0.11597168192E+04  0.11597168192E+04  0.00000000000E+00 0. -1.
         25    1    1    2    0    0  0.82838575925E+02 -0.13405979354E+02 -0.89366012326E+03  0.90625347770E+03  0.12500000000E+03 0.  0.
         25    1    1    2    0    0 -0.82838575925E+02  0.13405979354E+02 -0.23794473894E+03  0.28157529851E+03  0.12500000000E+03 0.  0.
</event>
<event>
 4    0  0.2259196E-002  0.2118447E+03  0.7546771E-02  0.1140113E+00
         21   -1    0    0  502  501  0.00000000000E+00  0.00000000000E+00  0.11967659969E+04  0.11967659969E+04  0.00000000000E+00 0.  1.
         21   -1    0    0  501  502 -0.00000000000E+00 -0.00000000000E+00 -0.37499550146E+02  0.37499550146E+02  0.00000000000E+00 0.  1.
         25    1    1    2    0    0  0.13392794264E+03  0.10584146367E+03  0.54851888961E+03  0.58790907589E+03  0.12500000000E+03 0.  0.
         25    1    1    2    0    0 -0.13392794264E+03 -0.10584146367E+03  0.61074755715E+03  0.64635647116E+03  0.12500000000E+03 0.  0.
</event>
<event>
 4    0  0.2259196E-002  0.2709308E+03  0.7546771E-02  0.1100748E+00
         21   -1    0    0  502  501  0.00000000000E+00  0.00000000000E+00  0.27580242709E+04  0.27580242709E+04  0.00000000000E+00 0.  1.
         21   -1    0    0  501  502 -0.00000000000E+00 -0.00000000000E+00 -0.26614520248E+02  0.26614520248E+02  0.00000000000E+00 0.  1.
         25    1    1    2    0    0 -0.13914402953E+03  0.17863447930E+03  0.95115568179E+03  0.98569440962E+03  0.12500000000E+03 0.  0.
         25    1    1    2    0    0  0.13914402953E+03 -0.17863447930E+03  0.17802540689E+04  0.17989443816E+04  0.12500000000E+03 0.  0.
</event>
<event>
 4    0  0.2259196E-002  0.1935747E+03  0.7546771E-02  0.1155276E+00
         21   -1    0    0  502  501  0.00000000000E+00  0.00000000000E+00  0.82241635408E+03  0.82241635408E+03  0.00000000000E+00 0.  1.
         21   -1    0    0  501  502 -0.00000000000E+00 -0.00000000000E+00 -0.45562264750E+02  0.45562264750E+02  0.00000000000E+00 0.  1.
         25    1    1    2    0    0 -0.23552555653E+02  0.70910471349E+02  0.10251488307E+03  0.17809356832E+03  0.12500000000E+03 0.  0.
         25    1    1    2    0    0  0.23552555653E+02 -0.70910471349E+02  0.67433920626E+03  0.68988505052E+03  0.12500000000E+03 0.  0.
</event>
<event>
 4    0  0.2259196E-002  0.1685139E+03  0.7546771E-02  0.1179407E+00
         21   -1    0    0  502  501  0.00000000000E+00  0.00000000000E+00  0.58482445501E+02  0.58482445501E+02  0.00000000000E+00 0. -1.
         21   -1    0    0  501  502 -0.00000000000E+00 -0.00000000000E+00 -0.48556324691E+03  0.48556324691E+03  0.00000000000E+00 0. -1.
         25    1    1    2    0    0  0.19218314831E+02  0.10016079127E+03 -0.29213277090E+03  0.33371856940E+03  0.12500000000E+03 0.  0.
         25    1    1    2    0    0 -0.19218314831E+02 -0.10016079127E+03 -0.13494803051E+03  0.21032712301E+03  0.12500000000E+03 0.  0.
</event>
<event>
 4    0  0.2259196E-002  0.4068974E+03  0.7546771E-02  0.1041417E+00
         21   -1    0    0  502  501  0.00000000000E+00  0.00000000000E+00  0.15164264768E+03  0.15164264768E+03  0.00000000000E+00 0.  1.
         21   -1    0    0  501  502 -0.00000000000E+00 -0.00000000000E+00 -0.10918133442E+04  0.10918133442E+04  0.00000000000E+00 0.  1.
         25    1    1    2    0    0 -0.16053711873E+03 -0.16835022123E+03  0.29116285105E+01  0.26409740828E+03  0.12500000000E+03 0.  0.
         25    1    1    2    0    0  0.16053711873E+03  0.16835022123E+03 -0.94308232499E+03  0.97935858356E+03  0.12500000000E+03 0.  0.
</event>
<event>
 4    0  0.2259196E-002  0.2139028E+03  0.7546771E-02  0.1138512E+00
         21   -1    0    0  502  501  0.00000000000E+00  0.00000000000E+00  0.30141101231E+03  0.30141101231E+03  0.00000000000E+00 0.  1.
         21   -1    0    0  501  502 -0.00000000000E+00 -0.00000000000E+00 -0.15180077712E+03  0.15180077712E+03  0.00000000000E+00 0. -1.
         25    1    1    2    0    0 -0.11389520034E+03  0.13041296558E+03  0.61840382348E+02  0.22232609190E+03  0.12500000000E+03 0.  0.
         25    1    1    2    0    0  0.11389520034E+03 -0.13041296558E+03  0.87769852845E+02  0.23088569752E+03  0.12500000000E+03 0.  0.
</event>
<event>
 4    0  0.2259196E-002  0.3451430E+03  0.7546771E-02  0.1064626E+00
         21   -1    0    0  502  501  0.00000000000E+00  0.00000000000E+00  0.31647120894E+04  0.31647120894E+04  0.00000000000E+00 0. -1.
         21   -1    0    0  501  502 -0.00000000000E+00 -0.00000000000E+00 -0.37641233099E+02  0.37641233099E+02  0.00000000000E+00 0. -1.
         25    1    1    2    0    0 -0.29795360109E+03 -0.11954363753E+03  0.14671527606E+04  0.15070598039E+04  0.12500000000E+03 0.  0.
         25    1    1    2    0    0  0.29795360109E+03  0.11954363753E+03  0.16599180957E+04  0.16952935186E+04  0.12500000000E+03 0.  0.
</event>
<event>
 4    0  0.2259196E-002  0.2146501E+03  0.7546771E-02  0.1137936E+00
         21   -1    0    0  502  501  0.00000000000E+00  0.00000000000E+00  0.55467784889E+03  0.55467784889E+03  0.00000000000E+00 0. -1.
         21   -1    0    0  501  502 -0.00000000000E+00 -0.00000000000E+00 -0.83065619498E+02  0.83065619498E+02  0.00000000000E+00 0. -1.
         25    1    1    2    0    0  0.15941427966E+03  0.70616069754E+02  0.24632279516E+03  0.32664883481E+03  0.12500000000E+03 0.  0.
         25    1    1    2    0    0 -0.15941427966E+03 -0.70616069754E+02  0.22528943423E+03  0.31109463358E+03  0.12500000000E+03 0.  0.
</event>
<event>
 4    0  0.2259196E-002  0.3806126E+03  0.7546771E-02  0.1050708E+00
         21   -1    0    0  502  501  0.00000000000E+00  0.00000000000E+00  0.95874555447E+03  0.95874555447E+03  0.00000000000E+00 0. -1.
         21   -1    0    0  501  502 -0.00000000000E+00 -0.00000000000E+00 -0.15109947047E+03  0.15109947047E+03  0.00000000000E+00 0. -1.
         25    1    1    2    0    0 -0.11095484561E+03  0.22458953622E+03  0.77976928663E+03  0.82850261190E+03  0.12500000000E+03 0.  0.
         25    1    1    2    0    0  0.11095484561E+03 -0.22458953622E+03  0.27876797364E+02  0.28134241304E+03  0.12500000000E+03 0.  0.
</event>
<event>
 4    0  0.2259196E-002  0.3817927E+03  0.7546771E-02  0.1050273E+00
         21   -1    0    0  502  501  0.00000000000E+00  0.00000000000E+00  0.52304889426E+03  0.52304889426E+03  0.00000000000E+00 0. -1.
         21   -1    0    0  501  502 -0.00000000000E+00 -0.00000000000E+00 -0.27868463119E+03  0.27868463119E+03  0.00000000000E+00 0.  1.
         25    1    1    2    0    0 -0.45312584530E+02 -0.20083000809E+03 -0.18885178623E+03  0.30606522120E+03  0.12500000000E+03 0.  0.
         25    1    1    2    0    0  0.45312584530E+02  0.20083000809E+03  0.43321604930E+03  0.49566830425E+03  0.12500000000E+03 0.  0.
</event>
<event>
 4    0  0.2259196E-002  0.2298826E+03  0.7546771E-02  0.1126722E+00
         21   -1    0    0  502  501  0.00000000000E+00  0.00000000000E+00  0.10936478015E+03  0.10936478015E+03  0.00000000000E+00 0. -1.
         21   -1    0    0  501  502 -0.00000000000E+00 -0.00000000000E+00 -0.48320885365E+03  0.48320885365E+03  0.00000000000E+00 0. -1.
         25    1    1    2    0    0  0.76422219367E+02 -0.67817847327E+02 -0.39784452995E+03  0.42935403345E+03  0.12500000000E+03 0.  0.
         25    1    1    2    0    0 -0.76422219367E+02  0.67817847327E+02  0.24000456456E+02  0.16321960035E+03  0.12500000000E+03 0.  0.
</event>
<event>
 4    0  0.2259196E-002  0.1766678E+03  0.7546771E-02  0.1171068E+00
         21   -1    0    0  502  501  0.00000000000E+00  0.00000000000E+00  0.70734928127E+03  0.70734928127E+03  0.00000000000E+00 0.  1.
         21   -1    0    0  501  502 -0.00000000000E+00 -0.00000000000E+00 -0.44124596080E+02  0.44124596080E+02  0.00000000000E+00 0.  1.
         25    1    1    2    0    0 -0.33421187959E+02 -0.11709112887E+03  0.27301165965E+03  0.32401801581E+03  0.12500000000E+03 0.  0.
         25    1    1    2    0    0  0.33421187959E+02  0.11709112887E+03  0.39021302554E+03  0.42745586154E+03  0.12500000000E+03 0.  0.
</event>
<event>
 4    0  0.2259196E-002  0.2307667E+03  0.7546771E-02  0.1126101E+00
         21   -1    0    0  502  501  0.00000000000E+00  0.00000000000E+00  0.88849766165E+03  0.88849766165E+03  0.00000000000E+00 0. -1.
         21   -1    0    0  501  502 -0.00000000000E+00 -0.00000000000E+00 -0.59936307129E+02  0.59936307129E+02  0.00000000000E+00 0. -1.
         25    1    1    2    0    0  0.32911960897E+01  0.14911307625E+03  0.15940955037E+03  0.25155903130E+03  0.12500000000E+03 0.  0.
         25    1    1    2    0    0 -0.32911960897E+01 -0.14911307625E+03  0.66915180415E+03  0.69687493747E+03  0.12500000000E+03 0.  0.
</event>
<event>
 4    0  0.2259196E-002  0.1757216E+03  0.7546771E-02  0.1172009E+00
         21   -1    0    0  502  501  0.00000000000E+00  0.00000000000E+00  0.32210601130E+03  0.32210601130E+03  0.00000000000E+00 0.  1.
         21   -1    0    0  501  502 -0.00000000000E+00 -0.00000000000E+00 -0.95863056458E+02  0.95863056458E+02  0.00000000000E+00 0.  1.
         25    1    1    2    0    0 -0.10732313981E+03  0.60722659870E+02  0.12132406823E+03  0.21342452364E+03  0.12500000000E+03 0.  0.
         25    1    1    2    0    0  0.10732313981E+03 -0.60722659870E+02  0.10491888662E+03  0.20454454412E+03  0.12500000000E+03 0.  0.
</event>
<event>
 4    0  0.2259196E-002  0.2377593E+03  0.7546771E-02  0.1121295E+00
         21   -1    0    0  502  501  0.00000000000E+00  0.00000000000E+00  0.16641326042E+03  0.16641326042E+03  0.00000000000E+00 0.  1.
         21   -1    0    0  501  502 -0.00000000000E+00 -0.00000000000E+00 -0.33969350114E+03  0.33969350114E+03  0.00000000000E+00 0.  1.
         25    1    1    2    0    0  0.15124863878E+03  0.94074883355E+02  0.15325776345E+02  0.21814241640E+03  0.12500000000E+03 0.  0.
         25    1    1    2    0    0 -0.15124863878E+03 -0.94074883355E+02 -0.18860601706E+03  0.28796434516E+03  0.12500000000E+03 0.  0.
</event>
<event>
 4    0  0.2259196E-002  0.2608758E+03  0.7546771E-02  0.1106618E+00
         21   -1    0    0  502  501  0.00000000000E+00  0.00000000000E+00  0.23158673265E+03  0.23158673265E+03  0.00000000000E+00 0. -1.
         21   -1    0    0  501  502 -0.00000000000E+00 -0.00000000000E+00 -0.29386898064E+03  0.29386898064E+03  0.00000000000E+00 0. -1.
         25    1    1    2    0    0  0.73507500457E+02 -0.16516120195E+03  0.11038980708E+03  0.24595220016E+03  0.12500000000E+03 0.  0.
         25    1    1    2    0    0 -0.73507500457E+02  0.16516120195E+03 -0.17267205507E+03  0.27950351314E+03  0.12500000000E+03 0.  0.
</event>
<event>
 4    0  0.2259196E-002  0.2043236E+03  0.7546771E-02  0.1146142E+00
         21   -1    0    0  502  501  0.00000000000E+00  0.00000000000E+00  0.10738389587E+03  0.10738389587E+03  0.00000000000E+00 0. -1.
         21   -1    0    0  501  502 -0.00000000000E+00 -0.00000000000E+00 -0.38877478045E+03  0.38877478045E+03  0.00000000000E+00 0. -1.
         25    1    1    2    0    0  0.47902001221E+02 -0.67277876462E+02 -0.30938017860E+03  0.34374701351E+03  0.12500000000E+03 0.  0.
         25    1    1    2    0    0 -0.47902001221E+02  0.67277876462E+02  0.27989294025E+02  0.15241166282E+03  0.12500000000E+03 0.  0.
</event>
<event>
 4    0  0.2259196E-002  0.3652514E+03  0.7546771E-02  0.1056524E+00
         21   -1    0    0  502  501  0.00000000000E+00  0.00000000000E+00  0.44537299003E+03  0.44537299003E+03  0.00000000000E+00 0.  1.
         21   -1    0    0  501  502 -0.00000000000E+00 -0.00000000000E+00 -0.29954350231E+03  0.29954350231E+03  0.00000000000E+00 0.  1.
         25    1    1    2    0    0  0.49540238606E+02  0.10399932190E+03  0.40257901567E+03  0.43699537533E+03  0.12500000000E+03 0.  0.
         25    1    1    2    0    0 -0.49540238606E+02 -0.10399932190E+03 -0.25674952795E+03  0.30792111701E+03  0.12500000000E+03 0.  0.
</event>
<event>
 4    0  0.2259196E-002  0.1562848E+03  0.7546771E-02  0.1192956E+00
         21   -1    0    0  502  501  0.00000000000E+00  0.00000000000E+00  0.11533082316E+03  0.11533082316E+03  0.00000000000E+00 0.  1.
         21   -1    0    0  501  502 -0.00000000000E+00 -0.00000000000E+00 -0.21178156618E+03  0.21178156618E+03  0.00000000000E+00 0.  1.
         25    1    1    2    0    0 -0.49841213683E+02 -0.24574925777E+02  0.30867862848E+02  0.14023515435E+03  0.12500000000E+03 0.  0.
         25    1    1    2    0    0  0.49841213683E+02  0.24574925777E+02 -0.12731860586E+03  0.18687723499E+03  0.12500000000E+03 0.  0.
</event>
<event>
 4    0  0.2259196E-002  0.2575806E+03  0.7546771E-02  0.1108606E+00
         21   -1    0    0  502  501  0.00000000000E+00  0.00000000000E+00  0.36880236913E+03  0.36880236913E+03  0.00000000000E+00 0.  1.
         21   -1    0    0  501  502 -0.00000000000E+00 -0.00000000000E+00 -0.17990061298E+03  0.17990061298E+03  0.00000000000E+00 0.  1.
         25    1    1    2    0    0  0.16873408596E+03  0.14779135498E+03  0.11599917001E+03  0.28176991290E+03  0.12500000000E+03 0.  0.
         25    1    1    2    0    0 -0.16873408596E+03 -0.14779135498E+03  0.72902586139E+02  0.26693306921E+03  0.12500000000E+03 0.  0.
</event>
<event>
 4    0  0.2259196E-002  0.2392268E+03  0.7546771E-02  0.1120309E+00
         21   -1    0    0  502  501  0.00000000000E+00  0.00000000000E+00  0.91864870150E+03  0.91864870150E+03  0.00000000000E+00 0. -1.
         21   -1    0    0  501  502 -0.00000000000E+00 -0.00000000000E+00 -0.62297444873E+02  0.62297444873E+02  0.00000000000E+00 0. -1.
         25    1    1    2    0    0  0.66909487409E+02 -0.49860081844E+02  0.46579431466E+02  0.15734532310E+03  0.12500000000E+03 0.  0.
         25    1    1    2    0    0 -0.66909487409E+02  0.49860081844E+02  0.80977182516E+03  0.82360082327E+03  0.12500000000E+03 0.  0.
</event>
<event>
 4    0  0.2259196E-002  0.2675596E+03  0.7546771E-02  0.1102684E+00
         21   -1    0    0  502  501  0.00000000000E+00  0.00000000000E+00  0.13768134566E+04  0.13768134566E+04  0.00000000000E+00 0.  1.
         21   -1    0    0  501  502 -0.00000000000E+00 -0.00000000000E+00 -0.51995518265E+02  0.51995518265E+02  0.00000000000E+00 0.  1.
         25    1    1    2    0    0  0.11209610407E+03  0.12733306103E+03  0.22217918351E+03  0.30621534019E+03  0.12500000000E+03 0.  0.
         25    1    1    2    0    0 -0.11209610407E+03 -0.12733306103E+03  0.11026387548E+04  0.11225936347E+04  0.12500000000E+03 0.  0.
</event>
<event>
 4    0  0.2259196E-002  0.1791391E+03  0.7546771E-02  0.1168639E+00
         21   -1    0    0  502  501  0.00000000000E+00  0.00000000000E+00  0.26195265999E+02  0.26195265999E+02  0.00000000000E+00 0.  1.
         21   -1    0    0  501  502 -0.00000000000E+00 -0.00000000000E+00 -0.12250616446E+04  0.12250616446E+04  0.00000000000E+00 0.  1.
         25    1    1    2    0    0  0.61792309308E+02  0.38500872157E+02 -0.96846138017E+03  0.97920531633E+03  0.12500000000E+03 0.  0.
         25    1    1    2    0    0 -0.61792309308E+02 -0.38500872157E+02 -0.23040499848E+03  0.27205159432E+03  0.12500000000E+03 0.  0.
</event>
<event>
 4    0  0.2259196E-002  0.2485401E+03  0.7546771E-02  0.1114231E+00
         21   -1    0    0  502  501  0.00000000000E+00  0.00000000000E+00  0.19771404274E+03  0.19771404274E+03  0.00000000000E+00 0. -1.
         21   -1    0    0  501  502 -0.00000000000E+00 -0.00000000000E+00 -0.31243191060E+03  0.31243191060E+03  0.00000000000E+00 0. -1.
         25    1    1    2    0    0 -0.18160601148E+03  0.27989807116E+02  0.56844982151E+02  0.22939164044E+03  0.12500000000E+03 0.  0.
         25    1    1    2    0    0  0.18160601148E+03 -0.27989807116E+02 -0.17156285001E+03  0.28075431290E+03  0.12500000000E+03 0.  0.
</event>
<event>
 4    0  0.2259196E-002  0.2229316E+03  0.7546771E-02  0.1131716E+00
         21   -1    0    0  502  501  0.00000000000E+00  0.00000000000E+00  0.12155823285E+03  0.12155823285E+03  0.00000000000E+00 0.  1.
         21   -1    0    0  501  502 -0.00000000000E+00 -0.00000000000E+00 -0.40884533129E+03  0.40884533129E+03  0.00000000000E+00 0.  1.
         25    1    1    2    0    0 -0.58342033626E+02  0.26135419014E+02  0.62357198596E+02  0.15362380425E+03  0.12500000000E+03 0.  0.
         25    1    1    2    0    0  0.58342033626E+02 -0.26135419014E+02 -0.34964429704E+03  0.37677975989E+03  0.12500000000E+03 0.  0.
</event>
<event>
 4    0  0.2259196E-002  0.2004294E+03  0.7546771E-02  0.1149377E+00
         21   -1    0    0  502  501  0.00000000000E+00  0.00000000000E+00  0.33295976784E+03  0.33295976784E+03  0.00000000000E+00 0. -1.
         21   -1    0    0  501  502 -0.00000000000E+00 -0.00000000000E+00 -0.12065098753E+03  0.12065098753E+03  0.00000000000E+00 0. -1.
         25    1    1    2    0    0  0.15081401117E+03  0.31287348308E+02  0.73687975316E+02  0.21160973946E+03  0.12500000000E+03 0.  0.
         25    1    1    2    0    0 -0.15081401117E+03 -0.31287348308E+02  0.13862080499E+03  0.24200101592E+03  0.12500000000E+03 0.  0.
</event>
<event>
 4    0  0.2259196E-002  0.1827759E+03  0.7546771E-02  0.1165143E+00
         21   -1    0    0  502  501  0.00000000000E+00  0.00000000000E+00  0.15973781030E+03  0.15973781030E+03  0.00000000000E+00 0. -1.
         21   -1    0    0  501  502 -0.00000000000E+00 -0.00000000000E+00 -0.20913663399E+03  0.20913663399E+03  0.00000000000E+00 0. -1.
         25    1    1    2    0    0 -0.12600300515E+03 -0.42509720341E+02 -0.34698787295E+02  0.18577631568E+03  0.12500000000E+03 0.  0.
         25    1    1    2    0    0  0.12600300515E+03  0.42509720341E+02 -0.14700036400E+02  0.18309812861E+03  0.12500000000E+03 0.  0.
</event>
<event>
 4    0  0.2259196E-002  0.1911996E+03  0.7546771E-02  0.1157384E+00
         21   -1    0    0  502  501  0.00000000000E+00  0.00000000000E+00  0.30254129115E+04  0.30254129115E+04  0.00000000000E+00 0. -1.
         21   -1    0    0  501  502 -0.00000000000E+00 -0.00000000000E+00 -0.12083407667E+02  0.12083407667E+02  0.00000000000E+00 0. -1.
         25    1    1    2    0    0  0.34774409047E+02 -0.44766694038E+02  0.44931639241E+03  0.46981223580E+03  0.12500000000E+03 0.  0.
         25    1    1    2    0    0 -0.34774409047E+02  0.44766694038E+02  0.25640131115E+04  0.25676840834E+04  0.12500000000E+03 0.  0.
</event>
<event>
 4    0  0.2259196E-002  0.2049982E+03  0.7546771E-02  0.1145589E+00
         21   -1    0    0  502  501  0.00000000000E+00  0.00000000000E+00  0.17609798296E+03  0.17609798296E+03  0.00000000000E+00 0. -1.
         21   -1    0    0  501  502 -0.00000000000E+00 -0.00000000000E+00 -0.23864127452E+03  0.23864127452E+03  0.00000000000E+00 0. -1.
         25    1    1    2    0    0 -0.63065527462E+02  0.14856645523E+03 -0.12347079920E+02  0.20451577630E+03  0.12500000000E+03 0.  0.
         25    1    1    2    0    0  0.63065527462E+02 -0.14856645523E+03 -0.50196211643E+02  0.21022348118E+03  0.12500000000E+03 0.  0.
</event>
<event>
 4    0  0.2259196E-002  0.2494946E+03  0.7546771E-02  0.1113625E+00
         21   -1    0    0  502  501  0.00000000000E+00  0.00000000000E+00  0.54468221171E+03  0.54468221171E+03  0.00000000000E+00 0. -1.
         21   -1    0    0  501  502 -0.00000000000E+00 -0.00000000000E+00 -0.11428230403E+03  0.11428230403E+03  0.00000000000E+00 0. -1.
         25    1    1    2    0    0  0.28027166800E+02 -0.11187440066E+03  0.45626310729E+03  0.48693164477E+03  0.12500000000E+03 0.  0.
         25    1    1    2    0    0 -0.28027166800E+02  0.11187440066E+03 -0.25863199601E+02  0.17203287097E+03  0.12500000000E+03 0.  0.
</event>
<event>
 4    0  0.2259196E-002  0.2321134E+03  0.7546771E-02  0.1125161E+00
         21   -1    0    0  502  501  0.00000000000E+00  0.00000000000E+00  0.22036130016E+03  0.22036130016E+03  0.00000000000E+00 0. -1.
         21   -1    0    0  501  502 -0.00000000000E+00 -0.00000000000E+00 -0.24449229618E+03  0.24449229618E+03  0.00000000000E+00 0. -1.
         25    1    1    2    0    0  0.55578241496E+02 -0.18469209841E+03 -0.44536552487E+02  0.23411240175E+03  0.12500000000E+03 0.  0.
         25    1    1    2    0    0 -0.55578241496E+02  0.18469209841E+03  0.20405556464E+02  0.23074119459E+03  0.12500000000E+03 0.  0.
</event>
<event>
 4    0  0.2259196E-002  0.3275210E+03  0.7546771E-02  0.1072239E+00
         21   -1    0    0  502  501  0.00000000000E+00  0.00000000000E+00  0.29019382009E+03  0.29019382009E+03  0.00000000000E+00 0.  1.
         21   -1    0    0  501  502 -0.00000000000E+00 -0.00000000000E+00 -0.36964942637E+03  0.36964942637E+03  0.00000000000E+00 0.  1.
         25    1    1    2    0    0 -0.11048692216E+03  0.16120258602E+03 -0.27261789005E+03  0.35796528838E+03  0.12500000000E+03 0.  0.
         25    1    1    2    0    0  0.11048692216E+03 -0.16120258602E+03  0.19316228377E+03  0.30187795809E+03  0.12500000000E+03 0.  0.
</event>
<event>
 4    0  0.2259196E-002  0.2040136E+03  0.7546771E-02  0.1146396E+00
         21   -1    0    0  502  501  0.00000000000E+00  0.00000000000E+00  0.17749379227E+03  0.17749379227E+03  0.00000000000E+00 0. -1.
         21   -1    0    0  501  502 -0.00000000000E+00 -0.00000000000E+00 -0.23449575078E+03  0.23449575078E+03  0.00000000000E+00 0. -1.
         25    1    1    2    0    0 -0.10401370532E+02  0.11281828463E+02  0.13356023534E+03  0.18357234167E+03  0.12500000000E+03 0.  0.
         25    1    1    2    0    0  0.10401370532E+02 -0.11281828463E+02 -0.19056219385E+03  0.22841720138E+03  0.12500000000E+03 0.  0.
</event>
<event>
 4    0  0.2259196E-002  0.1864398E+03  0.7546771E-02  0.1161712E+00
         21   -1    0    0  502  501  0.00000000000E+00  0.00000000000E+00  0.10348168845E+03  0.10348168845E+03  0.00000000000E+00 0. -1.
         21   -1    0    0  501  502 -0.00000000000E+00 -0.00000000000E+00 -0.33590296111E+03  0.33590296111E+03  0.00000000000E+00 0. -1.
         25    1    1    2    0    0 -0.10174821488E+03 -0.88645371878E+02 -0.80389716744E+02  0.20074413502E+03  0.12500000000E+03 0.  0.
         25    1    1    2    0    0  0.10174821488E+03  0.88645371878E+02 -0.15203155591E+03  0.23864051454E+03  0.12500000000E+03 0.  0.
</event>
<event>
 4    0  0.2259196E-002  0.2138050E+03  0.7546771E-02  0.1138588E+00
         21   -1    0    0  502  501  0.00000000000E+00  0.00000000000E+00  0.64095181492E+02  0.64095181492E+02  0.00000000000E+00 0.  1.
         21   -1    0    0  501  502 -0.00000000000E+00 -0.00000000000E+00 -0.71319863516E+03  0.71319863516E+03  0.00000000000E+00 0.  1.
         25    1    1    2    0    0  0.88761828691E+02  0.14758814339E+03 -0.36209958687E+03  0.42000242036E+03  0.12500000000E+03 0.  0.
         25    1    1    2    0    0 -0.88761828691E+02 -0.14758814339E+03 -0.28700386680E+03  0.35729139629E+03  0.12500000000E+03 0.  0.
</event>
<event>
 4    0  0.2259196E-002  0.1802980E+03  0.7546771E-02  0.1167515E+00
         21   -1    0    0  502  501  0.00000000000E+00  0.00000000000E+00  0.63923329263E+03  0.63923329263E+03  0.00000000000E+00 0. -1.
         21   -1    0    0  501  502 -0.00000000000E+00 -0.00000000000E+00 -0.50853680027E+02  0.50853680027E+02  0.00000000000E+00 0. -1.
         25    1    1    2    0    0  0.86767795254E+02 -0.96379155028E+02  0.30959196727E+03  0.35817562454E+03  0.12500000000E+03 0.  0.
         25    1    1    2    0    0 -0.86767795254E+02  0.96379155028E+02  0.27878764533E+03  0.33191134811E+03  0.12500000000E+03 0.  0.
</event>
<event>
 4    0  0.2259196E-002  0.1871657E+03  0.7546771E-02  0.1161043E+00
         21   -1    0    0  502  501  0.00000000000E+00  0.00000000000E+00  0.29618779834E+03  0.29618779834E+03  0.00000000000E+00 0. -1.
         21   -1    0    0  501  502 -0.00000000000E+00 -0.00000000000E+00 -0.11827295170E+03  0.11827295170E+03  0.00000000000E+00 0. -1.
         25    1    1    2    0    0  0.13583196646E+03 -0.27887045401E+02  0.10372913139E+03  0.21357140050E+03  0.12500000000E+03 0.  0.
         25    1    1    2    0    0 -0.13583196646E+03  0.27887045401E+02  0.74185715255E+02  0.20088934954E+03  0.12500000000E+03 0.  0.
</event>
<event>
 4    0  0.2259196E-002  0.2843046E+03  0.7546771E-02  0.1093361E+00
         21   -1    0    0  502  501  0.00000000000E+00  0.00000000000E+00  0.29937361707E+03  0.29937361707E+03  0.00000000000E+00 0.  1.
         21   -1    0    0  501  502 -0.00000000000E+00 -0.00000000000E+00 -0.26999412416E+03  0.26999412416E+03  0.00000000000E+00 0.  1.
         25    1    1    2    0    0 -0.19041770090E+03  0.96684057112E+02 -0.12548774397E+03  0.27745068319E+03  0.12500000000E+03 0.  0.
         25    1    1    2    0    0  0.19041770090E+03 -0.96684057112E+02  0.15486723688E+03  0.29191705804E+03  0.12500000000E+03 0.  0.
</event>
<event>
 4    0  0.2259196E-002  0.3182559E+03  0.7546771E-02  0.1076455E+00
         21   -1    0    0  502  501  0.00000000000E+00  0.00000000000E+00  0.11675970697E+03  0.11675970697E+03  0.00000000000E+00 0.  1.
         21   -1    0    0  501  502 -0.00000000000E+00 -0.00000000000E+00 -0.86748096528E+03  0.86748096528E+03  0.00000000000E+00 0.  1.
         25    1    1    2    0    0 -0.18428017111E+03  0.76729964416E+02 -0.70633884765E+03  0.74457117632E+03  0.12500000000E+03 0.  0.
         25    1    1    2    0    0  0.18428017111E+03 -0.76729964416E+02 -0.44382410658E+02  0.23966949593E+03  0.12500000000E+03 0.  0.
</event>
<event>
 4    0  0.2259196E-002  0.2293429E+03  0.7546771E-02  0.1127103E+00
         21   -1    0    0  502  501  0.00000000000E+00  0.00000000000E+00  0.53809527202E+02  0.53809527202E+02  0.00000000000E+00 0.  1.
         21   -1    0    0  501  502 -0.00000000000E+00 -0.00000000000E+00 -0.97748831758E+03  0.97748831758E+03  0.00000000000E+00 0.  1.
         25    1    1    2    0    0 -0.15406017648E+03  0.94793810017E+02 -0.60846343729E+03  0.64697230150E+03  0.12500000000E+03 0.  0.
         25    1    1    2    0    0  0.15406017648E+03 -0.94793810017E+02 -0.31521535309E+03  0.38432554328E+03  0.12500000000E+03 0.  0.
</event>
<event>
 4    0  0.2259196E-002  0.4411453E+03  0.7546771E-02  0.1030396E+00
         21   -1    0    0  502  501  0.00000000000E+00  0.00000000000E+00  0.23897841537E+03  0.23897841537E+03  0.00000000000E+00 0.  1.
         21   -1    0    0  501  502 -0.00000000000E+00 -0.00000000000E+00 -0.81433805269E+03  0.81433805269E+03  0.00000000000E+00 0.  1.
         25    1    1    2    0    0  0.17742228763E+03  0.37143597221E+03 -0.40429124698E+03  0.59035562331E+03  0.12500000000E+03 0.  0.
         25    1    1    2    0    0 -0.17742228763E+03 -0.37143597221E+03 -0.17106839035E+03  0.46296084475E+03  0.12500000000E+03 0.  0.
</event>
<event>
 4    0  0.2259196E-002  0.2923720E+03  0.7546771E-02  0.1089117E+00
         21   -1    0    0  502  501  0.00000000000E+00  0.00000000000E+00  0.13113623203E+03  0.13113623203E+03  0.00000000000E+00 0. -1.
         21   -1    0    0  501  502 -0.00000000000E+00 -0.00000000000E+00 -0.65185172018E+03  0.65185172018E+03  0.00000000000E+00 0.  1.
         25    1    1    2    0    0  0.15755204740E+03  0.18656843448E+03 -0.39576475739E+03  0.48154456863E+03  0.12500000000E+03 0.  0.
         25    1    1    2    0    0 -0.15755204740E+03 -0.18656843448E+03 -0.12495073076E+03  0.30144338358E+03  0.12500000000E+03 0.  0.
</event>
<event>
 4    0  0.2259196E-002  0.3140002E+03  0.7546771E-02  0.1078444E+00
         21   -1    0    0  502  501  0.00000000000E+00  0.00000000000E+00  0.23136220941E+04  0.23136220941E+04  0.00000000000E+00 0.  1.
         21   -1    0    0  501  502 -0.00000000000E+00 -0.00000000000E+00 -0.42615476039E+02  0.42615476039E+02  0.00000000000E+00 0.  1.
         25    1    1    2    0    0  0.16812283593E+03  0.20058932014E+03  0.15868285422E+04  0.16131184661E+04  0.12500000000E+03 0.  0.
         25    1    1    2    0    0 -0.16812283593E+03 -0.20058932014E+03  0.68417807592E+03  0.74311910410E+03  0.12500000000E+03 0.  0.
</event>
<event>
 4    0  0.2259196E-002  0.2493529E+03  0.7546771E-02  0.1113714E+00
         21   -1    0    0  502  501  0.00000000000E+00  0.00000000000E+00  0.58870595585E+02  0.58870595585E+02  0.00000000000E+00 0. -1.
         21   -1    0    0  501  502 -0.00000000000E+00 -0.00000000000E+00 -0.10561615647E+04  0.10561615647E+04  0.00000000000E+00 0. -1.
         25    1    1    2    0    0  0.10266280328E+03 -0.18945356434E+03 -0.52309267362E+03  0.57938178209E+03  0.12500000000E+03 0.  0.
         25    1    1    2    0    0 -0.10266280328E+03  0.18945356434E+03 -0.47419829553E+03  0.53565037823E+03  0.12500000000E+03 0.  0.
</event>
<event>
 4    0  0.2259196E-002  0.1999160E+03  0.7546771E-02  0.1149810E+00
         21   -1    0    0  502  501  0.00000000000E+00  0.00000000000E+00  0.45043462289E+02  0.45043462289E+02  0.00000000000E+00 0. -1.
         21   -1    0    0  501  502 -0.00000000000E+00 -0.00000000000E+00 -0.88728523384E+03  0.88728523384E+03  0.00000000000E+00 0. -1.
         25    1    1    2    0    0 -0.13934459717E+03 -0.29913076508E+02 -0.27309851072E+03  0.33244474047E+03  0.12500000000E+03 0.  0.
         25    1    1    2    0    0  0.13934459717E+03  0.29913076508E+02 -0.56914326083E+03  0.59988395566E+03  0.12500000000E+03 0.  0.
</event>
<event>
 4    0  0.2259196E-002  0.3206545E+03  0.7546771E-02  0.1075348E+00
         21   -1    0    0  502  501  0.00000000000E+00  0.00000000000E+00  0.17773081512E+04  0.17773081512E+04  0.00000000000E+00 0.  1.
         21   -1    0    0  501  502 -0.00000000000E+00 -0.00000000000E+00 -0.57851132130E+02  0.57851132130E+02  0.00000000000E+00 0.  1.
         25    1    1    2    0    0 -0.26077832219E+03 -0.12809572972E+03  0.70883756118E+03  0.77620199526E+03  0.12500000000E+03 0.  0.
         25    1    1    2    0    0  0.26077832219E+03  0.12809572972E+03  0.10106194579E+04  0.10589572881E+04  0.12500000000E+03 0.  0.
</event>
<event>
 4    0  0.2259196E-002  0.3438174E+03  0.7546771E-02  0.1065182E+00
         21   -1    0    0  502  501  0.00000000000E+00  0.00000000000E+00  0.11439105612E+04  0.11439105612E+04  0.00000000000E+00 0.  1.
         21   -1    0    0  501  502 -0.00000000000E+00 -0.00000000000E+00 -0.10333886736E+03  0.10333886736E+03  0.00000000000E+00 0.  1.
         25    1    1    2    0    0  0.27916247698E+03 -0.18277398456E+02  0.23742406527E+03  0.38763505855E+03  0.12500000000E+03 0.  0.
         25    1    1    2    0    0 -0.27916247698E+03  0.18277398456E+02  0.80314762853E+03  0.85961436997E+03  0.12500000000E+03 0.  0.
</event>
<event>
 4    0  0.2259196E-002  0.2977028E+03  0.7546771E-02  0.1086395E+00
         21   -1    0    0  502  501  0.00000000000E+00  0.00000000000E+00  0.23139347961E+03  0.23139347961E+03  0.00000000000E+00 0.  1.
         21   -1    0    0  501  502 -0.00000000000E+00 -0.00000000000E+00 -0.38301407678E+03  0.38301407678E+03  0.00000000000E+00 0.  1.
         25    1    1    2    0    0  0.35769920661E+02 -0.61119058949E+02 -0.34487476831E+03  0.37360223823E+03  0.12500000000E+03 0.  0.
         25    1    1    2    0    0 -0.35769920661E+02  0.61119058949E+02  0.19325417114E+03  0.24080531816E+03  0.12500000000E+03 0.  0.
</event>
<event>
 4    0  0.2259196E-002  0.1682610E+03  0.7546771E-02  0.1179674E+00
         21   -1    0    0  502  501  0.00000000000E+00  0.00000000000E+00  0.57945689896E+02  0.57945689896E+02  0.00000000000E+00 0.  1.
         21   -1    0    0  501  502 -0.00000000000E+00 -0.00000000000E+00 -0.48859136431E+03  0.48859136431E+03  0.00000000000E+00 0.  1.
         25    1    1    2    0    0  0.30681414714E+02 -0.21802748975E+02 -0.38773550184E+03  0.40912165484E+03  0.12500000000E+03 0.  0.
         25    1    1    2    0    0 -0.30681414714E+02  0.21802748975E+02 -0.42910172568E+02  0.13741539936E+03  0.12500000000E+03 0.  0.
</event>
<event>
 4    0  0.2259196E-002  0.2103706E+03  0.7546771E-02  0.1141273E+00
         21   -1    0    0  502  501  0.00000000000E+00  0.00000000000E+00  0.87470284049E+03  0.87470284049E+03  0.00000000000E+00 0.  1.
         21   -1    0    0  501  502 -0.00000000000E+00 -0.00000000000E+00 -0.50595242274E+02  0.50595242274E+02  0.00000000000E+00 0.  1.
         25    1    1    2    0    0 -0.73149444416E+02 -0.76022149783E+02  0.70298677470E+03  0.72176562254E+03  0.12500000000E+03 0.  0.
         25    1    1    2    0    0  0.73149444416E+02  0.76022149783E+02  0.12112082352E+03  0.20353246023E+03  0.12500000000E+03 0.  0.
</event>
<event>
 4    0  0.2259196E-002  0.2275393E+03  0.7546771E-02  0.1128384E+00
         21   -1    0    0  502  501  0.00000000000E+00  0.00000000000E+00  0.42314758279E+02  0.42314758279E+02  0.00000000000E+00 0.  1.
         21   -1    0    0  501  502 -0.00000000000E+00 -0.00000000000E+00 -0.12235478067E+04  0.12235478067E+04  0.00000000000E+00 0.  1.
         25    1    1    2    0    0 -0.15314462412E+03  0.93880695875E+02 -0.41729880930E+03  0.47120076103E+03  0.12500000000E+03 0.  0.
         25    1    1    2    0    0  0.15314462412E+03 -0.93880695875E+02 -0.76393423916E+03  0.79466180398E+03  0.12500000000E+03 0.  0.
</event>
<event>
 4    0  0.2259196E-002  0.3358178E+03  0.7546771E-02  0.1068591E+00
         21   -1    0    0  502  501  0.00000000000E+00  0.00000000000E+00  0.32066824591E+03  0.32066824591E+03  0.00000000000E+00 0. -1.
         21   -1    0    0  501  502 -0.00000000000E+00 -0.00000000000E+00 -0.35168297579E+03  0.35168297579E+03  0.00000000000E+00 0. -1.
         25    1    1    2    0    0 -0.21756367205E+02  0.28583036359E+03 -0.13801516881E+03  0.34182674425E+03  0.12500000000E+03 0.  0.
         25    1    1    2    0    0  0.21756367205E+02 -0.28583036359E+03  0.10700043893E+03  0.33052447745E+03  0.12500000000E+03 0.  0.
</event>
<event>
 4    0  0.2259196E-002  0.2974191E+03  0.7546771E-02  0.1086538E+00
         21   -1    0    0  502  501  0.00000000000E+00  0.00000000000E+00  0.20945184931E+03  0.20945184931E+03  0.00000000000E+00 0.  1.
         21   -1    0    0  501  502 -0.00000000000E+00 -0.00000000000E+00 -0.42233160292E+03  0.42233160292E+03  0.00000000000E+00 0.  1.
         25    1    1    2    0    0  0.20574524355E+03 -0.12276401727E+03 -0.23837692501E+03  0.36034798121E+03  0.12500000000E+03 0.  0.
         25    1    1    2    0    0 -0.20574524355E+03  0.12276401727E+03  0.25497171408E+02  0.27143547103E+03  0.12500000000E+03 0.  0.
</event>
<event>
 4    0  0.2259196E-002  0.1915736E+03  0.7546771E-02  0.1157050E+00
         21   -1    0    0  502  501  0.00000000000E+00  0.00000000000E+00  0.41837285596E+02  0.41837285596E+02  0.00000000000E+00 0.  1.
         21   -1    0    0  501  502 -0.00000000000E+00 -0.00000000000E+00 -0.87721866500E+03  0.87721866500E+03  0.00000000000E+00 0.  1.
         25    1    1    2    0    0 -0.44261703421E+02  0.43294914575E+02 -0.10272094942E+03  0.17323435418E+03  0.12500000000E+03 0.  0.
         25    1    1    2    0    0  0.44261703421E+02 -0.43294914575E+02 -0.73266042998E+03  0.74582159642E+03  0.12500000000E+03 0.  0.
</event>
<event>
 4    0  0.2259196E-002  0.2419645E+03  0.7546771E-02  0.1118491E+00
         21   -1    0    0  502  501  0.00000000000E+00  0.00000000000E+00  0.46900990298E+03  0.46900990298E+03  0.00000000000E+00 0. -1.
         21   -1    0    0  501  502 -0.00000000000E+00 -0.00000000000E+00 -0.12483064906E+03  0.12483064906E+03  0.00000000000E+00 0. -1.
         25    1    1    2    0    0  0.11395802085E+03 -0.11902135790E+03  0.17992552485E+02  0.20760839601E+03  0.12500000000E+03 0.  0.
         25    1    1    2    0    0 -0.11395802085E+03  0.11902135790E+03  0.32618670144E+03  0.38623215603E+03  0.12500000000E+03 0.  0.
</event>
<event>
 4    0  0.2259196E-002  0.2297767E+03  0.7546771E-02  0.1126797E+00
         21   -1    0    0  502  501  0.00000000000E+00  0.00000000000E+00  0.62682141689E+03  0.62682141689E+03  0.00000000000E+00 0.  1.
         21   -1    0    0  501  502 -0.00000000000E+00 -0.00000000000E+00 -0.84230248688E+02  0.84230248688E+02  0.00000000000E+00 0.  1.
         25    1    1    2    0    0  0.13418796179E+03  0.10138593986E+03  0.41715620428E+03  0.46682953705E+03  0.12500000000E+03 0.  0.
         25    1    1    2    0    0 -0.13418796179E+03 -0.10138593986E+03  0.12543496392E+03  0.24422212853E+03  0.12500000000E+03 0.  0.
</event>
<event>
 4    0  0.2259196E-002  0.2391258E+03  0.7546771E-02  0.1120377E+00
         21   -1    0    0  502  501  0.00000000000E+00  0.00000000000E+00  0.78955670025E+03  0.78955670025E+03  0.00000000000E+00 0.  1.
         21   -1    0    0  501  502 -0.00000000000E+00 -0.00000000000E+00 -0.72421864541E+02  0.72421864541E+02  0.00000000000E+00 0.  1.
         25    1    1    2    0    0  0.83552560309E+02  0.18396315007E+03  0.30978062096E+03  0.39040044063E+03  0.12500000000E+03 0.  0.
         25    1    1    2    0    0 -0.83552560309E+02 -0.18396315007E+03  0.40735421475E+03  0.47157812416E+03  0.12500000000E+03 0.  0.
</event>
<event>
 4    0  0.2259196E-002  0.2383328E+03  0.7546771E-02  0.1120908E+00
         21   -1    0    0  502  501  0.00000000000E+00  0.00000000000E+00  0.39875658440E+04  0.39875658440E+04  0.00000000000E+00 0. -1.
         21   -1    0    0  501  502 -0.00000000000E+00 -0.00000000000E+00 -0.14244909730E+02  0.14244909730E+02  0.00000000000E+00 0. -1.
         25    1    1    2    0    0  0.16831053980E+02 -0.19731009718E+03  0.23586220802E+04  0.23702189089E+04  0.12500000000E+03 0.  0.
         25    1    1    2    0    0 -0.16831053980E+02  0.19731009718E+03  0.16146988540E+04  0.16315918448E+04  0.12500000000E+03 0.  0.
</event>
<event>
 4    0  0.2259196E-002  0.3405794E+03  0.7546771E-02  0.1066549E+00
         21   -1    0    0  502  501  0.00000000000E+00  0.00000000000E+00  0.24083146030E+03  0.24083146030E+03  0.00000000000E+00 0. -1.
         21   -1    0    0  501  502 -0.00000000000E+00 -0.00000000000E+00 -0.48164104796E+03  0.48164104796E+03  0.00000000000E+00 0. -1.
         25    1    1    2    0    0 -0.19426251164E+03  0.91989784686E+02  0.12645449745E+03  0.27895480609E+03  0.12500000000E+03 0.  0.
         25    1    1    2    0    0  0.19426251164E+03 -0.91989784686E+02 -0.36726408511E+03  0.44351770216E+03  0.12500000000E+03 0.  0.
</event>
<event>
 4    0  0.2259196E-002  0.2775649E+03  0.7546771E-02  0.1097026E+00
         21   -1    0    0  502  501  0.00000000000E+00  0.00000000000E+00  0.21628188191E+03  0.21628188191E+03  0.00000000000E+00 0.  1.
         21   -1    0    0  501  502 -0.00000000000E+00 -0.00000000000E+00 -0.35621228721E+03  0.35621228721E+03  0.00000000000E+00 0.  1.
         25    1    1    2    0    0  0.52970392027E+02 -0.23715863068E+03 -0.19789590267E+02  0.27398304039E+03  0.12500000000E+03 0.  0.
         25    1    1    2    0    0 -0.52970392027E+02  0.23715863068E+03 -0.12014081504E+03  0.29851112873E+03  0.12500000000E+03 0.  0.
</event>
<event>
 4    0  0.2259196E-002  0.1809388E+03  0.7546771E-02  0.1166898E+00
         21   -1    0    0  502  501  0.00000000000E+00  0.00000000000E+00  0.13656798460E+02  0.13656798460E+02  0.00000000000E+00 0.  1.
         21   -1    0    0  501  502 -0.00000000000E+00 -0.00000000000E+00 -0.23972567919E+04  0.23972567919E+04  0.00000000000E+00 0.  1.
         25    1    1    2    0    0  0.46970603616E+02 -0.10876793508E+03 -0.15613680004E+04  0.15708379083E+04  0.12500000000E+03 0.  0.
         25    1    1    2    0    0 -0.46970603616E+02  0.10876793508E+03 -0.82223199305E+03  0.84007568212E+03  0.12500000000E+03 0.  0.
</event>
<event>
 4    0  0.2259196E-002  0.2819338E+03  0.7546771E-02  0.1094637E+00
         21   -1    0    0  502  501  0.00000000000E+00  0.00000000000E+00  0.40127439695E+02  0.40127439695E+02  0.00000000000E+00 0.  1.
         21   -1    0    0  501  502 -0.00000000000E+00 -0.00000000000E+00 -0.19808560693E+04  0.19808560693E+04  0.00000000000E+00 0.  1.
         25    1    1    2    0    0  0.22689204860E+03  0.32077370023E+02 -0.58847666754E+03  0.64376917262E+03  0.12500000000E+03 0.  0.
         25    1    1    2    0    0 -0.22689204860E+03 -0.32077370023E+02 -0.13522519621E+04  0.13772143364E+04  0.12500000000E+03 0.  0.
</event>
<event>
 4    0  0.2259196E-002  0.1977866E+03  0.7546771E-02  0.1151620E+00
         21   -1    0    0  502  501  0.00000000000E+00  0.00000000000E+00  0.14107225310E+04  0.14107225310E+04  0.00000000000E+00 0.  1.
         21   -1    0    0  501  502 -0.00000000000E+00 -0.00000000000E+00 -0.27730136651E+02  0.27730136651E+02  0.00000000000E+00 0.  1.
         25    1    1    2    0    0  0.54304764048E+02 -0.10622515995E+03  0.34153895456E+03  0.38276187047E+03  0.12500000000E+03 0.  0.
         25    1    1    2    0    0 -0.54304764048E+02  0.10622515995E+03  0.10414534398E+04  0.10556907972E+04  0.12500000000E+03 0.  0.
</event>
<event>
 4    0  0.2259196E-002  0.1745372E+03  0.7546771E-02  0.1173197E+00
         21   -1    0    0  502  501  0.00000000000E+00  0.00000000000E+00  0.34598717656E+03  0.34598717656E+03  0.00000000000E+00 0.  1.
         21   -1    0    0  501  502 -0.00000000000E+00 -0.00000000000E+00 -0.88047283404E+02  0.88047283404E+02  0.00000000000E+00 0.  1.
         25    1    1    2    0    0  0.10521632004E+02 -0.20253239983E+02 -0.19807564762E+02  0.12860108122E+03  0.12500000000E+03 0.  0.
         25    1    1    2    0    0 -0.10521632004E+02  0.20253239983E+02  0.27774745791E+03  0.30543337874E+03  0.12500000000E+03 0.  0.
</event>
<event>
 4    0  0.2259196E-002  0.2585069E+03  0.7546771E-02  0.1108044E+00
         21   -1    0    0  502  501  0.00000000000E+00  0.00000000000E+00  0.41737167343E+03  0.41737167343E+03  0.00000000000E+00 0. -1.
         21   -1    0    0  501  502 -0.00000000000E+00 -0.00000000000E+00 -0.16011110860E+03  0.16011110860E+03  0.00000000000E+00 0. -1.
         25    1    1    2    0    0 -0.58579772863E+02 -0.66522438550E+02 -0.10391171812E+03  0.18514715710E+03  0.12500000000E+03 0.  0.
         25    1    1    2    0    0  0.58579772863E+02  0.66522438550E+02  0.36117228295E+03  0.39233562493E+03  0.12500000000E+03 0.  0.
</event>
<event>
 4    0  0.2259196E-002  0.2102080E+03  0.7546771E-02  0.1141401E+00
         21   -1    0    0  502  501  0.00000000000E+00  0.00000000000E+00  0.85010979879E+02  0.85010979879E+02  0.00000000000E+00 0. -1.
         21   -1    0    0  501  502 -0.00000000000E+00 -0.00000000000E+00 -0.51978466523E+03  0.51978466523E+03  0.00000000000E+00 0. -1.
         25    1    1    2    0    0  0.11021146737E+03  0.47047773260E+02 -0.38882576141E+03  0.42564131995E+03  0.12500000000E+03 0.  0.
         25    1    1    2    0    0 -0.11021146737E+03 -0.47047773260E+02 -0.45947923939E+02  0.17915432516E+03  0.12500000000E+03 0.  0.
</event>
<event>
 4    0  0.2259196E-002  0.2580168E+03  0.7546771E-02  0.1108341E+00
         21   -1    0    0  502  501  0.00000000000E+00  0.00000000000E+00  0.12418249961E+04  0.12418249961E+04  0.00000000000E+00 0.  1.
         21   -1    0    0  501  502 -0.00000000000E+00 -0.00000000000E+00 -0.53608730029E+02  0.53608730029E+02  0.00000000000E+00 0.  1.
         25    1    1    2    0    0  0.21707948350E+03 -0.55824659115E+02  0.52732263538E+03  0.58645891289E+03  0.12500000000E+03 0.  0.
         25    1    1    2    0    0 -0.21707948350E+03  0.55824659115E+02  0.66089363067E+03  0.70897481322E+03  0.12500000000E+03 0.  0.
</event>
<event>
 4    0  0.2259196E-002  0.2175348E+03  0.7546771E-02  0.1135734E+00
         21   -1    0    0  502  501  0.00000000000E+00  0.00000000000E+00  0.96197126509E+03  0.96197126509E+03  0.00000000000E+00 0. -1.
         21   -1    0    0  501  502 -0.00000000000E+00 -0.00000000000E+00 -0.49192089739E+02  0.49192089739E+02  0.00000000000E+00 0. -1.
         25    1    1    2    0    0  0.65458318715E+02  0.16504884031E+03  0.42604501385E+03  0.47818957016E+03  0.12500000000E+03 0.  0.
         25    1    1    2    0    0 -0.65458318715E+02 -0.16504884031E+03  0.48673416150E+03  0.53297378467E+03  0.12500000000E+03 0.  0.
</event>
<event>
 4    0  0.2259196E-002  0.1902773E+03  0.7546771E-02  0.1158211E+00
         21   -1    0    0  502  501  0.00000000000E+00  0.00000000000E+00  0.92534891314E+02  0.92534891314E+02  0.00000000000E+00 0.  1.
         21   -1    0    0  501  502 -0.00000000000E+00 -0.00000000000E+00 -0.39126282816E+03  0.39126282816E+03  0.00000000000E+00 0.  1.
         25    1    1    2    0    0  0.14058734121E+03  0.39482096227E+01 -0.18532332869E+03  0.26410248962E+03  0.12500000000E+03 0.  0.
         25    1    1    2    0    0 -0.14058734121E+03 -0.39482096227E+01 -0.11340460816E+03  0.21969522985E+03  0.12500000000E+03 0.  0.
</event>
<event>
 4    0  0.2259196E-002  0.1992546E+03  0.7546771E-02  0.1150369E+00
         21   -1    0    0  502  501  0.00000000000E+00  0.00000000000E+00  0.16935842465E+04  0.16935842465E+04  0.00000000000E+00 0. -1.
         21   -1    0    0  501  502 -0.00000000000E+00 -0.00000000000E+00 -0.23442816795E+02  0.23442816795E+02  0.00000000000E+00 0. -1.
         25    1    1    2    0    0  0.77592927222E+02 -0.10825547583E+03  0.11780729647E+04  0.11921496636E+04  0.12500000000E+03 0.  0.
         25    1    1    2    0    0 -0.77592927222E+02  0.10825547583E+03  0.49206846507E+03  0.52487739970E+03  0.12500000000E+03 0.  0.
</event>
<event>
 4    0  0.2259196E-002  0.3379795E+03  0.7546771E-02  0.1067660E+00
         21   -1    0    0  502  501  0.00000000000E+00  0.00000000000E+00  0.10177464948E+03  0.10177464948E+03  0.00000000000E+00 0.  1.
         21   -1    0    0  501  502 -0.00000000000E+00 -0.00000000000E+00 -0.11223828116E+04  0.11223828116E+04  0.00000000000E+00 0.  1.
         25    1    1    2    0    0 -0.29641540492E+03 -0.44666074341E+02 -0.67968736138E+03  0.75329745764E+03  0.12500000000E+03 0.  0.
         25    1    1    2    0    0  0.29641540492E+03  0.44666074341E+02 -0.34092080077E+03  0.47086000348E+03  0.12500000000E+03 0.  0.
</event>
<event>
 4    0  0.2259196E-002  0.2247271E+03  0.7546771E-02  0.1130407E+00
         21   -1    0    0  502  501  0.00000000000E+00  0.00000000000E+00  0.30311178155E+03  0.30311178155E+03  0.00000000000E+00 0. -1.
         21   -1    0    0  501  502 -0.00000000000E+00 -0.00000000000E+00 -0.16661265463E+03  0.16661265463E+03  0.00000000000E+00 0. -1.
         25    1    1    2    0    0 -0.57248314879E+02  0.48435807429E+02 -0.11050179812E+03  0.18291813575E+03  0.12500000000E+03 0.  0.
         25    1    1    2    0    0  0.57248314879E+02 -0.48435807429E+02  0.24700092504E+03  0.28680630043E+03  0.12500000000E+03 0.  0.
</event>
<event>
 4    0  0.2259196E-002  0.1875310E+03  0.7546771E-02  0.1160707E+00
         21   -1    0    0  502  501  0.00000000000E+00  0.00000000000E+00  0.26812415849E+02  0.26812415849E+02  0.00000000000E+00 0. -1.
         21   -1    0    0  501  502 -0.00000000000E+00 -0.00000000000E+00 -0.13116268105E+04  0.13116268105E+04  0.00000000000E+00 0. -1.
         25    1    1    2    0    0 -0.21631919361E+02 -0.90833081181E+02 -0.27113249997E+03  0.31282010983E+03  0.12500000000E+03 0.  0.
         25    1    1    2    0    0  0.21631919361E+02  0.90833081181E+02 -0.10136818946E+04  0.10256191165E+04  0.12500000000E+03 0.  0.
</event>
<event>
 4    0  0.2259196E-002  0.1905628E+03  0.7546771E-02  0.1157955E+00
         21   -1    0    0  502  501  0.00000000000E+00  0.00000000000E+00  0.36509171721E+03  0.36509171721E+03  0.00000000000E+00 0.  1.
         21   -1    0    0  501  502 -0.00000000000E+00 -0.00000000000E+00 -0.99465962214E+02  0.99465962214E+02  0.00000000000E+00 0.  1.
         25    1    1    2    0    0  0.13119738828E+03 -0.48771591096E+02  0.92427112751E+02  0.20918698325E+03  0.12500000000E+03 0.  0.
         25    1    1    2    0    0 -0.13119738828E+03  0.48771591096E+02  0.17319864225E+03  0.25537069618E+03  0.12500000000E+03 0.  0.
</event>
<event>
 4    0  0.2259196E-002  0.1910390E+03  0.7546771E-02  0.1157528E+00
         21   -1    0    0  502  501  0.00000000000E+00  0.00000000000E+00  0.16295107363E+03  0.16295107363E+03  0.00000000000E+00 0.  1.
         21   -1    0    0  501  502 -0.00000000000E+00 -0.00000000000E+00 -0.22396851278E+03  0.22396851278E+03  0.00000000000E+00 0.  1.
         25    1    1    2    0    0 -0.21803659313E+02 -0.13643637400E+03  0.12223452344E+02  0.18672090536E+03  0.12500000000E+03 0.  0.
         25    1    1    2    0    0  0.21803659313E+02  0.13643637400E+03 -0.73240891492E+02  0.20019868105E+03  0.12500000000E+03 0.  0.
</event>
<event>
 4    0  0.2259196E-002  0.2064815E+03  0.7546771E-02  0.1144383E+00
         21   -1    0    0  502  501  0.00000000000E+00  0.00000000000E+00  0.84516382462E+03  0.84516382462E+03  0.00000000000E+00 0.  1.
         21   -1    0    0  501  502 -0.00000000000E+00 -0.00000000000E+00 -0.50445383307E+02  0.50445383307E+02  0.00000000000E+00 0.  1.
         25    1    1    2    0    0  0.15984022630E+03  0.36389325120E+02  0.42270028664E+03  0.47029098785E+03  0.12500000000E+03 0.  0.
         25    1    1    2    0    0 -0.15984022630E+03 -0.36389325120E+02  0.37201815467E+03  0.42531822008E+03  0.12500000000E+03 0.  0.
</event>
<event>
 4    0  0.2259196E-002  0.3848659E+03  0.7546771E-02  0.1049150E+00
         21   -1    0    0  502  501  0.00000000000E+00  0.00000000000E+00  0.16413278634E+04  0.16413278634E+04  0.00000000000E+00 0.  1.
         21   -1    0    0  501  502 -0.00000000000E+00 -0.00000000000E+00 -0.90245088899E+02  0.90245088899E+02  0.00000000000E+00 0.  1.
         25    1    1    2    0    0  0.16070111049E+03  0.23877783017E+03  0.12768347176E+04  0.13148275915E+04  0.12500000000E+03 0.  0.
         25    1    1    2    0    0 -0.16070111049E+03 -0.23877783017E+03  0.27424805689E+03  0.41674536087E+03  0.12500000000E+03 0.  0.
</event>
<event>
 4    0  0.2259196E-002  0.1867572E+03  0.7546771E-02  0.1161419E+00
         21   -1    0    0  502  501  0.00000000000E+00  0.00000000000E+00  0.10956514045E+03  0.10956514045E+03  0.00000000000E+00 0.  1.
         21   -1    0    0  501  502 -0.00000000000E+00 -0.00000000000E+00 -0.31833360168E+03  0.31833360168E+03  0.00000000000E+00 0.  1.
         25    1    1    2    0    0  0.33793804175E+02 -0.11506488386E+03 -0.18434128242E+03  0.25295979345E+03  0.12500000000E+03 0.  0.
         25    1    1    2    0    0 -0.33793804175E+02  0.11506488386E+03 -0.24427178816E+02  0.17493894867E+03  0.12500000000E+03 0.  0.
</event>
<event>
 4    0  0.2259196E-002  0.2186663E+03  0.7546771E-02  0.1134881E+00
         21   -1    0    0  502  501  0.00000000000E+00  0.00000000000E+00  0.82516296036E+03  0.82516296036E+03  0.00000000000E+00 0. -1.
         21   -1    0    0  501  502 -0.00000000000E+00 -0.00000000000E+00 -0.57946067695E+02  0.57946067695E+02  0.00000000000E+00 0. -1.
         25    1    1    2    0    0  0.88727642264E+01  0.16427807475E+03  0.23906301444E+03  0.31597806357E+03  0.12500000000E+03 0.  0.
         25    1    1    2    0    0 -0.88727642264E+01 -0.16427807475E+03  0.52815387823E+03  0.56713096449E+03  0.12500000000E+03 0.  0.
</event>
<event>
 4    0  0.2259196E-002  0.1849664E+03  0.7546771E-02  0.1163081E+00
         21   -1    0    0  502  501  0.00000000000E+00  0.00000000000E+00  0.19214188094E+04  0.19214188094E+04  0.00000000000E+00 0.  1.
         21   -1    0    0  501  502 -0.00000000000E+00 -0.00000000000E+00 -0.17805888473E+02  0.17805888473E+02  0.00000000000E+00 0.  1.
         25    1    1    2    0    0 -0.27635098493E+02  0.50434159597E+02  0.30381280959E+03  0.33351840488E+03  0.12500000000E+03 0.  0.
         25    1    1    2    0    0  0.27635098493E+02 -0.50434159597E+02  0.15998001113E+04  0.16057062930E+04  0.12500000000E+03 0.  0.
</event>
<event>
 4    0  0.2259196E-002  0.2020111E+03  0.7546771E-02  0.1148053E+00
         21   -1    0    0  502  501  0.00000000000E+00  0.00000000000E+00  0.11882301997E+03  0.11882301997E+03  0.00000000000E+00 0. -1.
         21   -1    0    0  501  502 -0.00000000000E+00 -0.00000000000E+00 -0.34343936846E+03  0.34343936846E+03  0.00000000000E+00 0. -1.
         25    1    1    2    0    0  0.12406311444E+03  0.79807148002E+02 -0.45371293092E+02  0.19860612144E+03  0.12500000000E+03 0.  0.
         25    1    1    2    0    0 -0.12406311444E+03 -0.79807148002E+02 -0.17924505540E+03  0.26365626699E+03  0.12500000000E+03 0.  0.
</event>
<event>
 4    0  0.2259196E-002  0.2303944E+03  0.7546771E-02  0.1126362E+00
         21   -1    0    0  502  501  0.00000000000E+00  0.00000000000E+00  0.30267616825E+02  0.30267616825E+02  0.00000000000E+00 0.  1.
         21   -1    0    0  501  502 -0.00000000000E+00 -0.00000000000E+00 -0.17537410946E+04  0.17537410946E+04  0.00000000000E+00 0.  1.
         25    1    1    2    0    0  0.29323612371E+02 -0.26941128967E+02 -0.15950103323E+04  0.16003964068E+04  0.12500000000E+03 0.  0.
         25    1    1    2    0    0 -0.29323612371E+02  0.26941128967E+02 -0.12846314546E+03  0.18361230464E+03  0.12500000000E+03 0.  0.
</event>
<event>
 4    0  0.2259196E-002  0.2500805E+03  0.7546771E-02  0.1113254E+00
         21   -1    0    0  502  501  0.00000000000E+00  0.00000000000E+00  0.17956973057E+03  0.17956973057E+03  0.00000000000E+00 0. -1.
         21   -1    0    0  501  502 -0.00000000000E+00 -0.00000000000E+00 -0.34827850871E+03  0.34827850871E+03  0.00000000000E+00 0. -1.
         25    1    1    2    0    0 -0.20341818222E+03  0.62487115634E+02 -0.41724237987E+02  0.25029883842E+03  0.12500000000E+03 0.  0.
         25    1    1    2    0    0  0.20341818222E+03 -0.62487115634E+02 -0.12698454016E+03  0.27754940086E+03  0.12500000000E+03 0.  0.
</event>
<event>
 4    0  0.2259196E-002  0.2521923E+03  0.7546771E-02  0.1111927E+00
         21   -1    0    0  502  501  0.00000000000E+00  0.00000000000E+00  0.44111776742E+02  0.44111776742E+02  0.00000000000E+00 0.  1.
         21   -1    0    0  501  502 -0.00000000000E+00 -0.00000000000E+00 -0.14418138369E+04  0.14418138369E+04  0.00000000000E+00 0.  1.
         25    1    1    2    0    0 -0.85980292489E+02  0.93814204451E+02 -0.17364760055E+03  0.24894217166E+03  0.12500000000E+03 0.  0.
         25    1    1    2    0    0  0.85980292489E+02 -0.93814204451E+02 -0.12240544596E+04  0.12369834420E+04  0.12500000000E+03 0.  0.
</event>
<event>
 4    0  0.2259196E-002  0.2078752E+03  0.7546771E-02  0.1143260E+00
         21   -1    0    0  502  501  0.00000000000E+00  0.00000000000E+00  0.14496811360E+04  0.14496811360E+04  0.00000000000E+00 0.  1.
         21   -1    0    0  501  502 -0.00000000000E+00 -0.00000000000E+00 -0.29807989972E+02  0.29807989972E+02  0.00000000000E+00 0.  1.
         25    1    1    2    0    0 -0.14212418757E+03 -0.68300377487E+02  0.52424533555E+03  0.56153574962E+03  0.12500000000E+03 0.  0.
         25    1    1    2    0    0  0.14212418757E+03  0.68300377487E+02  0.89562781051E+03  0.91795337639E+03  0.12500000000E+03 0.  0.
</event>
<event>
 4    0  0.2259196E-002  0.2122976E+03  0.7546771E-02  0.1139759E+00
         21   -1    0    0  502  501  0.00000000000E+00  0.00000000000E+00  0.11408546046E+03  0.11408546046E+03  0.00000000000E+00 0.  1.
         21   -1    0    0  501  502 -0.00000000000E+00 -0.00000000000E+00 -0.39505715626E+03  0.39505715626E+03  0.00000000000E+00 0.  1.
         25    1    1    2    0    0 -0.31538282420E+02 -0.97272923571E+02 -0.30572415135E+03  0.34575850190E+03  0.12500000000E+03 0.  0.
         25    1    1    2    0    0  0.31538282420E+02  0.97272923571E+02  0.24752455559E+02  0.16338411482E+03  0.12500000000E+03 0.  0.
</event>
<event>
 4    0  0.2259196E-002  0.4856054E+03  0.7546771E-02  0.1017606E+00
         21   -1    0    0  502  501  0.00000000000E+00  0.00000000000E+00  0.10162072108E+03  0.10162072108E+03  0.00000000000E+00 0.  1.
         21   -1    0    0  501  502 -0.00000000000E+00 -0.00000000000E+00 -0.23205169818E+04  0.23205169818E+04  0.00000000000E+00 0. -1.
         25    1    1    2    0    0 -0.11160505794E+03 -0.29957174821E+03 -0.25279401015E+03  0.42629653159E+03  0.12500000000E+03 0.  0.
         25    1    1    2    0    0  0.11160505794E+03  0.29957174821E+03 -0.19661022506E+04  0.19958411713E+04  0.12500000000E+03 0.  0.
</event>
<event>
 4    0  0.2259196E-002  0.1965735E+03  0.7546771E-02  0.1152663E+00
         21   -1    0    0  502  501  0.00000000000E+00  0.00000000000E+00  0.10091914372E+04  0.10091914372E+04  0.00000000000E+00 0. -1.
         21   -1    0    0  501  502 -0.00000000000E+00 -0.00000000000E+00 -0.38289196918E+02  0.38289196918E+02  0.00000000000E+00 0. -1.
         25    1    1    2    0    0  0.14834762340E+03  0.83741618259E+01  0.40380781244E+03  0.44806572435E+03  0.12500000000E+03 0.  0.
         25    1    1    2    0    0 -0.14834762340E+03 -0.83741618259E+01  0.56709442780E+03  0.59941490972E+03  0.12500000000E+03 0.  0.
</event>
<event>
 4    0  0.2259196E-002  0.1786868E+03  0.7546771E-02  0.1169080E+00
         21   -1    0    0  502  501  0.00000000000E+00  0.00000000000E+00  0.16174691923E+03  0.16174691923E+03  0.00000000000E+00 0. -1.
         21   -1    0    0  501  502 -0.00000000000E+00 -0.00000000000E+00 -0.19740070481E+03  0.19740070481E+03  0.00000000000E+00 0. -1.
         25    1    1    2    0    0  0.87781912546E+01 -0.41677186496E+02 -0.13879851593E+03  0.19158306956E+03  0.12500000000E+03 0.  0.
         25    1    1    2    0    0 -0.87781912546E+01  0.41677186496E+02  0.10314473036E+03  0.16756455447E+03  0.12500000000E+03 0.  0.
</event>
<event>
 4    0  0.2259196E-002  0.3259340E+03  0.7546771E-02  0.1072950E+00
         21   -1    0    0  502  501  0.00000000000E+00  0.00000000000E+00  0.32879967669E+03  0.32879967669E+03  0.00000000000E+00 0. -1.
         21   -1    0    0  501  502 -0.00000000000E+00 -0.00000000000E+00 -0.32309320111E+03  0.32309320111E+03  0.00000000000E+00 0. -1.
         25    1    1    2    0    0 -0.85103498295E+02 -0.35005099936E+02 -0.28375847214E+03  0.32343752558E+03  0.12500000000E+03 0.  0.
         25    1    1    2    0    0  0.85103498295E+02  0.35005099936E+02  0.28946494771E+03  0.32845535222E+03  0.12500000000E+03 0.  0.
</event>
<event>
 4    0  0.2259196E-002  0.1921342E+03  0.7546771E-02  0.1156550E+00
         21   -1    0    0  502  501  0.00000000000E+00  0.00000000000E+00  0.12088137156E+03  0.12088137156E+03  0.00000000000E+00 0. -1.
         21   -1    0    0  501  502 -0.00000000000E+00 -0.00000000000E+00 -0.30538655498E+03  0.30538655498E+03  0.00000000000E+00 0. -1.
         25    1    1    2    0    0 -0.11449643286E+03 -0.55465611289E+02 -0.12996580729E+02  0.17882890785E+03  0.12500000000E+03 0.  0.
         25    1    1    2    0    0  0.11449643286E+03  0.55465611289E+02 -0.17150860269E+03  0.24743901869E+03  0.12500000000E+03 0.  0.
</event>
<event>
 4    0  0.2259196E-002  0.2252991E+03  0.7546771E-02  0.1129993E+00
         21   -1    0    0  502  501  0.00000000000E+00  0.00000000000E+00  0.16323462078E+04  0.16323462078E+04  0.00000000000E+00 0. -1.
         21   -1    0    0  501  502 -0.00000000000E+00 -0.00000000000E+00 -0.31096137564E+02  0.31096137564E+02  0.00000000000E+00 0. -1.
         25    1    1    2    0    0  0.67344917843E+02 -0.99182339034E+02  0.26869446012E+03  0.31967825580E+03  0.12500000000E+03 0.  0.
         25    1    1    2    0    0 -0.67344917843E+02  0.99182339034E+02  0.13325556101E+04  0.13437640895E+04  0.12500000000E+03 0.  0.
</event>
<event>
 4    0  0.2259196E-002  0.2135499E+03  0.7546771E-02  0.1138785E+00
         21   -1    0    0  502  501  0.00000000000E+00  0.00000000000E+00  0.98647272775E+03  0.98647272775E+03  0.00000000000E+00 0. -1.
         21   -1    0    0  501  502 -0.00000000000E+00 -0.00000000000E+00 -0.46228897594E+02  0.46228897594E+02  0.00000000000E+00 0. -1.
         25    1    1    2    0    0  0.16937236420E+03 -0.35938065367E+02  0.47028252655E+03  0.51649704459E+03  0.12500000000E+03 0.  0.
         25    1    1    2    0    0 -0.16937236420E+03  0.35938065367E+02  0.46996130360E+03  0.51620458075E+03  0.12500000000E+03 0.  0.
</event>
<event>
 4    0  0.2259196E-002  0.2304865E+03  0.7546771E-02  0.1126298E+00
         21   -1    0    0  502  501  0.00000000000E+00  0.00000000000E+00  0.42674158635E+03  0.42674158635E+03  0.00000000000E+00 0. -1.
         21   -1    0    0  501  502 -0.00000000000E+00 -0.00000000000E+00 -0.12448759575E+03  0.12448759575E+03  0.00000000000E+00 0. -1.
         25    1    1    2    0    0 -0.13897020533E+03 -0.46502830989E+02 -0.24288875053E+00  0.19261435631E+03  0.12500000000E+03 0.  0.
         25    1    1    2    0    0  0.13897020533E+03  0.46502830989E+02  0.30249687935E+03  0.35861482579E+03  0.12500000000E+03 0.  0.
</event>
<event>
 4    0  0.2259196E-002  0.1913132E+03  0.7546771E-02  0.1157282E+00
         21   -1    0    0  502  501  0.00000000000E+00  0.00000000000E+00  0.20613511036E+03  0.20613511036E+03  0.00000000000E+00 0.  1.
         21   -1    0    0  501  502 -0.00000000000E+00 -0.00000000000E+00 -0.17755699341E+03  0.17755699341E+03  0.00000000000E+00 0.  1.
         25    1    1    2    0    0 -0.40861811450E+01  0.94720020700E+02  0.12407986667E+03  0.20002347990E+03  0.12500000000E+03 0.  0.
         25    1    1    2    0    0  0.40861811450E+01 -0.94720020700E+02 -0.95501749723E+02  0.18366862388E+03  0.12500000000E+03 0.  0.
</event>
<event>
 4    0  0.2259196E-002  0.2774782E+03  0.7546771E-02  0.1097074E+00
         21   -1    0    0  502  501  0.00000000000E+00  0.00000000000E+00  0.21085600975E+04  0.21085600975E+04  0.00000000000E+00 0.  1.
         21   -1    0    0  501  502 -0.00000000000E+00 -0.00000000000E+00 -0.36515027716E+02  0.36515027716E+02  0.00000000000E+00 0.  1.
         25    1    1    2    0    0  0.12739278994E+03 -0.16695165535E+03  0.52810105876E+03  0.58190850348E+03  0.12500000000E+03 0.  0.
         25    1    1    2    0    0 -0.12739278994E+03  0.16695165535E+03  0.15439440110E+04  0.15631666217E+04  0.12500000000E+03 0.  0.
</event>
<event>
 4    0  0.2259196E-002  0.1911291E+03  0.7546771E-02  0.1157447E+00
         21   -1    0    0  502  501  0.00000000000E+00  0.00000000000E+00  0.54052461528E+03  0.54052461528E+03  0.00000000000E+00 0.  1.
         21   -1    0    0  501  502 -0.00000000000E+00 -0.00000000000E+00 -0.67583128677E+02  0.67583128677E+02  0.00000000000E+00 0.  1.
         25    1    1    2    0    0  0.15321170953E+02  0.12922615692E+03  0.13622062339E+03  0.22608670051E+03  0.12500000000E+03 0.  0.
         25    1    1    2    0    0 -0.15321170953E+02 -0.12922615692E+03  0.33672086321E+03  0.38202104344E+03  0.12500000000E+03 0.  0.
</event>
<event>
 4    0  0.2259196E-002  0.2082493E+03  0.7546771E-02  0.1142960E+00
         21   -1    0    0  502  501  0.00000000000E+00  0.00000000000E+00  0.10342319636E+04  0.10342319636E+04  0.00000000000E+00 0.  1.
         21   -1    0    0  501  502 -0.00000000000E+00 -0.00000000000E+00 -0.41932337106E+02  0.41932337106E+02  0.00000000000E+00 0.  1.
         25    1    1    2    0    0  0.10582066389E+03 -0.54345820162E+02  0.79737777933E+03  0.81583564769E+03  0.12500000000E+03 0.  0.
         25    1    1    2    0    0 -0.10582066389E+03  0.54345820162E+02  0.19492184714E+03  0.26032865299E+03  0.12500000000E+03 0.  0.
</event>
<event>
 4    0  0.2259196E-002  0.1298805E+03  0.7546771E-02  0.1227633E+00
         21   -1    0    0  502  501  0.00000000000E+00  0.00000000000E+00  0.67443763384E+02  0.67443763384E+02  0.00000000000E+00 0.  1.
         21   -1    0    0  501  502 -0.00000000000E+00 -0.00000000000E+00 -0.25011875621E+03  0.25011875621E+03  0.00000000000E+00 0.  1.
         25    1    1    2    0    0  0.32737750858E+02 -0.19310679917E+01 -0.75470134848E+02  0.14965370229E+03  0.12500000000E+03 0.  0.
         25    1    1    2    0    0 -0.32737750858E+02  0.19310679917E+01 -0.10720485798E+03  0.16790881731E+03  0.12500000000E+03 0.  0.
</event>
<event>
 4    0  0.2259196E-002  0.1517684E+03  0.7546771E-02  0.1198317E+00
         21   -1    0    0  502  501  0.00000000000E+00  0.00000000000E+00  0.10161190125E+04  0.10161190125E+04  0.00000000000E+00 0. -1.
         21   -1    0    0  501  502 -0.00000000000E+00 -0.00000000000E+00 -0.22668249494E+02  0.22668249494E+02  0.00000000000E+00 0. -1.
         25    1    1    2    0    0  0.72297799188E+02 -0.36116369451E+02  0.39536148190E+03  0.42245362501E+03  0.12500000000E+03 0.  0.
         25    1    1    2    0    0 -0.72297799188E+02  0.36116369451E+02  0.59808928108E+03  0.61633363696E+03  0.12500000000E+03 0.  0.
</event>
<event>
 4    0  0.2259196E-002  0.2570079E+03  0.7546771E-02  0.1108954E+00
         21   -1    0    0  502  501  0.00000000000E+00  0.00000000000E+00  0.99172374004E+03  0.99172374004E+03  0.00000000000E+00 0.  1.
         21   -1    0    0  501  502 -0.00000000000E+00 -0.00000000000E+00 -0.66604294322E+02  0.66604294322E+02  0.00000000000E+00 0.  1.
         25    1    1    2    0    0 -0.22040323334E+03  0.37310473305E+02  0.50664236807E+03  0.56769811151E+03  0.12500000000E+03 0.  0.
         25    1    1    2    0    0  0.22040323334E+03 -0.37310473305E+02  0.41847707764E+03  0.49062992285E+03  0.12500000000E+03 0.  0.
</event>
<event>
 4    0  0.2259196E-002  0.2273851E+03  0.7546771E-02  0.1128494E+00
         21   -1    0    0  502  501  0.00000000000E+00  0.00000000000E+00  0.16002868760E+03  0.16002868760E+03  0.00000000000E+00 0.  1.
         21   -1    0    0  501  502 -0.00000000000E+00 -0.00000000000E+00 -0.32309184437E+03  0.32309184437E+03  0.00000000000E+00 0.  1.
         25    1    1    2    0    0 -0.60527182189E+01  0.18691625189E+03 -0.46223458426E+02  0.22964304633E+03  0.12500000000E+03 0.  0.
         25    1    1    2    0    0  0.60527182189E+01 -0.18691625189E+03 -0.11683969835E+03  0.25347748564E+03  0.12500000000E+03 0.  0.
</event>
<event>
 4    0  0.2259196E-002  0.2410470E+03  0.7546771E-02  0.1119097E+00
         21   -1    0    0  502  501  0.00000000000E+00  0.00000000000E+00  0.22852997073E+03  0.22852997073E+03  0.00000000000E+00 0.  1.
         21   -1    0    0  501  502 -0.00000000000E+00 -0.00000000000E+00 -0.25424959114E+03  0.25424959114E+03  0.00000000000E+00 0.  1.
         25    1    1    2    0    0 -0.64392523801E+02  0.14592270438E+03 -0.14357826630E+03  0.24835368193E+03  0.12500000000E+03 0.  0.
         25    1    1    2    0    0  0.64392523801E+02 -0.14592270438E+03  0.11785864589E+03  0.23442587994E+03  0.12500000000E+03 0.  0.
</event>
<event>
 4    0  0.2259196E-002  0.2440258E+03  0.7546771E-02  0.1117140E+00
         21   -1    0    0  502  501  0.00000000000E+00  0.00000000000E+00  0.36481487486E+02  0.36481487486E+02  0.00000000000E+00 0.  1.
         21   -1    0    0  501  502 -0.00000000000E+00 -0.00000000000E+00 -0.16322957421E+04  0.16322957421E+04  0.00000000000E+00 0.  1.
         25    1    1    2    0    0  0.50121573657E+02 -0.82304178685E+01 -0.10266326749E+03  0.16954249738E+03  0.12500000000E+03 0.  0.
         25    1    1    2    0    0 -0.50121573657E+02  0.82304178685E+01 -0.14931509872E+04  0.14992347323E+04  0.12500000000E+03 0.  0.
</event>
<event>
 4    0  0.2259196E-002  0.1703508E+03  0.7546771E-02  0.1177482E+00
         21   -1    0    0  502  501  0.00000000000E+00  0.00000000000E+00  0.11034845354E+04  0.11034845354E+04  0.00000000000E+00 0. -1.
         21   -1    0    0  501  502 -0.00000000000E+00 -0.00000000000E+00 -0.26297974508E+02  0.26297974508E+02  0.00000000000E+00 0. -1.
         25    1    1    2    0    0  0.60927954748E+02  0.98236187650E+02  0.51988068500E+03  0.54704980657E+03  0.12500000000E+03 0.  0.
         25    1    1    2    0    0 -0.60927954748E+02 -0.98236187650E+02  0.55730587590E+03  0.58273270334E+03  0.12500000000E+03 0.  0.
</event>
<event>
 4    0  0.2259196E-002  0.1853292E+03  0.7546771E-02  0.1162743E+00
         21   -1    0    0  502  501  0.00000000000E+00  0.00000000000E+00  0.16283182887E+03  0.16283182887E+03  0.00000000000E+00 0.  1.
         21   -1    0    0  501  502 -0.00000000000E+00 -0.00000000000E+00 -0.21093479208E+03  0.21093479208E+03  0.00000000000E+00 0.  1.
         25    1    1    2    0    0 -0.22737256048E+02 -0.11909059441E+03 -0.88005294685E+02  0.19511402918E+03  0.12500000000E+03 0.  0.
         25    1    1    2    0    0  0.22737256048E+02  0.11909059441E+03  0.39902331474E+02  0.17865259177E+03  0.12500000000E+03 0.  0.
</event>
<event>
 4    0  0.2259196E-002  0.3565421E+03  0.7546771E-02  0.1059961E+00
         21   -1    0    0  502  501  0.00000000000E+00  0.00000000000E+00  0.12901833076E+03  0.12901833076E+03  0.00000000000E+00 0. -1.
         21   -1    0    0  501  502 -0.00000000000E+00 -0.00000000000E+00 -0.98530407649E+03  0.98530407649E+03  0.00000000000E+00 0. -1.
         25    1    1    2    0    0 -0.20136073366E+03  0.67956225182E+02 -0.83061438456E+03  0.86643490779E+03  0.12500000000E+03 0.  0.
         25    1    1    2    0    0  0.20136073366E+03 -0.67956225182E+02 -0.25671361175E+02  0.24788749945E+03  0.12500000000E+03 0.  0.
</event>
<event>
 4    0  0.2259196E-002  0.2493575E+03  0.7546771E-02  0.1113712E+00
         21   -1    0    0  502  501  0.00000000000E+00  0.00000000000E+00  0.34200034491E+03  0.34200034491E+03  0.00000000000E+00 0.  1.
         21   -1    0    0  501  502 -0.00000000000E+00 -0.00000000000E+00 -0.18181029981E+03  0.18181029981E+03  0.00000000000E+00 0.  1.
         25    1    1    2    0    0 -0.15180025144E+02 -0.73175150940E+02 -0.13249862534E+03  0.19689063359E+03  0.12500000000E+03 0.  0.
         25    1    1    2    0    0  0.15180025144E+02  0.73175150940E+02  0.29268867043E+03  0.32692001113E+03  0.12500000000E+03 0.  0.
</event>
<event>
 4    0  0.2259196E-002  0.2063446E+03  0.7546771E-02  0.1144494E+00
         21   -1    0    0  502  501  0.00000000000E+00  0.00000000000E+00  0.24758317171E+03  0.24758317171E+03  0.00000000000E+00 0. -1.
         21   -1    0    0  501  502 -0.00000000000E+00 -0.00000000000E+00 -0.17197497520E+03  0.17197497520E+03  0.00000000000E+00 0. -1.
         25    1    1    2    0    0 -0.10768609792E+03  0.75019149801E+02 -0.62473001657E+02  0.19170822742E+03  0.12500000000E+03 0.  0.
         25    1    1    2    0    0  0.10768609792E+03 -0.75019149801E+02  0.13808119817E+03  0.22784991949E+03  0.12500000000E+03 0.  0.
</event>
<event>
 4    0  0.2259196E-002  0.2303364E+03  0.7546771E-02  0.1126403E+00
         21   -1    0    0  502  501  0.00000000000E+00  0.00000000000E+00  0.22073838681E+03  0.22073838681E+03  0.00000000000E+00 0.  1.
         21   -1    0    0  501  502 -0.00000000000E+00 -0.00000000000E+00 -0.24035182310E+03  0.24035182310E+03  0.00000000000E+00 0.  1.
         25    1    1    2    0    0  0.12138286625E+03  0.96909019082E+02 -0.12525728222E+03  0.23545603612E+03  0.12500000000E+03 0.  0.
         25    1    1    2    0    0 -0.12138286625E+03 -0.96909019082E+02  0.10564384593E+03  0.22563417379E+03  0.12500000000E+03 0.  0.
</event>
<event>
 4    0  0.2259196E-002  0.1972382E+03  0.7546771E-02  0.1152090E+00
         21   -1    0    0  502  501  0.00000000000E+00  0.00000000000E+00  0.11587565304E+04  0.11587565304E+04  0.00000000000E+00 0.  1.
         21   -1    0    0  501  502 -0.00000000000E+00 -0.00000000000E+00 -0.33572978656E+02  0.33572978656E+02  0.00000000000E+00 0.  1.
         25    1    1    2    0    0  0.10957339218E+03  0.83522865715E+02  0.36449259740E+03  0.40922151816E+03  0.12500000000E+03 0.  0.
         25    1    1    2    0    0 -0.10957339218E+03 -0.83522865715E+02  0.76069095432E+03  0.78310799086E+03  0.12500000000E+03 0.  0.
</event>
<event>
 4    0  0.2259196E-002  0.2537840E+03  0.7546771E-02  0.1110937E+00
         21   -1    0    0  502  501  0.00000000000E+00  0.00000000000E+00  0.24451995754E+04  0.24451995754E+04  0.00000000000E+00 0. -1.
         21   -1    0    0  501  502 -0.00000000000E+00 -0.00000000000E+00 -0.26339902001E+02  0.26339902001E+02  0.00000000000E+00 0. -1.
         25    1    1    2    0    0 -0.18178735941E+01 -0.59327096195E+02  0.17351875131E+03  0.22193865383E+03  0.12500000000E+03 0.  0.
         25    1    1    2    0    0  0.18178735941E+01  0.59327096195E+02  0.22453409220E+04  0.22496008235E+04  0.12500000000E+03 0.  0.
</event>
<event>
 4    0  0.2259196E-002  0.1970257E+03  0.7546771E-02  0.1152273E+00
         21   -1    0    0  502  501  0.00000000000E+00  0.00000000000E+00  0.90340654329E+03  0.90340654329E+03  0.00000000000E+00 0.  1.
         21   -1    0    0  501  502 -0.00000000000E+00 -0.00000000000E+00 -0.42969705581E+02  0.42969705581E+02  0.00000000000E+00 0.  1.
         25    1    1    2    0    0  0.83926250825E+02  0.10002023302E+03  0.61850667331E+03  0.64437812465E+03  0.12500000000E+03 0.  0.
         25    1    1    2    0    0 -0.83926250825E+02 -0.10002023302E+03  0.24193016440E+03  0.30199812423E+03  0.12500000000E+03 0.  0.
</event>
<event>
 4    0  0.2259196E-002  0.2489237E+03  0.7546771E-02  0.1113987E+00
         21   -1    0    0  502  501  0.00000000000E+00  0.00000000000E+00  0.11383550254E+03  0.11383550254E+03  0.00000000000E+00 0.  1.
         21   -1    0    0  501  502 -0.00000000000E+00 -0.00000000000E+00 -0.54432038011E+03  0.54432038011E+03  0.00000000000E+00 0.  1.
         25    1    1    2    0    0 -0.12906477634E+03 -0.10489039736E+02 -0.44257418600E+03  0.47777049570E+03  0.12500000000E+03 0.  0.
         25    1    1    2    0    0  0.12906477634E+03  0.10489039736E+02  0.12089308430E+02  0.18038538695E+03  0.12500000000E+03 0.  0.
</event>
<event>
 4    0  0.2259196E-002  0.3188216E+03  0.7546771E-02  0.1076193E+00
         21   -1    0    0  502  501  0.00000000000E+00  0.00000000000E+00  0.11220485830E+03  0.11220485830E+03  0.00000000000E+00 0. -1.
         21   -1    0    0  501  502 -0.00000000000E+00 -0.00000000000E+00 -0.90590727369E+03  0.90590727369E+03  0.00000000000E+00 0. -1.
         25    1    1    2    0    0 -0.55528751686E+02 -0.18036368452E+03 -0.38370046342E+02  0.22959042100E+03  0.12500000000E+03 0.  0.
         25    1    1    2    0    0  0.55528751686E+02  0.18036368452E+03 -0.75533236905E+03  0.78852171099E+03  0.12500000000E+03 0.  0.
</event>
<event>
 4    0  0.2259196E-002  0.1814566E+03  0.7546771E-02  0.1166401E+00
         21   -1    0    0  502  501  0.00000000000E+00  0.00000000000E+00  0.36478792561E+02  0.36478792561E+02  0.00000000000E+00 0. -1.
         21   -1    0    0  501  502 -0.00000000000E+00 -0.00000000000E+00 -0.90261989215E+03  0.90261989215E+03  0.00000000000E+00 0. -1.
         25    1    1    2    0    0  0.10939315772E+02  0.12803225816E+03 -0.36035956257E+03  0.40248719494E+03  0.12500000000E+03 0.  0.
         25    1    1    2    0    0 -0.10939315772E+02 -0.12803225816E+03 -0.50578153703E+03  0.53661148977E+03  0.12500000000E+03 0.  0.
</event>
<event>
 4    0  0.2259196E-002  0.2048598E+03  0.7546771E-02  0.1145702E+00
         21   -1    0    0  502  501  0.00000000000E+00  0.00000000000E+00  0.56586103519E+03  0.56586103519E+03  0.00000000000E+00 0. -1.
         21   -1    0    0  501  502 -0.00000000000E+00 -0.00000000000E+00 -0.74165787873E+02  0.74165787873E+02  0.00000000000E+00 0. -1.
         25    1    1    2    0    0  0.46453885570E+02 -0.65540175951E+02  0.46614966025E+03  0.48925860636E+03  0.12500000000E+03 0.  0.
         25    1    1    2    0    0 -0.46453885570E+02  0.65540175951E+02  0.25545587065E+02  0.15076821670E+03  0.12500000000E+03 0.  0.
</event>
<event>
 4    0  0.2259196E-002  0.2506627E+03  0.7546771E-02  0.1112887E+00
         21   -1    0    0  502  501  0.00000000000E+00  0.00000000000E+00  0.55191178630E+03  0.55191178630E+03  0.00000000000E+00 0.  1.
         21   -1    0    0  501  502 -0.00000000000E+00 -0.00000000000E+00 -0.11384390083E+03  0.11384390083E+03  0.00000000000E+00 0.  1.
         25    1    1    2    0    0  0.12902797419E+03 -0.15330355606E+03  0.10747800728E+03  0.25947393024E+03  0.12500000000E+03 0.  0.
         25    1    1    2    0    0 -0.12902797419E+03  0.15330355606E+03  0.33058987818E+03  0.40628175689E+03  0.12500000000E+03 0.  0.
</event>
<event>
 4    0  0.2259196E-002  0.2531651E+03  0.7546771E-02  0.1111321E+00
         21   -1    0    0  502  501  0.00000000000E+00  0.00000000000E+00  0.92712315616E+02  0.92712315616E+02  0.00000000000E+00 0. -1.
         21   -1    0    0  501  502 -0.00000000000E+00 -0.00000000000E+00 -0.69130586321E+03  0.69130586321E+03  0.00000000000E+00 0. -1.
         25    1    1    2    0    0  0.49676598583E+01  0.26747503341E+02  0.38983339600E+02  0.13373409194E+03  0.12500000000E+03 0.  0.
         25    1    1    2    0    0 -0.49676598583E+01 -0.26747503341E+02 -0.63757688720E+03  0.65028408689E+03  0.12500000000E+03 0.  0.
</event>
<event>
 4    0  0.2259196E-002  0.3907153E+03  0.7546771E-02  0.1047043E+00
         21   -1    0    0  502  501  0.00000000000E+00  0.00000000000E+00  0.23499939723E+03  0.23499939723E+03  0.00000000000E+00 0.  1.
         21   -1    0    0  501  502 -0.00000000000E+00 -0.00000000000E+00 -0.64961197198E+03  0.64961197198E+03  0.00000000000E+00 0.  1.
         25    1    1    2    0    0 -0.19332601883E+03  0.31134185893E+03 -0.14821506001E+03  0.41460994524E+03  0.12500000000E+03 0.  0.
         25    1    1    2    0    0  0.19332601883E+03 -0.31134185893E+03 -0.26639751474E+03  0.47000142397E+03  0.12500000000E+03 0.  0.
</event>
<event>
 4    0  0.2259196E-002  0.1819188E+03  0.7546771E-02  0.1165959E+00
         21   -1    0    0  502  501  0.00000000000E+00  0.00000000000E+00  0.94286169354E+02  0.94286169354E+02  0.00000000000E+00 0. -1.
         21   -1    0    0  501  502 -0.00000000000E+00 -0.00000000000E+00 -0.35099997319E+03  0.35099997319E+03  0.00000000000E+00 0. -1.
         25    1    1    2    0    0  0.94980388278E+02 -0.73379317051E+02 -0.60616021388E+02  0.18358948874E+03  0.12500000000E+03 0.  0.
         25    1    1    2    0    0 -0.94980388278E+02  0.73379317051E+02 -0.19609778244E+03  0.26169665380E+03  0.12500000000E+03 0.  0.
</event>
<event>
 4    0  0.2259196E-002  0.2548950E+03  0.7546771E-02  0.1110250E+00
         21   -1    0    0  502  501  0.00000000000E+00  0.00000000000E+00  0.22894031847E+03  0.22894031847E+03  0.00000000000E+00 0. -1.
         21   -1    0    0  501  502 -0.00000000000E+00 -0.00000000000E+00 -0.28379206578E+03  0.28379206578E+03  0.00000000000E+00 0. -1.
         25    1    1    2    0    0  0.35413762637E+02 -0.15570885353E+03 -0.18274214209E+03  0.27298181651E+03  0.12500000000E+03 0.  0.
         25    1    1    2    0    0 -0.35413762637E+02  0.15570885353E+03  0.12789039478E+03  0.23975056774E+03  0.12500000000E+03 0.  0.
</event>
<event>
 4    0  0.2259196E-002  0.1968820E+03  0.7546771E-02  0.1152397E+00
         21   -1    0    0  502  501  0.00000000000E+00  0.00000000000E+00  0.71265898405E+03  0.71265898405E+03  0.00000000000E+00 0.  1.
         21   -1    0    0  501  502 -0.00000000000E+00 -0.00000000000E+00 -0.54391408890E+02  0.54391408890E+02  0.00000000000E+00 0.  1.
         25    1    1    2    0    0 -0.46774605830E+02  0.12881788049E+03  0.20057177492E+03  0.27319580337E+03  0.12500000000E+03 0.  0.
         25    1    1    2    0    0  0.46774605830E+02 -0.12881788049E+03  0.45769580024E+03  0.49385458957E+03  0.12500000000E+03 0.  0.
</event>
<event>
 4    0  0.2259196E-002  0.1741714E+03  0.7546771E-02  0.1173566E+00
         21   -1    0    0  502  501  0.00000000000E+00  0.00000000000E+00  0.22906477534E+02  0.22906477534E+02  0.00000000000E+00 0.  1.
         21   -1    0    0  501  502 -0.00000000000E+00 -0.00000000000E+00 -0.13243277610E+04  0.13243277610E+04  0.00000000000E+00 0.  1.
         25    1    1    2    0    0  0.26122336535E+01  0.11026451371E+03 -0.84584380045E+03  0.86211473802E+03  0.12500000000E+03 0.  0.
         25    1    1    2    0    0 -0.26122336535E+01 -0.11026451371E+03 -0.45557748297E+03  0.48511950047E+03  0.12500000000E+03 0.  0.
</event>
<event>
 4    0  0.2259196E-002  0.1827703E+03  0.7546771E-02  0.1165149E+00
         21   -1    0    0  502  501  0.00000000000E+00  0.00000000000E+00  0.18797532405E+03  0.18797532405E+03  0.00000000000E+00 0. -1.
         21   -1    0    0  501  502 -0.00000000000E+00 -0.00000000000E+00 -0.17770930866E+03  0.17770930866E+03  0.00000000000E+00 0. -1.
         25    1    1    2    0    0 -0.12150016663E+03  0.36366787968E+02  0.46321211578E+02  0.18399860978E+03  0.12500000000E+03 0.  0.
         25    1    1    2    0    0  0.12150016663E+03 -0.36366787968E+02 -0.36055196191E+02  0.18168602293E+03  0.12500000000E+03 0.  0.
</event>
<event>
 4    0  0.2259196E-002  0.4522586E+03  0.7546771E-02  0.1027051E+00
         21   -1    0    0  502  501  0.00000000000E+00  0.00000000000E+00  0.55297284524E+03  0.55297284524E+03  0.00000000000E+00 0. -1.
         21   -1    0    0  501  502 -0.00000000000E+00 -0.00000000000E+00 -0.36988768538E+03  0.36988768538E+03  0.00000000000E+00 0. -1.
         25    1    1    2    0    0 -0.25788370351E+03 -0.34420300555E+03  0.15552910298E+03  0.47412447252E+03  0.12500000000E+03 0.  0.
         25    1    1    2    0    0  0.25788370351E+03  0.34420300555E+03  0.27556056875E+02  0.44873605810E+03  0.12500000000E+03 0.  0.
</event>
<event>
 4    0  0.2259196E-002  0.2639904E+03  0.7546771E-02  0.1104769E+00
         21   -1    0    0  502  501  0.00000000000E+00  0.00000000000E+00  0.93024983181E+02  0.93024983181E+02  0.00000000000E+00 0. -1.
         21   -1    0    0  501  502 -0.00000000000E+00 -0.00000000000E+00 -0.74916375183E+03  0.74916375183E+03  0.00000000000E+00 0. -1.
         25    1    1    2    0    0 -0.55588061769E+02  0.18472751870E+03 -0.12100159112E+03  0.25977042524E+03  0.12500000000E+03 0.  0.
         25    1    1    2    0    0  0.55588061769E+02 -0.18472751870E+03 -0.53513717753E+03  0.58241830976E+03  0.12500000000E+03 0.  0.
</event>
<event>
 4    0  0.2259196E-002  0.1883202E+03  0.7546771E-02  0.1159985E+00
         21   -1    0    0  502  501  0.00000000000E+00  0.00000000000E+00  0.64786406758E+03  0.64786406758E+03  0.00000000000E+00 0. -1.
         21   -1    0    0  501  502 -0.00000000000E+00 -0.00000000000E+00 -0.54740657065E+02  0.54740657065E+02  0.00000000000E+00 0. -1.
         25    1    1    2    0    0 -0.18408556367E+02  0.55649067245E+02  0.57639507817E+02  0.14960951338E+03  0.12500000000E+03 0.  0.
         25    1    1    2    0    0  0.18408556367E+02 -0.55649067245E+02  0.53548390270E+03  0.55299521127E+03  0.12500000000E+03 0.  0.
</event>
<event>
 4    0  0.2259196E-002  0.2329583E+03  0.7546771E-02  0.1124575E+00
         21   -1    0    0  502  501  0.00000000000E+00  0.00000000000E+00  0.39784106360E+03  0.39784106360E+03  0.00000000000E+00 0. -1.
         21   -1    0    0  501  502 -0.00000000000E+00 -0.00000000000E+00 -0.13641015002E+03  0.13641015002E+03  0.00000000000E+00 0. -1.
         25    1    1    2    0    0 -0.17629272229E+03 -0.10939877309E+02  0.31770941365E+02  0.21870801897E+03  0.12500000000E+03 0.  0.
         25    1    1    2    0    0  0.17629272229E+03  0.10939877309E+02  0.22965997222E+03  0.31554319465E+03  0.12500000000E+03 0.  0.
</event>
<event>
 4    0  0.2259196E-002  0.2101845E+03  0.7546771E-02  0.1141420E+00
         21   -1    0    0  502  501  0.00000000000E+00  0.00000000000E+00  0.10825406852E+04  0.10825406852E+04  0.00000000000E+00 0. -1.
         21   -1    0    0  501  502 -0.00000000000E+00 -0.00000000000E+00 -0.40809123006E+02  0.40809123006E+02  0.00000000000E+00 0. -1.
         25    1    1    2    0    0 -0.37762486731E+02  0.13720061055E+03  0.76436037302E+03  0.78747812210E+03  0.12500000000E+03 0.  0.
         25    1    1    2    0    0  0.37762486731E+02 -0.13720061055E+03  0.27737118913E+03  0.33587168606E+03  0.12500000000E+03 0.  0.
</event>
<event>
 4    0  0.2259196E-002  0.1627954E+03  0.7546771E-02  0.1185576E+00
         21   -1    0    0  502  501  0.00000000000E+00  0.00000000000E+00  0.33559274958E+03  0.33559274958E+03  0.00000000000E+00 0. -1.
         21   -1    0    0  501  502 -0.00000000000E+00 -0.00000000000E+00 -0.78971758318E+02  0.78971758318E+02  0.00000000000E+00 0. -1.
         25    1    1    2    0    0  0.13615140829E+02 -0.10143241171E+03  0.15388523353E+03  0.22311335976E+03  0.12500000000E+03 0.  0.
         25    1    1    2    0    0 -0.13615140829E+02  0.10143241171E+03  0.10273575773E+03  0.19145114814E+03  0.12500000000E+03 0.  0.
</event>
<event>
 4    0  0.2259196E-002  0.4646189E+03  0.7546771E-02  0.1023450E+00
         21   -1    0    0  502  501  0.00000000000E+00  0.00000000000E+00  0.28733970371E+04  0.28733970371E+04  0.00000000000E+00 0. -1.
         21   -1    0    0  501  502 -0.00000000000E+00 -0.00000000000E+00 -0.75127364579E+02  0.75127364579E+02  0.00000000000E+00 0.  1.
         25    1    1    2    0    0  0.16979822806E+03  0.32266928467E+03  0.22222898486E+04  0.22554698128E+04  0.12500000000E+03 0.  0.
         25    1    1    2    0    0 -0.16979822806E+03 -0.32266928467E+03  0.57597982392E+03  0.69305458882E+03  0.12500000000E+03 0.  0.
</event>
<event>
 4    0  0.2259196E-002  0.1862122E+03  0.7546771E-02  0.1161923E+00
         21   -1    0    0  502  501  0.00000000000E+00  0.00000000000E+00  0.66661211162E+03  0.66661211162E+03  0.00000000000E+00 0.  1.
         21   -1    0    0  501  502 -0.00000000000E+00 -0.00000000000E+00 -0.52016728136E+02  0.52016728136E+02  0.00000000000E+00 0.  1.
         25    1    1    2    0    0  0.14116701456E+02 -0.92878260090E+02  0.50240966832E+03  0.52618069832E+03  0.12500000000E+03 0.  0.
         25    1    1    2    0    0 -0.14116701456E+02  0.92878260090E+02  0.11218571516E+03  0.19244814144E+03  0.12500000000E+03 0.  0.
</event>
<event>
 4    0  0.2259196E-002  0.1911924E+03  0.7546771E-02  0.1157390E+00
         21   -1    0    0  502  501  0.00000000000E+00  0.00000000000E+00  0.22627180725E+02  0.22627180725E+02  0.00000000000E+00 0. -1.
         21   -1    0    0  501  502 -0.00000000000E+00 -0.00000000000E+00 -0.16155146732E+04  0.16155146732E+04  0.00000000000E+00 0. -1.
         25    1    1    2    0    0 -0.40211164953E+02  0.13204752806E+03 -0.61088833664E+03  0.63864156402E+03  0.12500000000E+03 0.  0.
         25    1    1    2    0    0  0.40211164953E+02 -0.13204752806E+03 -0.98199915583E+03  0.99950028990E+03  0.12500000000E+03 0.  0.
</event>
<event>
 4    0  0.2259196E-002  0.2009932E+03  0.7546771E-02  0.1148904E+00
         21   -1    0    0  502  501  0.00000000000E+00  0.00000000000E+00  0.88246674752E+03  0.88246674752E+03  0.00000000000E+00 0.  1.
         21   -1    0    0  501  502 -0.00000000000E+00 -0.00000000000E+00 -0.45778792453E+02  0.45778792453E+02  0.00000000000E+00 0.  1.
         25    1    1    2    0    0  0.81667255803E+00  0.71741170286E+02  0.74183722111E+03  0.75570822749E+03  0.12500000000E+03 0.  0.
         25    1    1    2    0    0 -0.81667255803E+00 -0.71741170286E+02  0.94850733961E+02  0.17253731249E+03  0.12500000000E+03 0.  0.
</event>
<event>
 4    0  0.2259196E-002  0.2143493E+03  0.7546771E-02  0.1138167E+00
         21   -1    0    0  502  501  0.00000000000E+00  0.00000000000E+00  0.14772868573E+03  0.14772868573E+03  0.00000000000E+00 0. -1.
         21   -1    0    0  501  502 -0.00000000000E+00 -0.00000000000E+00 -0.31101365534E+03  0.31101365534E+03  0.00000000000E+00 0. -1.
         25    1    1    2    0    0  0.70169989459E+02  0.76740169265E+02 -0.23110089548E+03  0.28256946914E+03  0.12500000000E+03 0.  0.
         25    1    1    2    0    0 -0.70169989459E+02 -0.76740169265E+02  0.67815925874E+02  0.17617287192E+03  0.12500000000E+03 0.  0.
</event>
<event>
 4    0  0.2259196E-002  0.1637674E+03  0.7546771E-02  0.1184508E+00
         21   -1    0    0  502  501  0.00000000000E+00  0.00000000000E+00  0.32018260888E+02  0.32018260888E+02  0.00000000000E+00 0.  1.
         21   -1    0    0  501  502 -0.00000000000E+00 -0.00000000000E+00 -0.83763977063E+03  0.83763977063E+03  0.00000000000E+00 0.  1.
         25    1    1    2    0    0 -0.64865663896E+02  0.82118485591E+02 -0.44426604445E+03  0.47323178072E+03  0.12500000000E+03 0.  0.
         25    1    1    2    0    0  0.64865663896E+02 -0.82118485591E+02 -0.36135546529E+03  0.39642625080E+03  0.12500000000E+03 0.  0.
</event>
<event>
 4    0  0.2259196E-002  0.3778358E+03  0.7546771E-02  0.1051737E+00
         21   -1    0    0  502  501  0.00000000000E+00  0.00000000000E+00  0.14102122045E+04  0.14102122045E+04  0.00000000000E+00 0.  1.
         21   -1    0    0  501  502 -0.00000000000E+00 -0.00000000000E+00 -0.10123294115E+03  0.10123294115E+03  0.00000000000E+00 0.  1.
         25    1    1    2    0    0  0.33049041380E+03 -0.93489557436E+02  0.46294900434E+03  0.58983980162E+03  0.12500000000E+03 0.  0.
         25    1    1    2    0    0 -0.33049041380E+03  0.93489557436E+02  0.84603025904E+03  0.92160534405E+03  0.12500000000E+03 0.  0.
</event>
<event>
 4    0  0.2259196E-002  0.2358129E+03  0.7546771E-02  0.1122614E+00
         21   -1    0    0  502  501  0.00000000000E+00  0.00000000000E+00  0.17078477059E+03  0.17078477059E+03  0.00000000000E+00 0.  1.
         21   -1    0    0  501  502 -0.00000000000E+00 -0.00000000000E+00 -0.32560131413E+03  0.32560131413E+03  0.00000000000E+00 0.  1.
         25    1    1    2    0    0  0.18222478015E+03 -0.10242860119E+02 -0.16337861171E+03  0.27500610438E+03  0.12500000000E+03 0.  0.
         25    1    1    2    0    0 -0.18222478015E+03  0.10242860119E+02  0.85620681645E+01  0.22137998034E+03  0.12500000000E+03 0.  0.
</event>
<event>
 4    0  0.2259196E-002  0.2410055E+03  0.7546771E-02  0.1119125E+00
         21   -1    0    0  502  501  0.00000000000E+00  0.00000000000E+00  0.14786974336E+04  0.14786974336E+04  0.00000000000E+00 0.  1.
         21   -1    0    0  501  502 -0.00000000000E+00 -0.00000000000E+00 -0.39280270850E+02  0.39280270850E+02  0.00000000000E+00 0.  1.
         25    1    1    2    0    0  0.64700943344E+01  0.20164648577E+03  0.85165724709E+03  0.88410872287E+03  0.12500000000E+03 0.  0.
         25    1    1    2    0    0 -0.64700943344E+01 -0.20164648577E+03  0.58775991565E+03  0.63386898156E+03  0.12500000000E+03 0.  0.
</event>
