<event>
 5    0  0.5568866E-005  0.5895418E+03  0.7546771E-02  0.9927344E-01
         21   -1    0    0  502  501  0.00000000000E+00  0.00000000000E+00  0.11742872303E+04  0.11742872303E+04  0.00000000000E+00 0.  1.
         21   -1    0    0  501  502 -0.00000000000E+00 -0.00000000000E+00 -0.29597489460E+03  0.29597489460E+03  0.00000000000E+00 0.  1.
         25    1    1    2    0    0  0.38365450908E+03 -0.78890811036E+02  0.77459953051E+03  0.87695152378E+03  0.12500000000E+03 0.  0.
         25    1    1    2    0    0 -0.30139373206E+03  0.20217794794E+03  0.11008115257E+03  0.39932062871E+03  0.12500000000E+03 0.  0.
         25    1    1    2    0    0 -0.82260777021E+02 -0.12328713691E+03 -0.63683473340E+01  0.19398997245E+03  0.12500000000E+03 0.  0.
</event>
<event>
 5    0  0.5568866E-005  0.2729440E+03  0.7546771E-02  0.1099606E+00
         21   -1    0    0  502  501  0.00000000000E+00  0.00000000000E+00  0.14802789987E+03  0.14802789987E+03  0.00000000000E+00 0. -1.
         21   -1    0    0  501  502 -0.00000000000E+00 -0.00000000000E+00 -0.50327295944E+03  0.50327295944E+03  0.00000000000E+00 0. -1.
         25    1    1    2    0    0  0.10205800111E+03  0.11477977938E+02  0.24181281921E+02  0.16357663025E+03  0.12500000000E+03 0.  0.
         25    1    1    2    0    0 -0.84322006676E+02 -0.69947981741E+02 -0.22696046281E+03  0.28131649905E+03  0.12500000000E+03 0.  0.
         25    1    1    2    0    0 -0.17735994438E+02  0.58470003802E+02 -0.15246587868E+03  0.20640773000E+03  0.12500000000E+03 0.  0.
</event>
<event>
 5    0  0.5568866E-005  0.2743533E+03  0.7546771E-02  0.1098814E+00
         21   -1    0    0  502  501  0.00000000000E+00  0.00000000000E+00  0.69159428452E+03  0.69159428452E+03  0.00000000000E+00 0. -1.
         21   -1    0    0  501  502 -0.00000000000E+00 -0.00000000000E+00 -0.10883511616E+03  0.10883511616E+03  0.00000000000E+00 0. -1.
         25    1    1    2    0    0 -0.15369166151E+03 -0.10161620211E+02  0.82297533974E+02  0.21476095884E+03  0.12500000000E+03 0.  0.
         25    1    1    2    0    0  0.68074851034E+02  0.29172498958E+02  0.18536119130E+03  0.23551855825E+03  0.12500000000E+03 0.  0.
         25    1    1    2    0    0  0.85616810473E+02 -0.19010878747E+02  0.31510044309E+03  0.35014988359E+03  0.12500000000E+03 0.  0.
</event>
<event>
 5    0  0.5568866E-005  0.2779543E+03  0.7546771E-02  0.1096812E+00
         21   -1    0    0  502  501  0.00000000000E+00  0.00000000000E+00  0.13125137364E+03  0.13125137364E+03  0.00000000000E+00 0.  1.
         21   -1    0    0  501  502 -0.00000000000E+00 -0.00000000000E+00 -0.58863070786E+03  0.58863070786E+03  0.00000000000E+00 0.  1.
         25    1    1    2    0    0 -0.62056486811E+02  0.62246155711E+02 -0.19497539146E+02  0.15404786752E+03  0.12500000000E+03 0.  0.
         25    1    1    2    0    0  0.91073452205E+02 -0.37593871505E+02 -0.67149629298E+02  0.17274763554E+03  0.12500000000E+03 0.  0.
         25    1    1    2    0    0 -0.29016965393E+02 -0.24652284206E+02 -0.37073216578E+03  0.39308657843E+03  0.12500000000E+03 0.  0.
</event>
<event>
 5    0  0.5568866E-005  0.2710429E+03  0.7546771E-02  0.1100684E+00
         21   -1    0    0  502  501  0.00000000000E+00  0.00000000000E+00  0.68188584356E+02  0.68188584356E+02  0.00000000000E+00 0.  1.
         21   -1    0    0  501  502 -0.00000000000E+00 -0.00000000000E+00 -0.10773691006E+04  0.10773691006E+04  0.00000000000E+00 0.  1.
         25    1    1    2    0    0  0.11075103371E+03  0.11238300798E+03 -0.38821864303E+03  0.43730360935E+03  0.12500000000E+03 0.  0.
         25    1    1    2    0    0 -0.12411376921E+03 -0.10038723662E+03 -0.28851154451E+03  0.35262690808E+03  0.12500000000E+03 0.  0.
         25    1    1    2    0    0  0.13362735499E+02 -0.11995771357E+02 -0.33245032866E+03  0.35562716749E+03  0.12500000000E+03 0.  0.
</event>
<event>
 5    0  0.5568866E-005  0.3455805E+03  0.7546771E-02  0.1064444E+00
         21   -1    0    0  502  501  0.00000000000E+00  0.00000000000E+00  0.43750633354E+03  0.43750633354E+03  0.00000000000E+00 0. -1.
         21   -1    0    0  501  502 -0.00000000000E+00 -0.00000000000E+00 -0.27296948979E+03  0.27296948979E+03  0.00000000000E+00 0. -1.
         25    1    1    2    0    0  0.96836015481E+01  0.65035474496E+02  0.22441251294E+03  0.26515912401E+03  0.12500000000E+03 0.  0.
         25    1    1    2    0    0  0.81074044715E+02 -0.11816036071E+02  0.12768499193E+03  0.19657333644E+03  0.12500000000E+03 0.  0.
         25    1    1    2    0    0 -0.90757646263E+02 -0.53219438425E+02 -0.18756066112E+03  0.24874336289E+03  0.12500000000E+03 0.  0.
</event>
<event>
 5    0  0.5568866E-005  0.5651583E+03  0.7546771E-02  0.9980450E-01
         21   -1    0    0  502  501  0.00000000000E+00  0.00000000000E+00  0.36823377292E+03  0.36823377292E+03  0.00000000000E+00 0. -1.
         21   -1    0    0  501  502 -0.00000000000E+00 -0.00000000000E+00 -0.86739441295E+03  0.86739441295E+03  0.00000000000E+00 0. -1.
         25    1    1    2    0    0  0.89461136682E+02  0.13138486029E+03 -0.30220676177E+03  0.36361958603E+03  0.12500000000E+03 0.  0.
         25    1    1    2    0    0  0.14073779005E+03  0.17055386412E+03  0.18880756750E+03  0.31649493465E+03  0.12500000000E+03 0.  0.
         25    1    1    2    0    0 -0.23019892673E+03 -0.30193872441E+03 -0.38576144576E+03  0.55551366518E+03  0.12500000000E+03 0.  0.
</event>
<event>
 5    0  0.5568866E-005  0.3373096E+03  0.7546771E-02  0.1067948E+00
         21   -1    0    0  502  501  0.00000000000E+00  0.00000000000E+00  0.10028009873E+04  0.10028009873E+04  0.00000000000E+00 0.  1.
         21   -1    0    0  501  502 -0.00000000000E+00 -0.00000000000E+00 -0.11345997190E+03  0.11345997190E+03  0.00000000000E+00 0.  1.
         25    1    1    2    0    0 -0.11972347433E+03  0.12948332363E+02  0.72324786191E+02  0.18803522094E+03  0.12500000000E+03 0.  0.
         25    1    1    2    0    0 -0.81277519301E+02  0.27896075794E+02  0.54322374438E+03  0.56400466545E+03  0.12500000000E+03 0.  0.
         25    1    1    2    0    0  0.20100099363E+03 -0.40844408158E+02  0.27379248479E+03  0.36422107277E+03  0.12500000000E+03 0.  0.
</event>
<event>
 5    0  0.5568866E-005  0.4826477E+03  0.7546771E-02  0.1018410E+00
         21   -1    0    0  502  501  0.00000000000E+00  0.00000000000E+00  0.22013900847E+04  0.22013900847E+04  0.00000000000E+00 0.  1.
         21   -1    0    0  501  502 -0.00000000000E+00 -0.00000000000E+00 -0.10581893612E+03  0.10581893612E+03  0.00000000000E+00 0.  1.
         25    1    1    2    0    0 -0.50538054519E+02 -0.82958838958E+02  0.47033552346E+03  0.49626280189E+03  0.12500000000E+03 0.  0.
         25    1    1    2    0    0  0.39218249384E+03  0.15220616013E+02  0.10392249872E+04  0.11178785040E+04  0.12500000000E+03 0.  0.
         25    1    1    2    0    0 -0.34164443932E+03  0.67738222944E+02  0.58601063790E+03  0.69306771494E+03  0.12500000000E+03 0.  0.
</event>
<event>
 5    0  0.5568866E-005  0.4187167E+03  0.7546771E-02  0.1037485E+00
         21   -1    0    0  502  501  0.00000000000E+00  0.00000000000E+00  0.29568933858E+03  0.29568933858E+03  0.00000000000E+00 0. -1.
         21   -1    0    0  501  502 -0.00000000000E+00 -0.00000000000E+00 -0.59293200848E+03  0.59293200848E+03  0.00000000000E+00 0. -1.
         25    1    1    2    0    0 -0.12740737812E+03  0.70593133532E+02 -0.18241692360E+02  0.19280505658E+03  0.12500000000E+03 0.  0.
         25    1    1    2    0    0  0.30887448936E+03 -0.33452909679E+02 -0.32612003357E+03  0.46744178637E+03  0.12500000000E+03 0.  0.
         25    1    1    2    0    0 -0.18146711124E+03 -0.37140223853E+02  0.47119056034E+02  0.22837450412E+03  0.12500000000E+03 0.  0.
</event>
<event>
 5    0  0.5568866E-005  0.3854121E+03  0.7546771E-02  0.1048951E+00
         21   -1    0    0  502  501  0.00000000000E+00  0.00000000000E+00  0.23028722361E+03  0.23028722361E+03  0.00000000000E+00 0. -1.
         21   -1    0    0  501  502 -0.00000000000E+00 -0.00000000000E+00 -0.64503131803E+03  0.64503131803E+03  0.00000000000E+00 0. -1.
         25    1    1    2    0    0  0.13626111341E+03  0.11123963132E+03 -0.50878940289E+03  0.55265993441E+03  0.12500000000E+03 0.  0.
         25    1    1    2    0    0 -0.84057680724E+02 -0.75173679615E+02  0.55730907107E+02  0.17733502137E+03  0.12500000000E+03 0.  0.
         25    1    1    2    0    0 -0.52203432685E+02 -0.36065951708E+02  0.38314401369E+02  0.14532358587E+03  0.12500000000E+03 0.  0.
</event>
<event>
 5    0  0.5568866E-005  0.2610367E+03  0.7546771E-02  0.1106522E+00
         21   -1    0    0  502  501  0.00000000000E+00  0.00000000000E+00  0.12739079690E+04  0.12739079690E+04  0.00000000000E+00 0.  1.
         21   -1    0    0  501  502 -0.00000000000E+00 -0.00000000000E+00 -0.53489059036E+02  0.53489059036E+02  0.00000000000E+00 0.  1.
         25    1    1    2    0    0  0.49594792974E+02  0.14990928344E+01  0.44570306897E+03  0.46555141119E+03  0.12500000000E+03 0.  0.
         25    1    1    2    0    0 -0.14288407265E+03  0.47874962063E+02  0.28700406789E+03  0.34742510732E+03  0.12500000000E+03 0.  0.
         25    1    1    2    0    0  0.93289279674E+02 -0.49374054897E+02  0.48771177305E+03  0.51442050948E+03  0.12500000000E+03 0.  0.
</event>
<event>
 5    0  0.5568866E-005  0.3793563E+03  0.7546771E-02  0.1051172E+00
         21   -1    0    0  502  501  0.00000000000E+00  0.00000000000E+00  0.70069517172E+03  0.70069517172E+03  0.00000000000E+00 0. -1.
         21   -1    0    0  501  502 -0.00000000000E+00 -0.00000000000E+00 -0.20538350076E+03  0.20538350076E+03  0.00000000000E+00 0. -1.
         25    1    1    2    0    0  0.59425859213E+02  0.67172330981E+02  0.55108236320E+02  0.16341809111E+03  0.12500000000E+03 0.  0.
         25    1    1    2    0    0 -0.29288061670E+03 -0.56145947223E+02  0.30763160925E+03  0.44631113591E+03  0.12500000000E+03 0.  0.
         25    1    1    2    0    0  0.23345475749E+03 -0.11026383759E+02  0.13257182539E+03  0.29634944546E+03  0.12500000000E+03 0.  0.
</event>
<event>
 5    0  0.7495761E-005  0.2889466E+03  0.7546771E-02  0.1090900E+00
         21   -1    0    0  502  501  0.00000000000E+00  0.00000000000E+00  0.14763716609E+03  0.14763716609E+03  0.00000000000E+00 0. -1.
         21   -1    0    0  501  502 -0.00000000000E+00 -0.00000000000E+00 -0.56550895550E+03  0.56550895550E+03  0.00000000000E+00 0. -1.
         25    1    1    2    0    0  0.17966318538E+03  0.90539420796E+01 -0.25902021550E+03  0.33923046162E+03  0.12500000000E+03 0.  0.
         25    1    1    2    0    0 -0.10598698447E+03 -0.67973931508E+02 -0.11446907805E+03  0.21114418314E+03  0.12500000000E+03 0.  0.
         25    1    1    2    0    0 -0.73676200910E+02  0.58919989429E+02 -0.44382495856E+02  0.16277147684E+03  0.12500000000E+03 0.  0.
</event>
<event>
 5    0  0.6184694E-005  0.3427422E+03  0.7546771E-02  0.1065634E+00
         21   -1    0    0  502  501  0.00000000000E+00  0.00000000000E+00  0.47755122476E+03  0.47755122476E+03  0.00000000000E+00 0. -1.
         21   -1    0    0  501  502 -0.00000000000E+00 -0.00000000000E+00 -0.24598873241E+03  0.24598873241E+03  0.00000000000E+00 0. -1.
         25    1    1    2    0    0 -0.58322414901E+02  0.14158977213E+03  0.16346709491E+03  0.25650664468E+03  0.12500000000E+03 0.  0.
         25    1    1    2    0    0  0.12358001084E+03  0.49753575400E+02 -0.65867249291E+02  0.19419302736E+03  0.12500000000E+03 0.  0.
         25    1    1    2    0    0 -0.65257595942E+02 -0.19134334753E+03  0.13396264673E+03  0.27284028513E+03  0.12500000000E+03 0.  0.
</event>
<event>
 5    0  0.5568866E-005  0.2933002E+03  0.7546771E-02  0.1088639E+00
         21   -1    0    0  502  501  0.00000000000E+00  0.00000000000E+00  0.75468770907E+03  0.75468770907E+03  0.00000000000E+00 0. -1.
         21   -1    0    0  501  502 -0.00000000000E+00 -0.00000000000E+00 -0.11398753053E+03  0.11398753053E+03  0.00000000000E+00 0. -1.
         25    1    1    2    0    0 -0.33788901022E+02 -0.10711216739E+03  0.98385049041E+02  0.19472884766E+03  0.12500000000E+03 0.  0.
         25    1    1    2    0    0 -0.74876271757E+02  0.88520613005E+02  0.91898389076E+02  0.19368187554E+03  0.12500000000E+03 0.  0.
         25    1    1    2    0    0  0.10866517278E+03  0.18591554382E+02  0.45041674042E+03  0.48026451641E+03  0.12500000000E+03 0.  0.
</event>
<event>
 5    0  0.5568866E-005  0.3924227E+03  0.7546771E-02  0.1046435E+00
         21   -1    0    0  502  501  0.00000000000E+00  0.00000000000E+00  0.15428973465E+03  0.15428973465E+03  0.00000000000E+00 0.  1.
         21   -1    0    0  501  502 -0.00000000000E+00 -0.00000000000E+00 -0.99809331294E+03  0.99809331294E+03  0.00000000000E+00 0.  1.
         25    1    1    2    0    0 -0.35093518160E+02 -0.14109530716E+03 -0.46969767124E+03  0.50732666309E+03  0.12500000000E+03 0.  0.
         25    1    1    2    0    0 -0.13640508102E+03  0.22702130423E+03 -0.17185797483E+03  0.33956616765E+03  0.12500000000E+03 0.  0.
         25    1    1    2    0    0  0.17149859918E+03 -0.85925997071E+02 -0.20224793223E+03  0.30549021684E+03  0.12500000000E+03 0.  0.
</event>
<event>
 5    0  0.5568866E-005  0.2823587E+03  0.7546771E-02  0.1094408E+00
         21   -1    0    0  502  501  0.00000000000E+00  0.00000000000E+00  0.18433403119E+03  0.18433403119E+03  0.00000000000E+00 0. -1.
         21   -1    0    0  501  502 -0.00000000000E+00 -0.00000000000E+00 -0.43251066200E+03  0.43251066200E+03  0.00000000000E+00 0. -1.
         25    1    1    2    0    0  0.11181384294E+02 -0.49450250234E+02  0.37770702509E+02  0.14007846576E+03  0.12500000000E+03 0.  0.
         25    1    1    2    0    0 -0.14435245136E+02 -0.76762031025E+02 -0.25769072118E+03  0.29686746789E+03  0.12500000000E+03 0.  0.
         25    1    1    2    0    0  0.32538608418E+01  0.12621228126E+03 -0.28256612139E+02  0.17989875953E+03  0.12500000000E+03 0.  0.
</event>
<event>
 5    0  0.5568866E-005  0.3800414E+03  0.7546771E-02  0.1050918E+00
         21   -1    0    0  502  501  0.00000000000E+00  0.00000000000E+00  0.54468176862E+03  0.54468176862E+03  0.00000000000E+00 0.  1.
         21   -1    0    0  501  502 -0.00000000000E+00 -0.00000000000E+00 -0.26516672163E+03  0.26516672163E+03  0.00000000000E+00 0.  1.
         25    1    1    2    0    0 -0.28117197348E+02  0.12547507771E+02 -0.20482923210E+02  0.13035554028E+03  0.12500000000E+03 0.  0.
         25    1    1    2    0    0  0.17956986327E+03  0.13252449570E+03 -0.42066544213E+02  0.25923478142E+03  0.12500000000E+03 0.  0.
         25    1    1    2    0    0 -0.15145266593E+03 -0.14507200347E+03  0.34206451442E+03  0.42025816855E+03  0.12500000000E+03 0.  0.
</event>
<event>
 5    0  0.5568866E-005  0.3113526E+03  0.7546771E-02  0.1079699E+00
         21   -1    0    0  502  501  0.00000000000E+00  0.00000000000E+00  0.11485220568E+03  0.11485220568E+03  0.00000000000E+00 0.  1.
         21   -1    0    0  501  502 -0.00000000000E+00 -0.00000000000E+00 -0.84404514693E+03  0.84404514693E+03  0.00000000000E+00 0.  1.
         25    1    1    2    0    0  0.12623139676E+03 -0.33014270348E+02 -0.18917374986E+03  0.26160278135E+03  0.12500000000E+03 0.  0.
         25    1    1    2    0    0  0.21129148358E+02 -0.13099674980E+03 -0.17339733989E+03  0.25159138867E+03  0.12500000000E+03 0.  0.
         25    1    1    2    0    0 -0.14736054511E+03  0.16401102015E+03 -0.36662185149E+03  0.44570318260E+03  0.12500000000E+03 0.  0.
</event>
<event>
 5    0  0.5568866E-005  0.5210686E+03  0.7546771E-02  0.1008421E+00
         21   -1    0    0  502  501  0.00000000000E+00  0.00000000000E+00  0.16585723730E+03  0.16585723730E+03  0.00000000000E+00 0.  1.
         21   -1    0    0  501  502 -0.00000000000E+00 -0.00000000000E+00 -0.16370251845E+04  0.16370251845E+04  0.00000000000E+00 0.  1.
         25    1    1    2    0    0 -0.45740956169E+02 -0.43563284597E+02  0.94564578706E+02  0.16898950968E+03  0.12500000000E+03 0.  0.
         25    1    1    2    0    0  0.17913263925E+03 -0.25987717543E+02 -0.11914447796E+04  0.12115814157E+04  0.12500000000E+03 0.  0.
         25    1    1    2    0    0 -0.13339168308E+03  0.69551002140E+02 -0.37428774630E+03  0.42231149646E+03  0.12500000000E+03 0.  0.
</event>
<event>
 5    0  0.5568866E-005  0.3363887E+03  0.7546771E-02  0.1068345E+00
         21   -1    0    0  502  501  0.00000000000E+00  0.00000000000E+00  0.65404931322E+03  0.65404931322E+03  0.00000000000E+00 0. -1.
         21   -1    0    0  501  502 -0.00000000000E+00 -0.00000000000E+00 -0.17301041802E+03  0.17301041802E+03  0.00000000000E+00 0. -1.
         25    1    1    2    0    0  0.44494574757E+02 -0.17703698499E+03  0.20439701118E+02  0.22218155328E+03  0.12500000000E+03 0.  0.
         25    1    1    2    0    0  0.53006827246E+02 -0.33592944125E+00  0.84703924662E+02  0.16002997043E+03  0.12500000000E+03 0.  0.
         25    1    1    2    0    0 -0.97501402003E+02  0.17737291443E+03  0.37589526942E+03  0.44484820753E+03  0.12500000000E+03 0.  0.
</event>
<event>
 5    0  0.5568866E-005  0.2875953E+03  0.7546771E-02  0.1091611E+00
         21   -1    0    0  502  501  0.00000000000E+00  0.00000000000E+00  0.17165516223E+03  0.17165516223E+03  0.00000000000E+00 0. -1.
         21   -1    0    0  501  502 -0.00000000000E+00 -0.00000000000E+00 -0.48184428922E+03  0.48184428922E+03  0.00000000000E+00 0. -1.
         25    1    1    2    0    0 -0.27363065465E+02  0.74862757052E+02  0.80398281710E+02  0.16864771996E+03  0.12500000000E+03 0.  0.
         25    1    1    2    0    0 -0.37556756104E+00  0.31474251585E+01 -0.10919685768E+03  0.16600903910E+03  0.12500000000E+03 0.  0.
         25    1    1    2    0    0  0.27738633026E+02 -0.78010182211E+02 -0.28139055102E+03  0.31884269240E+03  0.12500000000E+03 0.  0.
</event>
<event>
 5    0  0.5568866E-005  0.3832245E+03  0.7546771E-02  0.1049748E+00
         21   -1    0    0  502  501  0.00000000000E+00  0.00000000000E+00  0.41870884670E+03  0.41870884670E+03  0.00000000000E+00 0. -1.
         21   -1    0    0  501  502 -0.00000000000E+00 -0.00000000000E+00 -0.35074727039E+03  0.35074727039E+03  0.00000000000E+00 0. -1.
         25    1    1    2    0    0  0.96423479586E+02 -0.65678838243E+02  0.24376935447E+03  0.29775777972E+03  0.12500000000E+03 0.  0.
         25    1    1    2    0    0 -0.19283512910E+03  0.12499695388E+03 -0.63850019771E+02  0.26927950260E+03  0.12500000000E+03 0.  0.
         25    1    1    2    0    0  0.96411649512E+02 -0.59318115640E+02 -0.11195775839E+03  0.20241883477E+03  0.12500000000E+03 0.  0.
</event>
<event>
 5    0  0.5568866E-005  0.2623777E+03  0.7546771E-02  0.1105723E+00
         21   -1    0    0  502  501  0.00000000000E+00  0.00000000000E+00  0.35570813504E+03  0.35570813504E+03  0.00000000000E+00 0.  1.
         21   -1    0    0  501  502 -0.00000000000E+00 -0.00000000000E+00 -0.19353519370E+03  0.19353519370E+03  0.00000000000E+00 0.  1.
         25    1    1    2    0    0 -0.10434216803E+03  0.22772613772E+02 -0.42452355792E+02  0.16980306970E+03  0.12500000000E+03 0.  0.
         25    1    1    2    0    0  0.59675564060E+02 -0.75652109355E+02  0.17089879007E+03  0.23262805300E+03  0.12500000000E+03 0.  0.
         25    1    1    2    0    0  0.44666603966E+02  0.52879495582E+02  0.33726507064E+02  0.14681220604E+03  0.12500000000E+03 0.  0.
</event>
<event>
 5    0  0.5568866E-005  0.2757906E+03  0.7546771E-02  0.1098010E+00
         21   -1    0    0  502  501  0.00000000000E+00  0.00000000000E+00  0.11236551068E+03  0.11236551068E+03  0.00000000000E+00 0. -1.
         21   -1    0    0  501  502 -0.00000000000E+00 -0.00000000000E+00 -0.67690218646E+03  0.67690218646E+03  0.00000000000E+00 0. -1.
         25    1    1    2    0    0  0.25611817231E+02  0.70577474285E+02 -0.14338081712E+03  0.20449988698E+03  0.12500000000E+03 0.  0.
         25    1    1    2    0    0 -0.22218553645E+02 -0.18357798520E+03 -0.31328001374E+03  0.38466076975E+03  0.12500000000E+03 0.  0.
         25    1    1    2    0    0 -0.33932635863E+01  0.11300051091E+03 -0.10787584493E+03  0.20010704041E+03  0.12500000000E+03 0.  0.
</event>
<event>
 5    0  0.5568866E-005  0.2570623E+03  0.7546771E-02  0.1108921E+00
         21   -1    0    0  502  501  0.00000000000E+00  0.00000000000E+00  0.38415138159E+03  0.38415138159E+03  0.00000000000E+00 0. -1.
         21   -1    0    0  501  502 -0.00000000000E+00 -0.00000000000E+00 -0.17201817128E+03  0.17201817128E+03  0.00000000000E+00 0. -1.
         25    1    1    2    0    0 -0.11363940638E+03 -0.28646849679E+02  0.12483277396E+03  0.21199711822E+03  0.12500000000E+03 0.  0.
         25    1    1    2    0    0 -0.94949395888E+01 -0.24356982829E+02  0.97388242393E+02  0.16060163837E+03  0.12500000000E+03 0.  0.
         25    1    1    2    0    0  0.12313434597E+03  0.53003832509E+02 -0.10087806043E+02  0.18357079628E+03  0.12500000000E+03 0.  0.
</event>
<event>
 5    0  0.5568866E-005  0.2657893E+03  0.7546771E-02  0.1103714E+00
         21   -1    0    0  502  501  0.00000000000E+00  0.00000000000E+00  0.25987818042E+03  0.25987818042E+03  0.00000000000E+00 0.  1.
         21   -1    0    0  501  502 -0.00000000000E+00 -0.00000000000E+00 -0.27183478106E+03  0.27183478106E+03  0.00000000000E+00 0.  1.
         25    1    1    2    0    0 -0.95727108198E+02  0.11405962822E+03  0.14903253721E+02  0.19498816632E+03  0.12500000000E+03 0.  0.
         25    1    1    2    0    0  0.13915941136E+02 -0.12523802565E+03 -0.51703625287E+02  0.18486882202E+03  0.12500000000E+03 0.  0.
         25    1    1    2    0    0  0.81811167063E+02  0.11178397432E+02  0.24843770922E+02  0.15185597314E+03  0.12500000000E+03 0.  0.
</event>
<event>
 5    0  0.5568866E-005  0.3079340E+03  0.7546771E-02  0.1081340E+00
         21   -1    0    0  502  501  0.00000000000E+00  0.00000000000E+00  0.35317127433E+03  0.35317127433E+03  0.00000000000E+00 0. -1.
         21   -1    0    0  501  502 -0.00000000000E+00 -0.00000000000E+00 -0.26849117265E+03  0.26849117265E+03  0.00000000000E+00 0. -1.
         25    1    1    2    0    0 -0.86490747963E+02  0.14934661701E+03  0.13926733849E+03  0.25456915184E+03  0.12500000000E+03 0.  0.
         25    1    1    2    0    0  0.67096755057E+02 -0.98109017729E+02  0.66282978430E+02  0.18478578714E+03  0.12500000000E+03 0.  0.
         25    1    1    2    0    0  0.19393992906E+02 -0.51237599281E+02 -0.12087021525E+03  0.18230750800E+03  0.12500000000E+03 0.  0.
</event>
<event>
 5    0  0.5568866E-005  0.4872744E+03  0.7546771E-02  0.1017155E+00
         21   -1    0    0  502  501  0.00000000000E+00  0.00000000000E+00  0.40241325937E+03  0.40241325937E+03  0.00000000000E+00 0.  1.
         21   -1    0    0  501  502 -0.00000000000E+00 -0.00000000000E+00 -0.59003099608E+03  0.59003099608E+03  0.00000000000E+00 0.  1.
         25    1    1    2    0    0  0.40263326377E+02  0.48921546908E+01 -0.65487811564E+02  0.14682888712E+03  0.12500000000E+03 0.  0.
         25    1    1    2    0    0 -0.50802008872E+02 -0.15615143360E+02 -0.46285489518E+03  0.48237364232E+03  0.12500000000E+03 0.  0.
         25    1    1    2    0    0  0.10538682495E+02  0.10722988669E+02  0.34072497004E+03  0.36324172602E+03  0.12500000000E+03 0.  0.
</event>
<event>
 5    0  0.5568866E-005  0.3346138E+03  0.7546771E-02  0.1069113E+00
         21   -1    0    0  502  501  0.00000000000E+00  0.00000000000E+00  0.75584474676E+03  0.75584474676E+03  0.00000000000E+00 0. -1.
         21   -1    0    0  501  502 -0.00000000000E+00 -0.00000000000E+00 -0.14813413101E+03  0.14813413101E+03  0.00000000000E+00 0. -1.
         25    1    1    2    0    0 -0.65832745603E+02  0.14051812287E+03  0.16644315592E+03  0.25962976987E+03  0.12500000000E+03 0.  0.
         25    1    1    2    0    0  0.14368417148E+03 -0.10808766348E+03  0.49419508042E+02  0.22448913538E+03  0.12500000000E+03 0.  0.
         25    1    1    2    0    0 -0.77851425878E+02 -0.32430459388E+02  0.39184795179E+03  0.41985997252E+03  0.12500000000E+03 0.  0.
</event>
<event>
 5    0  0.5568866E-005  0.2528952E+03  0.7546771E-02  0.1111489E+00
         21   -1    0    0  502  501  0.00000000000E+00  0.00000000000E+00  0.77620923893E+02  0.77620923893E+02  0.00000000000E+00 0. -1.
         21   -1    0    0  501  502 -0.00000000000E+00 -0.00000000000E+00 -0.82395283210E+03  0.82395283210E+03  0.00000000000E+00 0. -1.
         25    1    1    2    0    0  0.42179900197E+02 -0.72196592832E+02 -0.37819680695E+03  0.40700038917E+03  0.12500000000E+03 0.  0.
         25    1    1    2    0    0 -0.17890058315E+02  0.73732883726E+02 -0.54466190962E+02  0.15603896400E+03  0.12500000000E+03 0.  0.
         25    1    1    2    0    0 -0.24289841881E+02 -0.15362908945E+01 -0.31366891030E+03  0.33853440282E+03  0.12500000000E+03 0.  0.
</event>
<event>
 5    0  0.5568866E-005  0.2921743E+03  0.7546771E-02  0.1089219E+00
         21   -1    0    0  502  501  0.00000000000E+00  0.00000000000E+00  0.19827796156E+03  0.19827796156E+03  0.00000000000E+00 0.  1.
         21   -1    0    0  501  502 -0.00000000000E+00 -0.00000000000E+00 -0.43053596699E+03  0.43053596699E+03  0.00000000000E+00 0.  1.
         25    1    1    2    0    0 -0.67573747767E+02 -0.81159175282E+02 -0.53093754917E+02  0.17203769916E+03  0.12500000000E+03 0.  0.
         25    1    1    2    0    0  0.19261011278E+03  0.79903079842E+02 -0.11139176599E+03  0.26742528535E+03  0.12500000000E+03 0.  0.
         25    1    1    2    0    0 -0.12503636501E+03  0.12560954397E+01 -0.67772484526E+02  0.18935094404E+03  0.12500000000E+03 0.  0.
</event>
<event>
 5    0  0.5568866E-005  0.4022094E+03  0.7546771E-02  0.1043017E+00
         21   -1    0    0  502  501  0.00000000000E+00  0.00000000000E+00  0.92273212351E+02  0.92273212351E+02  0.00000000000E+00 0.  1.
         21   -1    0    0  501  502 -0.00000000000E+00 -0.00000000000E+00 -0.17531888276E+04  0.17531888276E+04  0.00000000000E+00 0. -1.
         25    1    1    2    0    0  0.24457016616E+03 -0.12741989866E+03 -0.77092905746E+03  0.82825540046E+03  0.12500000000E+03 0.  0.
         25    1    1    2    0    0 -0.16299815377E+03  0.13633506137E+03 -0.81192373914E+03  0.84852861193E+03  0.12500000000E+03 0.  0.
         25    1    1    2    0    0 -0.81572012388E+02 -0.89151627095E+01 -0.78062818677E+02  0.16867802759E+03  0.12500000000E+03 0.  0.
</event>
<event>
 5    0  0.5568866E-005  0.3509537E+03  0.7546771E-02  0.1062224E+00
         21   -1    0    0  502  501  0.00000000000E+00  0.00000000000E+00  0.50495197249E+03  0.50495197249E+03  0.00000000000E+00 0.  1.
         21   -1    0    0  501  502 -0.00000000000E+00 -0.00000000000E+00 -0.24392122633E+03  0.24392122633E+03  0.00000000000E+00 0.  1.
         25    1    1    2    0    0  0.23386782480E+03 -0.12325486683E+03  0.76945195076E+02  0.30237639577E+03  0.12500000000E+03 0.  0.
         25    1    1    2    0    0 -0.19565214106E+03  0.13274902545E+03  0.16449896569E+03  0.31398562670E+03  0.12500000000E+03 0.  0.
         25    1    1    2    0    0 -0.38215683742E+02 -0.94941586263E+01  0.19586585390E+02  0.13251117636E+03  0.12500000000E+03 0.  0.
</event>
<event>
 5    0  0.5770214E-005  0.3857867E+03  0.7546771E-02  0.1048815E+00
         21   -1    0    0  502  501  0.00000000000E+00  0.00000000000E+00  0.11064052940E+04  0.11064052940E+04  0.00000000000E+00 0. -1.
         21   -1    0    0  501  502 -0.00000000000E+00 -0.00000000000E+00 -0.13451795861E+03  0.13451795861E+03  0.00000000000E+00 0. -1.
         25    1    1    2    0    0  0.71163489142E+02 -0.30530115713E+01  0.61121018947E+03  0.62791437218E+03  0.12500000000E+03 0.  0.
         25    1    1    2    0    0 -0.12885872785E+03 -0.17224602786E+03  0.28335928680E+03  0.37708188934E+03  0.12500000000E+03 0.  0.
         25    1    1    2    0    0  0.57695238703E+02  0.17529903943E+03  0.77317859144E+02  0.23592699112E+03  0.12500000000E+03 0.  0.
</event>
<event>
 5    0  0.5568866E-005  0.3489545E+03  0.7546771E-02  0.1063045E+00
         21   -1    0    0  502  501  0.00000000000E+00  0.00000000000E+00  0.30603371992E+03  0.30603371992E+03  0.00000000000E+00 0. -1.
         21   -1    0    0  501  502 -0.00000000000E+00 -0.00000000000E+00 -0.39789492086E+03  0.39789492086E+03  0.00000000000E+00 0. -1.
         25    1    1    2    0    0  0.74371217820E+02  0.10773250874E+03 -0.71716707666E+02  0.19469375346E+03  0.12500000000E+03 0.  0.
         25    1    1    2    0    0  0.13931595643E+03 -0.95419900256E+02 -0.12006943595E+03  0.24198256658E+03  0.12500000000E+03 0.  0.
         25    1    1    2    0    0 -0.21368717425E+03 -0.12312608480E+02  0.99924942686E+02  0.26725232073E+03  0.12500000000E+03 0.  0.
</event>
<event>
 5    0  0.5568866E-005  0.2759410E+03  0.7546771E-02  0.1097927E+00
         21   -1    0    0  502  501  0.00000000000E+00  0.00000000000E+00  0.15614899036E+03  0.15614899036E+03  0.00000000000E+00 0.  1.
         21   -1    0    0  501  502 -0.00000000000E+00 -0.00000000000E+00 -0.48763317654E+03  0.48763317654E+03  0.00000000000E+00 0.  1.
         25    1    1    2    0    0 -0.18060976173E+02 -0.52351993117E+02 -0.21098248550E+03  0.25140711850E+03  0.12500000000E+03 0.  0.
         25    1    1    2    0    0 -0.46691639438E+02 -0.62218723410E+02 -0.14804560340E+03  0.20879123406E+03  0.12500000000E+03 0.  0.
         25    1    1    2    0    0  0.64752615611E+02  0.11457071653E+03  0.27543902718E+02  0.18358381435E+03  0.12500000000E+03 0.  0.
</event>
<event>
 5    0  0.5568866E-005  0.3408152E+03  0.7546771E-02  0.1066449E+00
         21   -1    0    0  502  501  0.00000000000E+00  0.00000000000E+00  0.12044119425E+03  0.12044119425E+03  0.00000000000E+00 0.  1.
         21   -1    0    0  501  502 -0.00000000000E+00 -0.00000000000E+00 -0.96441231485E+03  0.96441231485E+03  0.00000000000E+00 0.  1.
         25    1    1    2    0    0  0.21041561455E+02 -0.16923935854E+03 -0.58929120947E+03  0.62607813997E+03  0.12500000000E+03 0.  0.
         25    1    1    2    0    0 -0.30239927306E+02  0.93512189403E+00 -0.20680895528E+03  0.24353700261E+03  0.12500000000E+03 0.  0.
         25    1    1    2    0    0  0.91983658507E+01  0.16830423665E+03 -0.47870955858E+02  0.21523836652E+03  0.12500000000E+03 0.  0.
</event>
<event>
 5    0  0.5568866E-005  0.2779351E+03  0.7546771E-02  0.1096822E+00
         21   -1    0    0  502  501  0.00000000000E+00  0.00000000000E+00  0.59354892838E+02  0.59354892838E+02  0.00000000000E+00 0.  1.
         21   -1    0    0  501  502 -0.00000000000E+00 -0.00000000000E+00 -0.13014583784E+04  0.13014583784E+04  0.00000000000E+00 0.  1.
         25    1    1    2    0    0  0.12935476679E+02  0.11653765006E+03 -0.40540992964E+03  0.44014834033E+03  0.12500000000E+03 0.  0.
         25    1    1    2    0    0 -0.51762507352E+02 -0.38233443647E+01 -0.11202641018E+03  0.17569545158E+03  0.12500000000E+03 0.  0.
         25    1    1    2    0    0  0.38827030672E+02 -0.11271430569E+03 -0.72466714576E+03  0.74496947935E+03  0.12500000000E+03 0.  0.
</event>
<event>
 5    0  0.5568866E-005  0.3769461E+03  0.7546771E-02  0.1052068E+00
         21   -1    0    0  502  501  0.00000000000E+00  0.00000000000E+00  0.74710923998E+03  0.74710923998E+03  0.00000000000E+00 0.  1.
         21   -1    0    0  501  502 -0.00000000000E+00 -0.00000000000E+00 -0.19018417699E+03  0.19018417699E+03  0.00000000000E+00 0. -1.
         25    1    1    2    0    0  0.50328067000E+02  0.37887215691E+02  0.21652232077E+03  0.25782798691E+03  0.12500000000E+03 0.  0.
         25    1    1    2    0    0 -0.10595336769E+03  0.17944763032E+03  0.34573767045E+03  0.42259567546E+03  0.12500000000E+03 0.  0.
         25    1    1    2    0    0  0.55625300688E+02 -0.21733484601E+03 -0.53349282339E+01  0.25686975460E+03  0.12500000000E+03 0.  0.
</event>
<event>
 5    0  0.5568866E-005  0.2425460E+03  0.7546771E-02  0.1118108E+00
         21   -1    0    0  502  501  0.00000000000E+00  0.00000000000E+00  0.83249618851E+02  0.83249618851E+02  0.00000000000E+00 0.  1.
         21   -1    0    0  501  502 -0.00000000000E+00 -0.00000000000E+00 -0.70665239520E+03  0.70665239520E+03  0.00000000000E+00 0.  1.
         25    1    1    2    0    0 -0.69817174828E+01  0.33055614765E+02 -0.70812060456E+02  0.14758308153E+03  0.12500000000E+03 0.  0.
         25    1    1    2    0    0  0.48328196972E+02  0.71034261464E+02 -0.33313355172E+03  0.36603885614E+03  0.12500000000E+03 0.  0.
         25    1    1    2    0    0 -0.41346479489E+02 -0.10408987623E+03 -0.21945716417E+03  0.27628007638E+03  0.12500000000E+03 0.  0.
</event>
<event>
 5    0  0.5568866E-005  0.3313311E+03  0.7546771E-02  0.1070549E+00
         21   -1    0    0  502  501  0.00000000000E+00  0.00000000000E+00  0.36632420914E+03  0.36632420914E+03  0.00000000000E+00 0.  1.
         21   -1    0    0  501  502 -0.00000000000E+00 -0.00000000000E+00 -0.29968070880E+03  0.29968070880E+03  0.00000000000E+00 0.  1.
         25    1    1    2    0    0 -0.12958762628E+03 -0.84872044130E+02 -0.94883032567E+02  0.22050851827E+03  0.12500000000E+03 0.  0.
         25    1    1    2    0    0  0.63986283724E+02  0.47480830564E+02 -0.76065183300E+02  0.16661208205E+03  0.12500000000E+03 0.  0.
         25    1    1    2    0    0  0.65601342561E+02  0.37391213566E+02  0.23759171621E+03  0.27888431761E+03  0.12500000000E+03 0.  0.
</event>
<event>
 5    0  0.5568866E-005  0.3243240E+03  0.7546771E-02  0.1073676E+00
         21   -1    0    0  502  501  0.00000000000E+00  0.00000000000E+00  0.81498422515E+03  0.81498422515E+03  0.00000000000E+00 0. -1.
         21   -1    0    0  501  502 -0.00000000000E+00 -0.00000000000E+00 -0.12906513474E+03  0.12906513474E+03  0.00000000000E+00 0. -1.
         25    1    1    2    0    0  0.55191577758E+01 -0.17730884819E+03  0.29049104637E+03  0.36260024376E+03  0.12500000000E+03 0.  0.
         25    1    1    2    0    0 -0.75909925652E+02 -0.29097622000E+02  0.24987975461E+03  0.29098776638E+03  0.12500000000E+03 0.  0.
         25    1    1    2    0    0  0.70390767877E+02  0.20640647019E+03  0.14554828943E+03  0.29046134975E+03  0.12500000000E+03 0.  0.
</event>
<event>
 5    0  0.5568866E-005  0.2652389E+03  0.7546771E-02  0.1104036E+00
         21   -1    0    0  502  501  0.00000000000E+00  0.00000000000E+00  0.58362049758E+03  0.58362049758E+03  0.00000000000E+00 0. -1.
         21   -1    0    0  501  502 -0.00000000000E+00 -0.00000000000E+00 -0.12054355141E+03  0.12054355141E+03  0.00000000000E+00 0. -1.
         25    1    1    2    0    0 -0.67827137644E+02 -0.75201546905E+02  0.21540946124E+03  0.26885317415E+03  0.12500000000E+03 0.  0.
         25    1    1    2    0    0 -0.68373014203E+02  0.83258689046E+02  0.71583419831E+02  0.17987791517E+03  0.12500000000E+03 0.  0.
         25    1    1    2    0    0  0.13620015185E+03 -0.80571421408E+01  0.17608406510E+03  0.25543295967E+03  0.12500000000E+03 0.  0.
</event>
<event>
 5    0  0.5568866E-005  0.3152149E+03  0.7546771E-02  0.1077873E+00
         21   -1    0    0  502  501  0.00000000000E+00  0.00000000000E+00  0.14815262531E+03  0.14815262531E+03  0.00000000000E+00 0.  1.
         21   -1    0    0  501  502 -0.00000000000E+00 -0.00000000000E+00 -0.67066267401E+03  0.67066267401E+03  0.00000000000E+00 0. -1.
         25    1    1    2    0    0  0.13926143505E+02  0.54239406352E+02 -0.18937084234E+01  0.13698334499E+03  0.12500000000E+03 0.  0.
         25    1    1    2    0    0 -0.17178536574E+03 -0.52190397845E+02 -0.16824106984E+03  0.27597845404E+03  0.12500000000E+03 0.  0.
         25    1    1    2    0    0  0.15785922224E+03 -0.20490085075E+01 -0.35237527044E+03  0.40585350029E+03  0.12500000000E+03 0.  0.
</event>
<event>
 5    0  0.5568866E-005  0.2808171E+03  0.7546771E-02  0.1095243E+00
         21   -1    0    0  502  501  0.00000000000E+00  0.00000000000E+00  0.13583028224E+03  0.13583028224E+03  0.00000000000E+00 0.  1.
         21   -1    0    0  501  502 -0.00000000000E+00 -0.00000000000E+00 -0.58056467325E+03  0.58056467325E+03  0.00000000000E+00 0.  1.
         25    1    1    2    0    0  0.96955595362E+02  0.13002659416E+03 -0.91908655024E+02  0.22445378930E+03  0.12500000000E+03 0.  0.
         25    1    1    2    0    0 -0.39813713207E+02 -0.11793412371E+03 -0.29201543843E+03  0.34116213971E+03  0.12500000000E+03 0.  0.
         25    1    1    2    0    0 -0.57141882155E+02 -0.12092470453E+02 -0.60810297556E+02  0.15077902648E+03  0.12500000000E+03 0.  0.
</event>
<event>
 5    0  0.5568866E-005  0.4066578E+03  0.7546771E-02  0.1041498E+00
         21   -1    0    0  502  501  0.00000000000E+00  0.00000000000E+00  0.35790826644E+03  0.35790826644E+03  0.00000000000E+00 0.  1.
         21   -1    0    0  501  502 -0.00000000000E+00 -0.00000000000E+00 -0.46204723931E+03  0.46204723931E+03  0.00000000000E+00 0.  1.
         25    1    1    2    0    0  0.28983703094E+02 -0.23910001260E+03 -0.72701078472E+02  0.28092582273E+03  0.12500000000E+03 0.  0.
         25    1    1    2    0    0  0.19142792880E+03  0.11721331364E+03 -0.13378124722E+02  0.25726948331E+03  0.12500000000E+03 0.  0.
         25    1    1    2    0    0 -0.22041163190E+03  0.12188669896E+03 -0.18059769677E+02  0.28176019971E+03  0.12500000000E+03 0.  0.
</event>
<event>
 5    0  0.5568866E-005  0.2445823E+03  0.7546771E-02  0.1116777E+00
         21   -1    0    0  502  501  0.00000000000E+00  0.00000000000E+00  0.60888030633E+03  0.60888030633E+03  0.00000000000E+00 0.  1.
         21   -1    0    0  501  502 -0.00000000000E+00 -0.00000000000E+00 -0.98246706588E+02  0.98246706588E+02  0.00000000000E+00 0.  1.
         25    1    1    2    0    0 -0.76697942387E-01  0.47330327532E+02  0.81612562466E+02  0.15660707564E+03  0.12500000000E+03 0.  0.
         25    1    1    2    0    0 -0.61410745687E+02 -0.11316679655E+03  0.15961902643E+03  0.24016918438E+03  0.12500000000E+03 0.  0.
         25    1    1    2    0    0  0.61487443629E+02  0.65836469023E+02  0.26940201085E+03  0.31035075290E+03  0.12500000000E+03 0.  0.
</event>
<event>
 5    0  0.5568866E-005  0.5363725E+03  0.7546771E-02  0.1004698E+00
         21   -1    0    0  502  501  0.00000000000E+00  0.00000000000E+00  0.30761414005E+03  0.30761414005E+03  0.00000000000E+00 0. -1.
         21   -1    0    0  501  502 -0.00000000000E+00 -0.00000000000E+00 -0.93524798547E+03  0.93524798547E+03  0.00000000000E+00 0. -1.
         25    1    1    2    0    0 -0.20878962328E+03 -0.38187415304E+03 -0.15091051057E+03  0.47730488973E+03  0.12500000000E+03 0.  0.
         25    1    1    2    0    0  0.64582516202E+02  0.10196039018E+03 -0.37262108789E+03  0.41114267317E+03  0.12500000000E+03 0.  0.
         25    1    1    2    0    0  0.14420710708E+03  0.27991376286E+03 -0.10410224695E+03  0.35441456262E+03  0.12500000000E+03 0.  0.
</event>
<event>
 5    0  0.5936005E-005  0.9287902E+03  0.7546771E-02  0.9390291E-01
         21   -1    0    0  502  501  0.00000000000E+00  0.00000000000E+00  0.59212855231E+03  0.59212855231E+03  0.00000000000E+00 0. -1.
         21   -1    0    0  501  502 -0.00000000000E+00 -0.00000000000E+00 -0.14568649226E+04  0.14568649226E+04  0.00000000000E+00 0. -1.
         25    1    1    2    0    0 -0.27186559025E+03  0.53534984969E+03 -0.15562611284E+03  0.63273600160E+03  0.12500000000E+03 0.  0.
         25    1    1    2    0    0  0.65988635406E+03 -0.38717863314E+03 -0.33919099168E+03  0.84618722696E+03  0.12500000000E+03 0.  0.
         25    1    1    2    0    0 -0.38802076382E+03 -0.14817121655E+03 -0.36991926572E+03  0.57007024630E+03  0.12500000000E+03 0.  0.
</event>
<event>
 5    0  0.5568866E-005  0.4219183E+03  0.7546771E-02  0.1036444E+00
         21   -1    0    0  502  501  0.00000000000E+00  0.00000000000E+00  0.47934187170E+03  0.47934187170E+03  0.00000000000E+00 0. -1.
         21   -1    0    0  501  502 -0.00000000000E+00 -0.00000000000E+00 -0.37137391895E+03  0.37137391895E+03  0.00000000000E+00 0. -1.
         25    1    1    2    0    0 -0.27449768207E+03  0.96996786719E+02 -0.10210284579E+03  0.33287737264E+03  0.12500000000E+03 0.  0.
         25    1    1    2    0    0  0.30808532360E+03 -0.59150896985E+02  0.13670195261E+03  0.36431829364E+03  0.12500000000E+03 0.  0.
         25    1    1    2    0    0 -0.33587641535E+02 -0.37845889735E+02  0.73368845942E+02  0.15352012438E+03  0.12500000000E+03 0.  0.
</event>
<event>
 5    0  0.5568866E-005  0.2921650E+03  0.7546771E-02  0.1089224E+00
         21   -1    0    0  502  501  0.00000000000E+00  0.00000000000E+00  0.33253875933E+03  0.33253875933E+03  0.00000000000E+00 0. -1.
         21   -1    0    0  501  502 -0.00000000000E+00 -0.00000000000E+00 -0.25669312900E+03  0.25669312900E+03  0.00000000000E+00 0. -1.
         25    1    1    2    0    0  0.11084194258E+02 -0.44510657606E+02 -0.35800348754E+02  0.13787937835E+03  0.12500000000E+03 0.  0.
         25    1    1    2    0    0 -0.89144473367E+02 -0.28285934036E+02  0.20857625048E+03  0.26053000491E+03  0.12500000000E+03 0.  0.
         25    1    1    2    0    0  0.78060279110E+02  0.72796591642E+02 -0.96930271395E+02  0.19082250507E+03  0.12500000000E+03 0.  0.
</event>
<event>
 5    0  0.5568866E-005  0.3128121E+03  0.7546771E-02  0.1079006E+00
         21   -1    0    0  502  501  0.00000000000E+00  0.00000000000E+00  0.18298257598E+04  0.18298257598E+04  0.00000000000E+00 0. -1.
         21   -1    0    0  501  502 -0.00000000000E+00 -0.00000000000E+00 -0.53475815171E+02  0.53475815171E+02  0.00000000000E+00 0. -1.
         25    1    1    2    0    0 -0.41247119355E+02 -0.39956406131E+02  0.10470225311E+03  0.17287394555E+03  0.12500000000E+03 0.  0.
         25    1    1    2    0    0 -0.53169107906E+02  0.11314255945E+03  0.10669169051E+04  0.10814642274E+04  0.12500000000E+03 0.  0.
         25    1    1    2    0    0  0.94416227260E+02 -0.73186153318E+02  0.60473078643E+03  0.62896340201E+03  0.12500000000E+03 0.  0.
</event>
<event>
 5    0  0.5568866E-005  0.3491072E+03  0.7546771E-02  0.1062982E+00
         21   -1    0    0  502  501  0.00000000000E+00  0.00000000000E+00  0.14937783885E+03  0.14937783885E+03  0.00000000000E+00 0. -1.
         21   -1    0    0  501  502 -0.00000000000E+00 -0.00000000000E+00 -0.81588965250E+03  0.81588965250E+03  0.00000000000E+00 0. -1.
         25    1    1    2    0    0 -0.24567757748E+03 -0.60793975929E+02 -0.16636955240E+03  0.32765409741E+03  0.12500000000E+03 0.  0.
         25    1    1    2    0    0  0.22740340547E+03  0.52908687012E+02 -0.37937288024E+03  0.46266664051E+03  0.12500000000E+03 0.  0.
         25    1    1    2    0    0  0.18274172008E+02  0.78852889173E+01 -0.12076938101E+03  0.17494675342E+03  0.12500000000E+03 0.  0.
</event>
<event>
 5    0  0.5568866E-005  0.4387939E+03  0.7546771E-02  0.1031118E+00
         21   -1    0    0  502  501  0.00000000000E+00  0.00000000000E+00  0.39341978997E+03  0.39341978997E+03  0.00000000000E+00 0. -1.
         21   -1    0    0  501  502 -0.00000000000E+00 -0.00000000000E+00 -0.48940106507E+03  0.48940106507E+03  0.00000000000E+00 0. -1.
         25    1    1    2    0    0  0.10921115021E+03 -0.39632148762E+01  0.14209044659E+02  0.16664236962E+03  0.12500000000E+03 0.  0.
         25    1    1    2    0    0 -0.18001327787E+03  0.30381108200E+03 -0.72558081219E+02  0.38156995283E+03  0.12500000000E+03 0.  0.
         25    1    1    2    0    0  0.70802127659E+02 -0.29984786712E+03 -0.37632238542E+02  0.33460853258E+03  0.12500000000E+03 0.  0.
</event>
<event>
 5    0  0.5568866E-005  0.2824124E+03  0.7546771E-02  0.1094379E+00
         21   -1    0    0  502  501  0.00000000000E+00  0.00000000000E+00  0.43202638228E+02  0.43202638228E+02  0.00000000000E+00 0. -1.
         21   -1    0    0  501  502 -0.00000000000E+00 -0.00000000000E+00 -0.18461084119E+04  0.18461084119E+04  0.00000000000E+00 0. -1.
         25    1    1    2    0    0 -0.43500025436E+02 -0.41359913956E+02 -0.96499265729E+03  0.97490446882E+03  0.12500000000E+03 0.  0.
         25    1    1    2    0    0 -0.70830463282E+02 -0.38873596014E+02 -0.55815872147E+03  0.57766276438E+03  0.12500000000E+03 0.  0.
         25    1    1    2    0    0  0.11433048872E+03  0.80233509970E+02 -0.27975439494E+03  0.33674381696E+03  0.12500000000E+03 0.  0.
</event>
<event>
 5    0  0.5568866E-005  0.2579439E+03  0.7546771E-02  0.1108385E+00
         21   -1    0    0  502  501  0.00000000000E+00  0.00000000000E+00  0.18156325234E+03  0.18156325234E+03  0.00000000000E+00 0.  1.
         21   -1    0    0  501  502 -0.00000000000E+00 -0.00000000000E+00 -0.36645656356E+03  0.36645656356E+03  0.00000000000E+00 0.  1.
         25    1    1    2    0    0  0.12305528989E+02  0.52234008112E+02  0.21699192703E+02  0.13775221454E+03  0.12500000000E+03 0.  0.
         25    1    1    2    0    0  0.10008296876E+03 -0.49277768427E+02 -0.37227603416E+02  0.17162690218E+03  0.12500000000E+03 0.  0.
         25    1    1    2    0    0 -0.11238849775E+03 -0.29562396850E+01 -0.16936490051E+03  0.23864069917E+03  0.12500000000E+03 0.  0.
</event>
<event>
 5    0  0.5568866E-005  0.2421673E+03  0.7546771E-02  0.1118357E+00
         21   -1    0    0  502  501  0.00000000000E+00  0.00000000000E+00  0.65990033067E+02  0.65990033067E+02  0.00000000000E+00 0. -1.
         21   -1    0    0  501  502 -0.00000000000E+00 -0.00000000000E+00 -0.88869448828E+03  0.88869448828E+03  0.00000000000E+00 0. -1.
         25    1    1    2    0    0 -0.30221889906E+02 -0.90599947264E+01 -0.11315928312E+03  0.17153853646E+03  0.12500000000E+03 0.  0.
         25    1    1    2    0    0  0.43646202939E+02  0.72569919121E+02 -0.17875909758E+03  0.23398974157E+03  0.12500000000E+03 0.  0.
         25    1    1    2    0    0 -0.13424313032E+02 -0.63509924394E+02 -0.53078607453E+03  0.54915624333E+03  0.12500000000E+03 0.  0.
</event>
<event>
 5    0  0.5568866E-005  0.2051656E+03  0.7546771E-02  0.1145453E+00
         21   -1    0    0  502  501  0.00000000000E+00  0.00000000000E+00  0.54756364919E+02  0.54756364919E+02  0.00000000000E+00 0. -1.
         21   -1    0    0  501  502 -0.00000000000E+00 -0.00000000000E+00 -0.76873142297E+03  0.76873142297E+03  0.00000000000E+00 0. -1.
         25    1    1    2    0    0  0.38068614234E+02 -0.44618840431E+01 -0.22886186841E+03  0.26357519347E+03  0.12500000000E+03 0.  0.
         25    1    1    2    0    0 -0.50219046466E+02 -0.48277109111E+02 -0.23620836349E+03  0.27617389970E+03  0.12500000000E+03 0.  0.
         25    1    1    2    0    0  0.12150432232E+02  0.52738993154E+02 -0.24890482616E+03  0.28373869473E+03  0.12500000000E+03 0.  0.
</event>
<event>
 5    0  0.5568866E-005  0.2667259E+03  0.7546771E-02  0.1103168E+00
         21   -1    0    0  502  501  0.00000000000E+00  0.00000000000E+00  0.21810398027E+03  0.21810398027E+03  0.00000000000E+00 0. -1.
         21   -1    0    0  501  502 -0.00000000000E+00 -0.00000000000E+00 -0.32618698221E+03  0.32618698221E+03  0.00000000000E+00 0. -1.
         25    1    1    2    0    0 -0.95286528908E+02 -0.39290218328E+02 -0.14662310509E+02  0.16267521998E+03  0.12500000000E+03 0.  0.
         25    1    1    2    0    0  0.53934988721E+02 -0.57796122098E+02  0.57846417614E+02  0.15880989506E+03  0.12500000000E+03 0.  0.
         25    1    1    2    0    0  0.41351540187E+02  0.97086340426E+02 -0.15126710904E+03  0.22280584743E+03  0.12500000000E+03 0.  0.
</event>
<event>
 5    0  0.5568866E-005  0.2778041E+03  0.7546771E-02  0.1096894E+00
         21   -1    0    0  502  501  0.00000000000E+00  0.00000000000E+00  0.19028425006E+03  0.19028425006E+03  0.00000000000E+00 0. -1.
         21   -1    0    0  501  502 -0.00000000000E+00 -0.00000000000E+00 -0.40557803044E+03  0.40557803044E+03  0.00000000000E+00 0. -1.
         25    1    1    2    0    0 -0.78257062942E+02  0.13376244739E+03 -0.18553741038E+03  0.27215012564E+03  0.12500000000E+03 0.  0.
         25    1    1    2    0    0  0.60015228363E+02 -0.10907385279E+03  0.34639286072E+02  0.17978824527E+03  0.12500000000E+03 0.  0.
         25    1    1    2    0    0  0.18241834579E+02 -0.24688594608E+02 -0.64395656066E+02  0.14392390959E+03  0.12500000000E+03 0.  0.
</event>
<event>
 5    0  0.5568866E-005  0.2460107E+03  0.7546771E-02  0.1115852E+00
         21   -1    0    0  502  501  0.00000000000E+00  0.00000000000E+00  0.68643087256E+03  0.68643087256E+03  0.00000000000E+00 0. -1.
         21   -1    0    0  501  502 -0.00000000000E+00 -0.00000000000E+00 -0.88168034150E+02  0.88168034150E+02  0.00000000000E+00 0. -1.
         25    1    1    2    0    0 -0.10912415135E+03 -0.70716803188E+02  0.17980283289E+03  0.25468216540E+03  0.12500000000E+03 0.  0.
         25    1    1    2    0    0  0.56653426686E+02  0.31427790934E+01  0.10868658562E+03  0.17509215205E+03  0.12500000000E+03 0.  0.
         25    1    1    2    0    0  0.52470724661E+02  0.67574024094E+02  0.30977341990E+03  0.34482458925E+03  0.12500000000E+03 0.  0.
</event>
<event>
 5    0  0.5568866E-005  0.2592399E+03  0.7546771E-02  0.1107601E+00
         21   -1    0    0  502  501  0.00000000000E+00  0.00000000000E+00  0.34808724762E+03  0.34808724762E+03  0.00000000000E+00 0. -1.
         21   -1    0    0  501  502 -0.00000000000E+00 -0.00000000000E+00 -0.19307029860E+03  0.19307029860E+03  0.00000000000E+00 0. -1.
         25    1    1    2    0    0  0.25306113077E+02 -0.38916495238E+02  0.14582889322E+03  0.19760050369E+03  0.12500000000E+03 0.  0.
         25    1    1    2    0    0  0.69849256823E+01 -0.94696670649E+02  0.14838252654E+02  0.15767505307E+03  0.12500000000E+03 0.  0.
         25    1    1    2    0    0 -0.32291038759E+02  0.13361316589E+03 -0.56501968538E+01  0.18588198946E+03  0.12500000000E+03 0.  0.
</event>
<event>
 5    0  0.5568866E-005  0.2504692E+03  0.7546771E-02  0.1113009E+00
         21   -1    0    0  502  501  0.00000000000E+00  0.00000000000E+00  0.60059279151E+03  0.60059279151E+03  0.00000000000E+00 0. -1.
         21   -1    0    0  501  502 -0.00000000000E+00 -0.00000000000E+00 -0.10445479374E+03  0.10445479374E+03  0.00000000000E+00 0. -1.
         25    1    1    2    0    0 -0.56221022547E+01  0.10888917866E+03  0.24484177050E+03  0.29573798174E+03  0.12500000000E+03 0.  0.
         25    1    1    2    0    0 -0.49197999056E+01 -0.56514324689E+02  0.23532631946E+03  0.27243632276E+03  0.12500000000E+03 0.  0.
         25    1    1    2    0    0  0.10541902160E+02 -0.52374853972E+02  0.15969907804E+02  0.13687328076E+03  0.12500000000E+03 0.  0.
</event>
<event>
 5    0  0.5568866E-005  0.3124715E+03  0.7546771E-02  0.1079167E+00
         21   -1    0    0  502  501  0.00000000000E+00  0.00000000000E+00  0.34153776191E+04  0.34153776191E+04  0.00000000000E+00 0.  1.
         21   -1    0    0  501  502 -0.00000000000E+00 -0.00000000000E+00 -0.28587883288E+02  0.28587883288E+02  0.00000000000E+00 0.  1.
         25    1    1    2    0    0  0.14810601508E+03 -0.32828588053E+02  0.16274213693E+04  0.16392493468E+04  0.12500000000E+03 0.  0.
         25    1    1    2    0    0 -0.21289961912E+03 -0.23643686858E+02  0.11830679700E+04  0.12087845521E+04  0.12500000000E+03 0.  0.
         25    1    1    2    0    0  0.64793604046E+02  0.56472274911E+02  0.57630039656E+03  0.59593160349E+03  0.12500000000E+03 0.  0.
</event>
<event>
 5    0  0.5568866E-005  0.4147974E+03  0.7546771E-02  0.1038773E+00
         21   -1    0    0  502  501  0.00000000000E+00  0.00000000000E+00  0.33567713541E+03  0.33567713541E+03  0.00000000000E+00 0.  1.
         21   -1    0    0  501  502 -0.00000000000E+00 -0.00000000000E+00 -0.51256659024E+03  0.51256659024E+03  0.00000000000E+00 0.  1.
         25    1    1    2    0    0 -0.74847067576E+02  0.25686670164E+03  0.78211580500E+01  0.29541285762E+03  0.12500000000E+03 0.  0.
         25    1    1    2    0    0 -0.56376181051E+02 -0.25122344838E+03 -0.22857419705E+03  0.36628221137E+03  0.12500000000E+03 0.  0.
         25    1    1    2    0    0  0.13122324863E+03 -0.56432532539E+01  0.43863584171E+02  0.18654865667E+03  0.12500000000E+03 0.  0.
</event>
<event>
 5    0  0.5611513E-005  0.4004534E+03  0.7546771E-02  0.1043623E+00
         21   -1    0    0  502  501  0.00000000000E+00  0.00000000000E+00  0.45551621024E+03  0.45551621024E+03  0.00000000000E+00 0. -1.
         21   -1    0    0  501  502 -0.00000000000E+00 -0.00000000000E+00 -0.35204659551E+03  0.35204659551E+03  0.00000000000E+00 0. -1.
         25    1    1    2    0    0  0.20387992084E+02 -0.29836012391E+02  0.17591576110E+03  0.21880862154E+03  0.12500000000E+03 0.  0.
         25    1    1    2    0    0  0.96437433391E+01  0.24212263048E+03  0.95716564899E+02  0.28896890970E+03  0.12500000000E+03 0.  0.
         25    1    1    2    0    0 -0.30031735423E+02 -0.21228661809E+03 -0.16816271126E+03  0.29978527451E+03  0.12500000000E+03 0.  0.
</event>
<event>
 5    0  0.5568866E-005  0.3917602E+03  0.7546771E-02  0.1046671E+00
         21   -1    0    0  502  501  0.00000000000E+00  0.00000000000E+00  0.37620319557E+03  0.37620319557E+03  0.00000000000E+00 0.  1.
         21   -1    0    0  501  502 -0.00000000000E+00 -0.00000000000E+00 -0.40796051387E+03  0.40796051387E+03  0.00000000000E+00 0.  1.
         25    1    1    2    0    0  0.21588185985E+03 -0.16046708793E+03 -0.25401318432E+02  0.29769932936E+03  0.12500000000E+03 0.  0.
         25    1    1    2    0    0 -0.24942121723E+02  0.20696809161E+03 -0.53371218185E+02  0.24886017623E+03  0.12500000000E+03 0.  0.
         25    1    1    2    0    0 -0.19093973813E+03 -0.46501003682E+02  0.47015218314E+02  0.23760420386E+03  0.12500000000E+03 0.  0.
</event>
<event>
 5    0  0.5568866E-005  0.5022804E+03  0.7546771E-02  0.1013185E+00
         21   -1    0    0  502  501  0.00000000000E+00  0.00000000000E+00  0.43811164927E+03  0.43811164927E+03  0.00000000000E+00 0.  1.
         21   -1    0    0  501  502 -0.00000000000E+00 -0.00000000000E+00 -0.57584784570E+03  0.57584784570E+03  0.00000000000E+00 0.  1.
         25    1    1    2    0    0  0.29117649666E+03  0.39808374876E+01 -0.39921197882E+03  0.50970069973E+03  0.12500000000E+03 0.  0.
         25    1    1    2    0    0 -0.11840354965E+03  0.10824229254E+02  0.80292887156E+01  0.17270215397E+03  0.12500000000E+03 0.  0.
         25    1    1    2    0    0 -0.17277294701E+03 -0.14805066741E+02  0.25344649367E+03  0.33155664128E+03  0.12500000000E+03 0.  0.
</event>
<event>
 5    0  0.5568866E-005  0.4336367E+03  0.7546771E-02  0.1032717E+00
         21   -1    0    0  502  501  0.00000000000E+00  0.00000000000E+00  0.33012341042E+03  0.33012341042E+03  0.00000000000E+00 0. -1.
         21   -1    0    0  501  502 -0.00000000000E+00 -0.00000000000E+00 -0.56960748892E+03  0.56960748892E+03  0.00000000000E+00 0. -1.
         25    1    1    2    0    0  0.35470556851E+02 -0.12284012834E+03  0.25057114834E+02  0.18055668511E+03  0.12500000000E+03 0.  0.
         25    1    1    2    0    0  0.19282217814E+03  0.26538325738E+03 -0.53658209338E+02  0.35512373775E+03  0.12500000000E+03 0.  0.
         25    1    1    2    0    0 -0.22829273499E+03 -0.14254312904E+03 -0.21088298400E+03  0.36405047648E+03  0.12500000000E+03 0.  0.
</event>
<event>
 5    0  0.5568866E-005  0.2828738E+03  0.7546771E-02  0.1094130E+00
         21   -1    0    0  502  501  0.00000000000E+00  0.00000000000E+00  0.23333041756E+04  0.23333041756E+04  0.00000000000E+00 0.  1.
         21   -1    0    0  501  502 -0.00000000000E+00 -0.00000000000E+00 -0.34293679607E+02  0.34293679607E+02  0.00000000000E+00 0.  1.
         25    1    1    2    0    0 -0.17159719789E+01  0.62406832979E+02  0.62505374525E+03  0.64048008698E+03  0.12500000000E+03 0.  0.
         25    1    1    2    0    0 -0.64578521976E+02 -0.12698685892E+03  0.13942809937E+04  0.14071035986E+04  0.12500000000E+03 0.  0.
         25    1    1    2    0    0  0.66294493954E+02  0.64580025938E+02  0.27967575705E+03  0.32001416963E+03  0.12500000000E+03 0.  0.
</event>
<event>
 5    0  0.5751397E-005  0.3224136E+03  0.7546771E-02  0.1074544E+00
         21   -1    0    0  502  501  0.00000000000E+00  0.00000000000E+00  0.39776915954E+03  0.39776915954E+03  0.00000000000E+00 0.  1.
         21   -1    0    0  501  502 -0.00000000000E+00 -0.00000000000E+00 -0.26133379255E+03  0.26133379255E+03  0.00000000000E+00 0.  1.
         25    1    1    2    0    0 -0.63542170600E+02  0.10526879193E+03 -0.13152375455E+03  0.21918627696E+03  0.12500000000E+03 0.  0.
         25    1    1    2    0    0 -0.64109527866E+02 -0.81390500264E+02  0.16873723498E+03  0.23416169534E+03  0.12500000000E+03 0.  0.
         25    1    1    2    0    0  0.12765169847E+03 -0.23878291664E+02  0.99221886557E+02  0.20575497978E+03  0.12500000000E+03 0.  0.
</event>
<event>
 5    0  0.5568866E-005  0.3281206E+03  0.7546771E-02  0.1071971E+00
         21   -1    0    0  502  501  0.00000000000E+00  0.00000000000E+00  0.85989264420E+02  0.85989264420E+02  0.00000000000E+00 0.  1.
         21   -1    0    0  501  502 -0.00000000000E+00 -0.00000000000E+00 -0.12520530672E+04  0.12520530672E+04  0.00000000000E+00 0.  1.
         25    1    1    2    0    0 -0.29339802410E+02  0.57024956775E+02 -0.57285003049E+03  0.58982609906E+03  0.12500000000E+03 0.  0.
         25    1    1    2    0    0 -0.39932372897E+02 -0.86812103148E+02 -0.22274106938E+02  0.15890900383E+03  0.12500000000E+03 0.  0.
         25    1    1    2    0    0  0.69272175307E+02  0.29787146373E+02 -0.57093966535E+03  0.58930722873E+03  0.12500000000E+03 0.  0.
</event>
<event>
 5    0  0.5568866E-005  0.3668206E+03  0.7546771E-02  0.1055915E+00
         21   -1    0    0  502  501  0.00000000000E+00  0.00000000000E+00  0.41749953544E+03  0.41749953544E+03  0.00000000000E+00 0. -1.
         21   -1    0    0  501  502 -0.00000000000E+00 -0.00000000000E+00 -0.32229339462E+03  0.32229339462E+03  0.00000000000E+00 0.  1.
         25    1    1    2    0    0 -0.23124310149E+03  0.73186055091E+02 -0.68390425884E+00  0.27286450552E+03  0.12500000000E+03 0.  0.
         25    1    1    2    0    0 -0.35523895514E+02  0.42076596431E+02  0.78203162327E+00  0.13659428499E+03  0.12500000000E+03 0.  0.
         25    1    1    2    0    0  0.26676699701E+03 -0.11526265152E+03  0.95108013449E+02  0.33033413955E+03  0.12500000000E+03 0.  0.
</event>
<event>
 5    0  0.5568866E-005  0.3825222E+03  0.7546771E-02  0.1050005E+00
         21   -1    0    0  502  501  0.00000000000E+00  0.00000000000E+00  0.31826099888E+03  0.31826099888E+03  0.00000000000E+00 0.  1.
         21   -1    0    0  501  502 -0.00000000000E+00 -0.00000000000E+00 -0.45975858104E+03  0.45975858104E+03  0.00000000000E+00 0.  1.
         25    1    1    2    0    0  0.11174068687E+03 -0.86423293815E+02 -0.11637492101E+03  0.22163729166E+03  0.12500000000E+03 0.  0.
         25    1    1    2    0    0 -0.79752862547E+02 -0.14464373822E+03 -0.15773915529E+03  0.26036315254E+03  0.12500000000E+03 0.  0.
         25    1    1    2    0    0 -0.31987824319E+02  0.23106703203E+03  0.13261649413E+03  0.29601913572E+03  0.12500000000E+03 0.  0.
</event>
<event>
 5    0  0.5759550E-005  0.3907419E+03  0.7546771E-02  0.1047033E+00
         21   -1    0    0  502  501  0.00000000000E+00  0.00000000000E+00  0.44615540084E+03  0.44615540084E+03  0.00000000000E+00 0. -1.
         21   -1    0    0  501  502 -0.00000000000E+00 -0.00000000000E+00 -0.34221079628E+03  0.34221079628E+03  0.00000000000E+00 0. -1.
         25    1    1    2    0    0  0.27467946008E+02 -0.79420759621E+02 -0.13297373057E+03  0.20092077577E+03  0.12500000000E+03 0.  0.
         25    1    1    2    0    0 -0.17516194335E+03  0.21050899053E+03  0.16294235711E+03  0.34230242948E+03  0.12500000000E+03 0.  0.
         25    1    1    2    0    0  0.14769399734E+03 -0.13108823091E+03  0.73975978022E+02  0.24514299186E+03  0.12500000000E+03 0.  0.
</event>
<event>
 5    0  0.5568866E-005  0.2658363E+03  0.7546771E-02  0.1103687E+00
         21   -1    0    0  502  501  0.00000000000E+00  0.00000000000E+00  0.75535043963E+02  0.75535043963E+02  0.00000000000E+00 0.  1.
         21   -1    0    0  501  502 -0.00000000000E+00 -0.00000000000E+00 -0.93557818432E+03  0.93557818432E+03  0.00000000000E+00 0.  1.
         25    1    1    2    0    0 -0.15034145726E+03 -0.30994018163E+02 -0.27388584435E+03  0.33793732950E+03  0.12500000000E+03 0.  0.
         25    1    1    2    0    0  0.16331623939E+02  0.61312716091E+01 -0.13112468226E+03  0.18199724374E+03  0.12500000000E+03 0.  0.
         25    1    1    2    0    0  0.13400983332E+03  0.24862746554E+02 -0.45503261374E+03  0.49117865503E+03  0.12500000000E+03 0.  0.
</event>
<event>
 5    0  0.5568866E-005  0.2078824E+03  0.7546771E-02  0.1143254E+00
         21   -1    0    0  502  501  0.00000000000E+00  0.00000000000E+00  0.13047168606E+04  0.13047168606E+04  0.00000000000E+00 0.  1.
         21   -1    0    0  501  502 -0.00000000000E+00 -0.00000000000E+00 -0.33122206553E+02  0.33122206553E+02  0.00000000000E+00 0.  1.
         25    1    1    2    0    0  0.32106703908E+02 -0.37681638633E+02  0.37636312687E+03  0.39965603911E+03  0.12500000000E+03 0.  0.
         25    1    1    2    0    0  0.99587240305E+01  0.68336709102E+02  0.52063330081E+03  0.53986397908E+03  0.12500000000E+03 0.  0.
         25    1    1    2    0    0 -0.42065427938E+02 -0.30655070470E+02  0.37459822636E+03  0.39831904896E+03  0.12500000000E+03 0.  0.
</event>
<event>
 5    0  0.5568866E-005  0.2851286E+03  0.7546771E-02  0.1092920E+00
         21   -1    0    0  502  501  0.00000000000E+00  0.00000000000E+00  0.26208728172E+03  0.26208728172E+03  0.00000000000E+00 0.  1.
         21   -1    0    0  501  502 -0.00000000000E+00 -0.00000000000E+00 -0.31019552475E+03  0.31019552475E+03  0.00000000000E+00 0.  1.
         25    1    1    2    0    0 -0.15196011497E+03  0.29908081308E+02 -0.61995811381E+02  0.20845827040E+03  0.12500000000E+03 0.  0.
         25    1    1    2    0    0  0.90164945775E+02 -0.10864440020E+03  0.58777030916E+02  0.19751724609E+03  0.12500000000E+03 0.  0.
         25    1    1    2    0    0  0.61795169198E+02  0.78736318892E+02 -0.44889462568E+02  0.16630728997E+03  0.12500000000E+03 0.  0.
</event>
<event>
 5    0  0.5568866E-005  0.2801227E+03  0.7546771E-02  0.1095622E+00
         21   -1    0    0  502  501  0.00000000000E+00  0.00000000000E+00  0.19834880316E+03  0.19834880316E+03  0.00000000000E+00 0. -1.
         21   -1    0    0  501  502 -0.00000000000E+00 -0.00000000000E+00 -0.39560986140E+03  0.39560986140E+03  0.00000000000E+00 0. -1.
         25    1    1    2    0    0 -0.52111607286E+02  0.66809959224E+02  0.10015845359E+03  0.18120680476E+03  0.12500000000E+03 0.  0.
         25    1    1    2    0    0 -0.12107258949E+02  0.89370176451E+01 -0.11747780176E+03  0.17219898347E+03  0.12500000000E+03 0.  0.
         25    1    1    2    0    0  0.64218866235E+02 -0.75746976869E+02 -0.17994171007E+03  0.24055287633E+03  0.12500000000E+03 0.  0.
</event>
<event>
 5    0  0.5568866E-005  0.2654784E+03  0.7546771E-02  0.1103896E+00
         21   -1    0    0  502  501  0.00000000000E+00  0.00000000000E+00  0.13840613190E+03  0.13840613190E+03  0.00000000000E+00 0. -1.
         21   -1    0    0  501  502 -0.00000000000E+00 -0.00000000000E+00 -0.50921725394E+03  0.50921725394E+03  0.00000000000E+00 0. -1.
         25    1    1    2    0    0  0.17705061233E+02 -0.64852372242E+02 -0.19558702095E+03  0.24165798588E+03  0.12500000000E+03 0.  0.
         25    1    1    2    0    0  0.35172457205E+02 -0.36792996808E+02  0.31500418461E+02  0.13859329971E+03  0.12500000000E+03 0.  0.
         25    1    1    2    0    0 -0.52877518437E+02  0.10164536905E+03 -0.20672451956E+03  0.26737210025E+03  0.12500000000E+03 0.  0.
</event>
<event>
 5    0  0.7147617E-005  0.3013955E+03  0.7546771E-02  0.1084545E+00
         21   -1    0    0  502  501  0.00000000000E+00  0.00000000000E+00  0.43162280203E+03  0.43162280203E+03  0.00000000000E+00 0.  1.
         21   -1    0    0  501  502 -0.00000000000E+00 -0.00000000000E+00 -0.21045973224E+03  0.21045973224E+03  0.00000000000E+00 0.  1.
         25    1    1    2    0    0 -0.46433298146E+02 -0.10885704202E+03  0.14491942592E+03  0.22501677000E+03  0.12500000000E+03 0.  0.
         25    1    1    2    0    0 -0.10840664152E+03 -0.24338769526E+02  0.57593858399E+02  0.17687969967E+03  0.12500000000E+03 0.  0.
         25    1    1    2    0    0  0.15483993967E+03  0.13319581154E+03  0.18649785479E+02  0.24018606460E+03  0.12500000000E+03 0.  0.
</event>
<event>
 5    0  0.5699863E-005  0.2810176E+03  0.7546771E-02  0.1095134E+00
         21   -1    0    0  502  501  0.00000000000E+00  0.00000000000E+00  0.42601702880E+03  0.42601702880E+03  0.00000000000E+00 0. -1.
         21   -1    0    0  501  502 -0.00000000000E+00 -0.00000000000E+00 -0.18537031450E+03  0.18537031450E+03  0.00000000000E+00 0. -1.
         25    1    1    2    0    0  0.80505392322E+02 -0.89182676242E+02  0.12523729719E+03  0.21387858364E+03  0.12500000000E+03 0.  0.
         25    1    1    2    0    0  0.73568981058E+02  0.79115147793E+02 -0.48456108002E+01  0.16528787472E+03  0.12500000000E+03 0.  0.
         25    1    1    2    0    0 -0.15407437338E+03  0.10067528448E+02  0.12025502791E+03  0.23222088493E+03  0.12500000000E+03 0.  0.
</event>
<event>
 5    0  0.5568866E-005  0.4065390E+03  0.7546771E-02  0.1041539E+00
         21   -1    0    0  502  501  0.00000000000E+00  0.00000000000E+00  0.43586012050E+03  0.43586012050E+03  0.00000000000E+00 0. -1.
         21   -1    0    0  501  502 -0.00000000000E+00 -0.00000000000E+00 -0.37919038131E+03  0.37919038131E+03  0.00000000000E+00 0. -1.
         25    1    1    2    0    0 -0.58756530191E+02  0.94478874756E+02 -0.12035183729E+03  0.20612654452E+03  0.12500000000E+03 0.  0.
         25    1    1    2    0    0 -0.11267938413E+03 -0.16604740425E+03 -0.96574135541E+02  0.25538196436E+03  0.12500000000E+03 0.  0.
         25    1    1    2    0    0  0.17143591432E+03  0.71568529489E+02  0.27359571202E+03  0.35354199293E+03  0.12500000000E+03 0.  0.
</event>
<event>
 5    0  0.5568866E-005  0.2871354E+03  0.7546771E-02  0.1091854E+00
         21   -1    0    0  502  501  0.00000000000E+00  0.00000000000E+00  0.10065607736E+04  0.10065607736E+04  0.00000000000E+00 0. -1.
         21   -1    0    0  501  502 -0.00000000000E+00 -0.00000000000E+00 -0.81909351886E+02  0.81909351886E+02  0.00000000000E+00 0. -1.
         25    1    1    2    0    0 -0.46850987109E+02 -0.10368082539E+03  0.13171799308E+03  0.21428802637E+03  0.12500000000E+03 0.  0.
         25    1    1    2    0    0  0.88139150704E+02  0.15720970414E+03  0.55868615455E+03  0.60019881727E+03  0.12500000000E+03 0.  0.
         25    1    1    2    0    0 -0.41288163595E+02 -0.53528878754E+02  0.23424727408E+03  0.27398328184E+03  0.12500000000E+03 0.  0.
</event>
<event>
 5    0  0.5568866E-005  0.3302383E+03  0.7546771E-02  0.1071031E+00
         21   -1    0    0  502  501  0.00000000000E+00  0.00000000000E+00  0.10185844496E+03  0.10185844496E+03  0.00000000000E+00 0.  1.
         21   -1    0    0  501  502 -0.00000000000E+00 -0.00000000000E+00 -0.10706751121E+04  0.10706751121E+04  0.00000000000E+00 0.  1.
         25    1    1    2    0    0  0.78375645592E+02  0.10374612511E+03 -0.37859872594E+03  0.41936618317E+03  0.12500000000E+03 0.  0.
         25    1    1    2    0    0 -0.14618581347E+03  0.85487470170E+02 -0.16875898421E+03  0.26978323589E+03  0.12500000000E+03 0.  0.
         25    1    1    2    0    0  0.67810167876E+02 -0.18923359527E+03 -0.42145895696E+03  0.48338413798E+03  0.12500000000E+03 0.  0.
</event>
<event>
 5    0  0.5568866E-005  0.3443581E+03  0.7546771E-02  0.1064955E+00
         21   -1    0    0  502  501  0.00000000000E+00  0.00000000000E+00  0.59306821694E+02  0.59306821694E+02  0.00000000000E+00 0. -1.
         21   -1    0    0  501  502 -0.00000000000E+00 -0.00000000000E+00 -0.19994750473E+04  0.19994750473E+04  0.00000000000E+00 0.  1.
         25    1    1    2    0    0 -0.50892262576E+02  0.74001780304E+02 -0.83880292086E+03  0.85280808270E+03  0.12500000000E+03 0.  0.
         25    1    1    2    0    0  0.18175746579E+03 -0.11739784128E+03 -0.88971655330E+03  0.92414207496E+03  0.12500000000E+03 0.  0.
         25    1    1    2    0    0 -0.13086520321E+03  0.43396060973E+02 -0.21164875144E+03  0.28183171132E+03  0.12500000000E+03 0.  0.
</event>
<event>
 5    0  0.5568866E-005  0.3545952E+03  0.7546771E-02  0.1060745E+00
         21   -1    0    0  502  501  0.00000000000E+00  0.00000000000E+00  0.20604369053E+03  0.20604369053E+03  0.00000000000E+00 0. -1.
         21   -1    0    0  501  502 -0.00000000000E+00 -0.00000000000E+00 -0.61024816549E+03  0.61024816549E+03  0.00000000000E+00 0. -1.
         25    1    1    2    0    0  0.22433520330E+03 -0.14035029922E+03 -0.20375633346E+03  0.35660360816E+03  0.12500000000E+03 0.  0.
         25    1    1    2    0    0 -0.17768147304E+03 -0.31574153913E+01 -0.11626973121E+03  0.24642306209E+03  0.12500000000E+03 0.  0.
         25    1    1    2    0    0 -0.46653730257E+02  0.14350771461E+03 -0.84178410293E+02  0.21326518577E+03  0.12500000000E+03 0.  0.
</event>
<event>
 5    0  0.5568866E-005  0.2588684E+03  0.7546771E-02  0.1107825E+00
         21   -1    0    0  502  501  0.00000000000E+00  0.00000000000E+00  0.13097761823E+03  0.13097761823E+03  0.00000000000E+00 0. -1.
         21   -1    0    0  501  502 -0.00000000000E+00 -0.00000000000E+00 -0.51163587861E+03  0.51163587861E+03  0.00000000000E+00 0. -1.
         25    1    1    2    0    0  0.31433378748E+02 -0.53173591001E+02 -0.22882072819E+03  0.26795412617E+03  0.12500000000E+03 0.  0.
         25    1    1    2    0    0 -0.33445475284E+02  0.53407475773E+02  0.40083973359E+02  0.14561141166E+03  0.12500000000E+03 0.  0.
         25    1    1    2    0    0  0.20120965355E+01 -0.23388477220E+00 -0.19192150555E+03  0.22904795901E+03  0.12500000000E+03 0.  0.
</event>
<event>
 5    0  0.5568866E-005  0.3104625E+03  0.7546771E-02  0.1080124E+00
         21   -1    0    0  502  501  0.00000000000E+00  0.00000000000E+00  0.60191416807E+03  0.60191416807E+03  0.00000000000E+00 0. -1.
         21   -1    0    0  501  502 -0.00000000000E+00 -0.00000000000E+00 -0.16013405601E+03  0.16013405601E+03  0.00000000000E+00 0. -1.
         25    1    1    2    0    0  0.22376392581E+03  0.32405285139E+02  0.15277295207E+03  0.30014158639E+03  0.12500000000E+03 0.  0.
         25    1    1    2    0    0 -0.10217340917E+03 -0.16549705598E+01  0.59584889753E+02  0.17209736650E+03  0.12500000000E+03 0.  0.
         25    1    1    2    0    0 -0.12159051664E+03 -0.30750314579E+02  0.22942227024E+03  0.28980927119E+03  0.12500000000E+03 0.  0.
</event>
<event>
 5    0  0.5568866E-005  0.4438369E+03  0.7546771E-02  0.1029576E+00
         21   -1    0    0  502  501  0.00000000000E+00  0.00000000000E+00  0.92885222647E+03  0.92885222647E+03  0.00000000000E+00 0. -1.
         21   -1    0    0  501  502 -0.00000000000E+00 -0.00000000000E+00 -0.21208022408E+03  0.21208022408E+03  0.00000000000E+00 0. -1.
         25    1    1    2    0    0 -0.11388942559E+03  0.16684107211E+03 -0.72660754185E+02  0.24841765196E+03  0.12500000000E+03 0.  0.
         25    1    1    2    0    0  0.14900501507E+03 -0.32840577323E+02  0.23110432678E+03  0.30383417828E+03  0.12500000000E+03 0.  0.
         25    1    1    2    0    0 -0.35115589474E+02 -0.13400049479E+03  0.55832842979E+03  0.58868062032E+03  0.12500000000E+03 0.  0.
</event>
<event>
 5    0  0.5568866E-005  0.2614153E+03  0.7546771E-02  0.1106296E+00
         21   -1    0    0  502  501  0.00000000000E+00  0.00000000000E+00  0.29368987468E+04  0.29368987468E+04  0.00000000000E+00 0. -1.
         21   -1    0    0  501  502 -0.00000000000E+00 -0.00000000000E+00 -0.23268753840E+02  0.23268753840E+02  0.00000000000E+00 0. -1.
         25    1    1    2    0    0 -0.55408970321E+02 -0.12612935299E+03  0.11962880348E+04  0.12106646232E+04  0.12500000000E+03 0.  0.
         25    1    1    2    0    0  0.83784038814E+02  0.89422513941E+01  0.59481554363E+03  0.61362061566E+03  0.12500000000E+03 0.  0.
         25    1    1    2    0    0 -0.28375068492E+02  0.11718710160E+03  0.11225264145E+04  0.11358822618E+04  0.12500000000E+03 0.  0.
</event>
<event>
 5    0  0.5568866E-005  0.2997102E+03  0.7546771E-02  0.1085386E+00
         21   -1    0    0  502  501  0.00000000000E+00  0.00000000000E+00  0.21738808695E+03  0.21738808695E+03  0.00000000000E+00 0.  1.
         21   -1    0    0  501  502 -0.00000000000E+00 -0.00000000000E+00 -0.41320661307E+03  0.41320661307E+03  0.00000000000E+00 0.  1.
         25    1    1    2    0    0  0.89629126052E+02 -0.58868869010E+01  0.93349824327E+01  0.15420822796E+03  0.12500000000E+03 0.  0.
         25    1    1    2    0    0 -0.26060987626E+02  0.11994175544E+03  0.32116314875E+02  0.17810574796E+03  0.12500000000E+03 0.  0.
         25    1    1    2    0    0 -0.63568138425E+02 -0.11405486854E+03 -0.23726982343E+03  0.29828072410E+03  0.12500000000E+03 0.  0.
</event>
<event>
 5    0  0.5568866E-005  0.3979977E+03  0.7546771E-02  0.1044475E+00
         21   -1    0    0  502  501  0.00000000000E+00  0.00000000000E+00  0.52095579591E+03  0.52095579591E+03  0.00000000000E+00 0. -1.
         21   -1    0    0  501  502 -0.00000000000E+00 -0.00000000000E+00 -0.30406066432E+03  0.30406066432E+03  0.00000000000E+00 0. -1.
         25    1    1    2    0    0 -0.23187562104E+03 -0.12526914941E+03  0.11480991089E+03  0.31347245344E+03  0.12500000000E+03 0.  0.
         25    1    1    2    0    0  0.66758426408E+02 -0.11343140483E+03  0.74832949606E+01  0.18167105108E+03  0.12500000000E+03 0.  0.
         25    1    1    2    0    0  0.16511719463E+03  0.23870055424E+03  0.94601925739E+02  0.32987295571E+03  0.12500000000E+03 0.  0.
</event>
<event>
 5    0  0.5568866E-005  0.2908339E+03  0.7546771E-02  0.1089915E+00
         21   -1    0    0  502  501  0.00000000000E+00  0.00000000000E+00  0.27774543287E+03  0.27774543287E+03  0.00000000000E+00 0.  1.
         21   -1    0    0  501  502 -0.00000000000E+00 -0.00000000000E+00 -0.30453906817E+03  0.30453906817E+03  0.00000000000E+00 0.  1.
         25    1    1    2    0    0  0.70791656992E+02 -0.49617297557E+02  0.62255899371E+02  0.16423803434E+03  0.12500000000E+03 0.  0.
         25    1    1    2    0    0 -0.15474273929E+03 -0.75295301428E+02 -0.41463508888E+02  0.21670007002E+03  0.12500000000E+03 0.  0.
         25    1    1    2    0    0  0.83951082295E+02  0.12491259898E+03 -0.47586025786E+02  0.20134639667E+03  0.12500000000E+03 0.  0.
</event>
<event>
 5    0  0.5568866E-005  0.3373505E+03  0.7546771E-02  0.1067930E+00
         21   -1    0    0  502  501  0.00000000000E+00  0.00000000000E+00  0.37354237741E+03  0.37354237741E+03  0.00000000000E+00 0. -1.
         21   -1    0    0  501  502 -0.00000000000E+00 -0.00000000000E+00 -0.30466526225E+03  0.30466526225E+03  0.00000000000E+00 0. -1.
         25    1    1    2    0    0  0.62224767766E+02 -0.13556387197E+03 -0.23724986407E+02  0.19605448244E+03  0.12500000000E+03 0.  0.
         25    1    1    2    0    0  0.58622130569E+02  0.18245325995E+03 -0.70266294383E+02  0.23934932293E+03  0.12500000000E+03 0.  0.
         25    1    1    2    0    0 -0.12084689833E+03 -0.46889387986E+02  0.16286839595E+03  0.24280383428E+03  0.12500000000E+03 0.  0.
</event>
<event>
 5    0  0.5568866E-005  0.2567210E+03  0.7546771E-02  0.1109129E+00
         21   -1    0    0  502  501  0.00000000000E+00  0.00000000000E+00  0.10045232259E+03  0.10045232259E+03  0.00000000000E+00 0.  1.
         21   -1    0    0  501  502 -0.00000000000E+00 -0.00000000000E+00 -0.65608897955E+03  0.65608897955E+03  0.00000000000E+00 0.  1.
         25    1    1    2    0    0 -0.24054311214E+02 -0.54064222081E+02 -0.20962154706E+03  0.25113291896E+03  0.12500000000E+03 0.  0.
         25    1    1    2    0    0 -0.11527298926E+02  0.63953007147E+02 -0.57124067008E+01  0.14099821748E+03  0.12500000000E+03 0.  0.
         25    1    1    2    0    0  0.35581610140E+02 -0.98887850659E+01 -0.34030270320E+03  0.36441016569E+03  0.12500000000E+03 0.  0.
</event>
<event>
 5    0  0.5568866E-005  0.4690072E+03  0.7546771E-02  0.1022201E+00
         21   -1    0    0  502  501  0.00000000000E+00  0.00000000000E+00  0.19605825945E+03  0.19605825945E+03  0.00000000000E+00 0. -1.
         21   -1    0    0  501  502 -0.00000000000E+00 -0.00000000000E+00 -0.11219508227E+04  0.11219508227E+04  0.00000000000E+00 0. -1.
         25    1    1    2    0    0  0.13516459449E+03  0.87081058118E+02 -0.55250725917E+03  0.58884790033E+03  0.12500000000E+03 0.  0.
         25    1    1    2    0    0 -0.10260011116E+03  0.18349966813E+03 -0.35190974647E+03  0.42856082494E+03  0.12500000000E+03 0.  0.
         25    1    1    2    0    0 -0.32564483333E+02 -0.27058072625E+03 -0.21475557624E+02  0.30060035690E+03  0.12500000000E+03 0.  0.
</event>
<event>
 5    0  0.6208629E-005  0.5669515E+03  0.7546771E-02  0.9976447E-01
         21   -1    0    0  502  501  0.00000000000E+00  0.00000000000E+00  0.46859637568E+03  0.46859637568E+03  0.00000000000E+00 0.  1.
         21   -1    0    0  501  502 -0.00000000000E+00 -0.00000000000E+00 -0.68595067765E+03  0.68595067765E+03  0.00000000000E+00 0.  1.
         25    1    1    2    0    0 -0.39510507608E+01 -0.37993901986E+03  0.18112065310E+02  0.40040269295E+03  0.12500000000E+03 0.  0.
         25    1    1    2    0    0  0.60858648009E+02  0.15288442752E+03  0.17134030086E+03  0.26843979198E+03  0.12500000000E+03 0.  0.
         25    1    1    2    0    0 -0.56907597248E+02  0.22705459233E+03 -0.40680666814E+03  0.48570456841E+03  0.12500000000E+03 0.  0.
</event>
<event>
 5    0  0.5568866E-005  0.4972448E+03  0.7546771E-02  0.1014501E+00
         21   -1    0    0  502  501  0.00000000000E+00  0.00000000000E+00  0.51788064156E+03  0.51788064156E+03  0.00000000000E+00 0.  1.
         21   -1    0    0  501  502 -0.00000000000E+00 -0.00000000000E+00 -0.47743123943E+03  0.47743123943E+03  0.00000000000E+00 0.  1.
         25    1    1    2    0    0 -0.20887092416E+03  0.33249671574E+02 -0.27782973556E+03  0.37087324733E+03  0.12500000000E+03 0.  0.
         25    1    1    2    0    0 -0.96157709091E+01  0.13887026045E+03  0.24947830129E+03  0.31183623122E+03  0.12500000000E+03 0.  0.
         25    1    1    2    0    0  0.21848669507E+03 -0.17211993202E+03  0.68800836401E+02  0.31260240244E+03  0.12500000000E+03 0.  0.
</event>
<event>
 5    0  0.5568866E-005  0.7868321E+03  0.7546771E-02  0.9579275E-01
         21   -1    0    0  502  501  0.00000000000E+00  0.00000000000E+00  0.90812386545E+03  0.90812386545E+03  0.00000000000E+00 0.  1.
         21   -1    0    0  501  502 -0.00000000000E+00 -0.00000000000E+00 -0.68174040950E+03  0.68174040950E+03  0.00000000000E+00 0.  1.
         25    1    1    2    0    0  0.30741612588E+03 -0.13748702634E+03  0.38750056464E+02  0.36129478787E+03  0.12500000000E+03 0.  0.
         25    1    1    2    0    0 -0.24154897371E+03  0.50976573190E+03 -0.25642477226E+03  0.63212789208E+03  0.12500000000E+03 0.  0.
         25    1    1    2    0    0 -0.65867152175E+02 -0.37227870556E+03  0.44405817176E+03  0.59644159500E+03  0.12500000000E+03 0.  0.
</event>
<event>
 5    0  0.5568866E-005  0.4421864E+03  0.7546771E-02  0.1030078E+00
         21   -1    0    0  502  501  0.00000000000E+00  0.00000000000E+00  0.44665716438E+03  0.44665716438E+03  0.00000000000E+00 0. -1.
         21   -1    0    0  501  502 -0.00000000000E+00 -0.00000000000E+00 -0.43776043385E+03  0.43776043385E+03  0.00000000000E+00 0. -1.
         25    1    1    2    0    0 -0.15903704418E+03  0.27142114744E+03 -0.94016211443E+02  0.35132074905E+03  0.12500000000E+03 0.  0.
         25    1    1    2    0    0  0.29544542636E+02  0.23617789206E+02 -0.68333005479E+02  0.14739429977E+03  0.12500000000E+03 0.  0.
         25    1    1    2    0    0  0.12949250155E+03 -0.29503893665E+03  0.17124594745E+03  0.38570254940E+03  0.12500000000E+03 0.  0.
</event>
<event>
 5    0  0.5568866E-005  0.3358589E+03  0.7546771E-02  0.1068574E+00
         21   -1    0    0  502  501  0.00000000000E+00  0.00000000000E+00  0.54832756829E+02  0.54832756829E+02  0.00000000000E+00 0. -1.
         21   -1    0    0  501  502 -0.00000000000E+00 -0.00000000000E+00 -0.20571863345E+04  0.20571863345E+04  0.00000000000E+00 0. -1.
         25    1    1    2    0    0 -0.91089383429E+02  0.11981245015E+03 -0.12269383330E+04  0.12424391220E+04  0.12500000000E+03 0.  0.
         25    1    1    2    0    0  0.59895391911E+02 -0.16789031883E+03 -0.64228820922E+03  0.67818416439E+03  0.12500000000E+03 0.  0.
         25    1    1    2    0    0  0.31193991518E+02  0.48077868686E+02 -0.13312703544E+03  0.19139580489E+03  0.12500000000E+03 0.  0.
</event>
<event>
 5    0  0.5568866E-005  0.4366670E+03  0.7546771E-02  0.1031774E+00
         21   -1    0    0  502  501  0.00000000000E+00  0.00000000000E+00  0.23610278989E+03  0.23610278989E+03  0.00000000000E+00 0. -1.
         21   -1    0    0  501  502 -0.00000000000E+00 -0.00000000000E+00 -0.80760622507E+03  0.80760622507E+03  0.00000000000E+00 0. -1.
         25    1    1    2    0    0 -0.65320971966E+02  0.89304359561E+01  0.47302400829E+01  0.14139999023E+03  0.12500000000E+03 0.  0.
         25    1    1    2    0    0  0.28184338826E+02 -0.30478452222E+03 -0.13932759756E+03  0.35878286104E+03  0.12500000000E+03 0.  0.
         25    1    1    2    0    0  0.37136633140E+02  0.29585408626E+03 -0.43690607770E+03  0.54352616369E+03  0.12500000000E+03 0.  0.
</event>
<event>
 5    0  0.5568866E-005  0.2912765E+03  0.7546771E-02  0.1089685E+00
         21   -1    0    0  502  501  0.00000000000E+00  0.00000000000E+00  0.92089961124E+03  0.92089961124E+03  0.00000000000E+00 0. -1.
         21   -1    0    0  501  502 -0.00000000000E+00 -0.00000000000E+00 -0.92129460017E+02  0.92129460017E+02  0.00000000000E+00 0. -1.
         25    1    1    2    0    0  0.18902741942E+02 -0.72715442043E+02  0.53700152124E+03  0.55645348680E+03  0.12500000000E+03 0.  0.
         25    1    1    2    0    0 -0.76567914987E+02 -0.59223483569E+02  0.10585647299E+03  0.19026470899E+03  0.12500000000E+03 0.  0.
         25    1    1    2    0    0  0.57665173046E+02  0.13193892561E+03  0.18591215699E+03  0.26631087547E+03  0.12500000000E+03 0.  0.
</event>
<event>
 5    0  0.5568866E-005  0.3642103E+03  0.7546771E-02  0.1056929E+00
         21   -1    0    0  502  501  0.00000000000E+00  0.00000000000E+00  0.66261056794E+02  0.66261056794E+02  0.00000000000E+00 0.  1.
         21   -1    0    0  501  502 -0.00000000000E+00 -0.00000000000E+00 -0.20019168848E+04  0.20019168848E+04  0.00000000000E+00 0.  1.
         25    1    1    2    0    0  0.99740489062E+02 -0.70816130045E+02 -0.40884384615E+03  0.44468121162E+03  0.12500000000E+03 0.  0.
         25    1    1    2    0    0  0.23823346557E+02  0.24322972177E+03 -0.10689555142E+04  0.11036390446E+04  0.12500000000E+03 0.  0.
         25    1    1    2    0    0 -0.12356383562E+03 -0.17241359172E+03 -0.45785646766E+03  0.51985768539E+03  0.12500000000E+03 0.  0.
</event>
<event>
 5    0  0.5568866E-005  0.3652852E+03  0.7546771E-02  0.1056511E+00
         21   -1    0    0  502  501  0.00000000000E+00  0.00000000000E+00  0.33556319969E+03  0.33556319969E+03  0.00000000000E+00 0. -1.
         21   -1    0    0  501  502 -0.00000000000E+00 -0.00000000000E+00 -0.39763970739E+03  0.39763970739E+03  0.00000000000E+00 0. -1.
         25    1    1    2    0    0 -0.48439940676E+02  0.13236145190E+03  0.20869992337E+02  0.18954297239E+03  0.12500000000E+03 0.  0.
         25    1    1    2    0    0  0.51933853987E+02 -0.23386320367E+02  0.18385369238E+03  0.22950212498E+03  0.12500000000E+03 0.  0.
         25    1    1    2    0    0 -0.34939133114E+01 -0.10897513153E+03 -0.26680019242E+03  0.31415780971E+03  0.12500000000E+03 0.  0.
</event>
<event>
 5    0  0.5568866E-005  0.2285076E+03  0.7546771E-02  0.1127695E+00
         21   -1    0    0  502  501  0.00000000000E+00  0.00000000000E+00  0.15084928905E+03  0.15084928905E+03  0.00000000000E+00 0. -1.
         21   -1    0    0  501  502 -0.00000000000E+00 -0.00000000000E+00 -0.34614501626E+03  0.34614501626E+03  0.00000000000E+00 0. -1.
         25    1    1    2    0    0 -0.87784017518E+02 -0.11311615573E+02 -0.10179800774E+03  0.18390709817E+03  0.12500000000E+03 0.  0.
         25    1    1    2    0    0  0.77769823425E+02  0.27672172477E+02  0.93421885281E+01  0.15008721149E+03  0.12500000000E+03 0.  0.
         25    1    1    2    0    0  0.10014194093E+02 -0.16360556904E+02 -0.10283990800E+03  0.16299999565E+03  0.12500000000E+03 0.  0.
</event>
<event>
 5    0  0.5568866E-005  0.2692154E+03  0.7546771E-02  0.1101729E+00
         21   -1    0    0  502  501  0.00000000000E+00  0.00000000000E+00  0.59522320499E+02  0.59522320499E+02  0.00000000000E+00 0. -1.
         21   -1    0    0  501  502 -0.00000000000E+00 -0.00000000000E+00 -0.12176428912E+04  0.12176428912E+04  0.00000000000E+00 0. -1.
         25    1    1    2    0    0  0.65033903465E+01 -0.94233648020E+02 -0.20636424662E+03  0.25910128674E+03  0.12500000000E+03 0.  0.
         25    1    1    2    0    0 -0.15753644556E+02  0.54811678389E+02 -0.14152699017E+03  0.19724955349E+03  0.12500000000E+03 0.  0.
         25    1    1    2    0    0  0.92502542093E+01  0.39421969630E+02 -0.81022933391E+03  0.82081437147E+03  0.12500000000E+03 0.  0.
</event>
<event>
 5    0  0.5568866E-005  0.3286340E+03  0.7546771E-02  0.1071743E+00
         21   -1    0    0  502  501  0.00000000000E+00  0.00000000000E+00  0.11839302474E+03  0.11839302474E+03  0.00000000000E+00 0. -1.
         21   -1    0    0  501  502 -0.00000000000E+00 -0.00000000000E+00 -0.91221830585E+03  0.91221830585E+03  0.00000000000E+00 0. -1.
         25    1    1    2    0    0  0.85882005516E+02  0.21233256990E+03 -0.40696983019E+03  0.48343591281E+03  0.12500000000E+03 0.  0.
         25    1    1    2    0    0 -0.11809201486E+03 -0.59655474287E+02 -0.14070836406E+03  0.23006160763E+03  0.12500000000E+03 0.  0.
         25    1    1    2    0    0  0.32210009343E+02 -0.15267709561E+03 -0.24614708686E+03  0.31711381016E+03  0.12500000000E+03 0.  0.
</event>
<event>
 5    0  0.5568866E-005  0.2373323E+03  0.7546771E-02  0.1121583E+00
         21   -1    0    0  502  501  0.00000000000E+00  0.00000000000E+00  0.10684693478E+03  0.10684693478E+03  0.00000000000E+00 0. -1.
         21   -1    0    0  501  502 -0.00000000000E+00 -0.00000000000E+00 -0.52717106664E+03  0.52717106664E+03  0.00000000000E+00 0. -1.
         25    1    1    2    0    0 -0.55093562432E+02  0.87230270497E+02 -0.14228860660E+03  0.21567444976E+03  0.12500000000E+03 0.  0.
         25    1    1    2    0    0  0.72489406075E+02 -0.74038955203E+02 -0.23239257406E+03  0.28349213280E+03  0.12500000000E+03 0.  0.
         25    1    1    2    0    0 -0.17395843644E+02 -0.13191315295E+02 -0.45642951207E+02  0.13485141887E+03  0.12500000000E+03 0.  0.
</event>
<event>
 5    0  0.5568866E-005  0.2694563E+03  0.7546771E-02  0.1101591E+00
         21   -1    0    0  502  501  0.00000000000E+00  0.00000000000E+00  0.47666102548E+02  0.47666102548E+02  0.00000000000E+00 0. -1.
         21   -1    0    0  501  502 -0.00000000000E+00 -0.00000000000E+00 -0.15232360184E+04  0.15232360184E+04  0.00000000000E+00 0. -1.
         25    1    1    2    0    0 -0.93488682636E+02  0.70303471133E+02 -0.43078595254E+03  0.46355609018E+03  0.12500000000E+03 0.  0.
         25    1    1    2    0    0 -0.19207697022E+02 -0.12405041484E+03 -0.66971683996E+03  0.69275037840E+03  0.12500000000E+03 0.  0.
         25    1    1    2    0    0  0.11269637966E+03  0.53746943711E+02 -0.37506712336E+03  0.41459565238E+03  0.12500000000E+03 0.  0.
</event>
<event>
 5    0  0.5568866E-005  0.2501208E+03  0.7546771E-02  0.1113228E+00
         21   -1    0    0  502  501  0.00000000000E+00  0.00000000000E+00  0.27814598679E+03  0.27814598679E+03  0.00000000000E+00 0. -1.
         21   -1    0    0  501  502 -0.00000000000E+00 -0.00000000000E+00 -0.22491938115E+03  0.22491938115E+03  0.00000000000E+00 0. -1.
         25    1    1    2    0    0 -0.87332240064E+02  0.60563660252E+02  0.40943695049E+02  0.16910429699E+03  0.12500000000E+03 0.  0.
         25    1    1    2    0    0  0.12044439286E+03 -0.73056981343E+02  0.56670165398E+02  0.19667404999E+03  0.12500000000E+03 0.  0.
         25    1    1    2    0    0 -0.33112152794E+02  0.12493321090E+02 -0.44387254803E+02  0.13728702096E+03  0.12500000000E+03 0.  0.
</event>
<event>
 5    0  0.5937876E-005  0.3362875E+03  0.7546771E-02  0.1068388E+00
         21   -1    0    0  502  501  0.00000000000E+00  0.00000000000E+00  0.29244511701E+03  0.29244511701E+03  0.00000000000E+00 0.  1.
         21   -1    0    0  501  502 -0.00000000000E+00 -0.00000000000E+00 -0.38670260707E+03  0.38670260707E+03  0.00000000000E+00 0.  1.
         25    1    1    2    0    0 -0.14850236114E+03 -0.21623298648E+02 -0.35404385304E+02  0.19849178524E+03  0.12500000000E+03 0.  0.
         25    1    1    2    0    0  0.12325608341E+03  0.13362335296E+03 -0.16935890334E+03  0.27812713046E+03  0.12500000000E+03 0.  0.
         25    1    1    2    0    0  0.25246277725E+02 -0.11200005432E+03  0.11050579859E+03  0.20252880839E+03  0.12500000000E+03 0.  0.
</event>
<event>
 5    0  0.5568866E-005  0.6376369E+03  0.7546771E-02  0.9830258E-01
         21   -1    0    0  502  501  0.00000000000E+00  0.00000000000E+00  0.46977316706E+03  0.46977316706E+03  0.00000000000E+00 0.  1.
         21   -1    0    0  501  502 -0.00000000000E+00 -0.00000000000E+00 -0.86548315273E+03  0.86548315273E+03  0.00000000000E+00 0.  1.
         25    1    1    2    0    0 -0.24547850008E+03  0.58038454991E+02 -0.30597049265E+02  0.28317721604E+03  0.12500000000E+03 0.  0.
         25    1    1    2    0    0 -0.53999752232E+02 -0.31658880366E+03 -0.50745792370E+03  0.61341909668E+03  0.12500000000E+03 0.  0.
         25    1    1    2    0    0  0.29947825231E+03  0.25855034867E+03  0.14234498729E+03  0.43866000708E+03  0.12500000000E+03 0.  0.
</event>
<event>
 5    0  0.5568866E-005  0.2755831E+03  0.7546771E-02  0.1098126E+00
         21   -1    0    0  502  501  0.00000000000E+00  0.00000000000E+00  0.20446655615E+03  0.20446655615E+03  0.00000000000E+00 0. -1.
         21   -1    0    0  501  502 -0.00000000000E+00 -0.00000000000E+00 -0.37143512772E+03  0.37143512772E+03  0.00000000000E+00 0. -1.
         25    1    1    2    0    0 -0.73774578091E+02 -0.12928420838E+02 -0.22394611670E+03  0.26718288797E+03  0.12500000000E+03 0.  0.
         25    1    1    2    0    0  0.21735216856E+02  0.43857932531E+02 -0.39121067574E+02  0.13982630591E+03  0.12500000000E+03 0.  0.
         25    1    1    2    0    0  0.52039361235E+02 -0.30929511693E+02  0.96098612702E+02  0.16889248999E+03  0.12500000000E+03 0.  0.
</event>
<event>
 5    0  0.5568866E-005  0.4636810E+03  0.7546771E-02  0.1023719E+00
         21   -1    0    0  502  501  0.00000000000E+00  0.00000000000E+00  0.20644075029E+03  0.20644075029E+03  0.00000000000E+00 0.  1.
         21   -1    0    0  501  502 -0.00000000000E+00 -0.00000000000E+00 -0.10414613618E+04  0.10414613618E+04  0.00000000000E+00 0.  1.
         25    1    1    2    0    0 -0.66769363485E+02  0.80828111603E+02 -0.91292894153E+03  0.92739181785E+03  0.12500000000E+03 0.  0.
         25    1    1    2    0    0  0.31631207367E+02  0.38330029743E+02  0.28848677133E+02  0.13757532712E+03  0.12500000000E+03 0.  0.
         25    1    1    2    0    0  0.35138156118E+02 -0.11915814135E+03  0.49059652867E+02  0.18293496714E+03  0.12500000000E+03 0.  0.
</event>
<event>
 5    0  0.5568866E-005  0.2577545E+03  0.7546771E-02  0.1108500E+00
         21   -1    0    0  502  501  0.00000000000E+00  0.00000000000E+00  0.11570251064E+03  0.11570251064E+03  0.00000000000E+00 0.  1.
         21   -1    0    0  501  502 -0.00000000000E+00 -0.00000000000E+00 -0.57420871222E+03  0.57420871222E+03  0.00000000000E+00 0.  1.
         25    1    1    2    0    0  0.12920870797E+02  0.41072841179E+02 -0.77212601026E+02  0.15310360199E+03  0.12500000000E+03 0.  0.
         25    1    1    2    0    0 -0.87088276470E+02  0.94136598753E+02 -0.19083707512E+03  0.26170566743E+03  0.12500000000E+03 0.  0.
         25    1    1    2    0    0  0.74167405673E+02 -0.13520943993E+03 -0.19045652543E+03  0.27510195344E+03  0.12500000000E+03 0.  0.
</event>
<event>
 5    0  0.5568866E-005  0.3070166E+03  0.7546771E-02  0.1081785E+00
         21   -1    0    0  502  501  0.00000000000E+00  0.00000000000E+00  0.10658387430E+04  0.10658387430E+04  0.00000000000E+00 0.  1.
         21   -1    0    0  501  502 -0.00000000000E+00 -0.00000000000E+00 -0.88436616822E+02  0.88436616822E+02  0.00000000000E+00 0.  1.
         25    1    1    2    0    0  0.11946970785E+03  0.63458121573E+02  0.55118898835E+03  0.58114907310E+03  0.12500000000E+03 0.  0.
         25    1    1    2    0    0 -0.77818021852E+02 -0.15410168933E+03  0.17718710186E+03  0.27717006376E+03  0.12500000000E+03 0.  0.
         25    1    1    2    0    0 -0.41651685997E+02  0.90643567759E+02  0.24902603600E+03  0.29595622299E+03  0.12500000000E+03 0.  0.
</event>
<event>
 5    0  0.5568866E-005  0.3454401E+03  0.7546771E-02  0.1064502E+00
         21   -1    0    0  502  501  0.00000000000E+00  0.00000000000E+00  0.18923870898E+04  0.18923870898E+04  0.00000000000E+00 0.  1.
         21   -1    0    0  501  502 -0.00000000000E+00 -0.00000000000E+00 -0.63057312071E+02  0.63057312071E+02  0.00000000000E+00 0.  1.
         25    1    1    2    0    0  0.11515907724E+03 -0.24860380672E+02  0.11238294183E+04  0.11368804743E+04  0.12500000000E+03 0.  0.
         25    1    1    2    0    0 -0.13920245921E+00 -0.86318061550E+02  0.10497271770E+03  0.18464858133E+03  0.12500000000E+03 0.  0.
         25    1    1    2    0    0 -0.11501987478E+03  0.11117844222E+03  0.60052764174E+03  0.63391534616E+03  0.12500000000E+03 0.  0.
</event>
<event>
 5    0  0.6069129E-005  0.2945631E+03  0.7546771E-02  0.1087990E+00
         21   -1    0    0  502  501  0.00000000000E+00  0.00000000000E+00  0.22959948930E+03  0.22959948930E+03  0.00000000000E+00 0.  1.
         21   -1    0    0  501  502 -0.00000000000E+00 -0.00000000000E+00 -0.37790774872E+03  0.37790774872E+03  0.00000000000E+00 0.  1.
         25    1    1    2    0    0  0.70671943262E+02 -0.12916958566E+03  0.16053958524E+02  0.19380927483E+03  0.12500000000E+03 0.  0.
         25    1    1    2    0    0 -0.48226413935E+02  0.97524811463E+02 -0.21664618024E+03  0.27275894718E+03  0.12500000000E+03 0.  0.
         25    1    1    2    0    0 -0.22445529328E+02  0.31644774202E+02  0.52283962293E+02  0.14093901601E+03  0.12500000000E+03 0.  0.
</event>
<event>
 5    0  0.5568866E-005  0.2327866E+03  0.7546771E-02  0.1124694E+00
         21   -1    0    0  502  501  0.00000000000E+00  0.00000000000E+00  0.60571033944E+03  0.60571033944E+03  0.00000000000E+00 0.  1.
         21   -1    0    0  501  502 -0.00000000000E+00 -0.00000000000E+00 -0.89464579076E+02  0.89464579076E+02  0.00000000000E+00 0.  1.
         25    1    1    2    0    0  0.42181841352E+01  0.75186570059E+01  0.17907962970E+03  0.21856083148E+03  0.12500000000E+03 0.  0.
         25    1    1    2    0    0  0.60162479563E+02  0.34674716317E+02  0.45447504574E+02  0.15004111294E+03  0.12500000000E+03 0.  0.
         25    1    1    2    0    0 -0.64380663698E+02 -0.42193373323E+02  0.29171862608E+03  0.32657297410E+03  0.12500000000E+03 0.  0.
</event>
<event>
 5    0  0.5568866E-005  0.3169977E+03  0.7546771E-02  0.1077039E+00
         21   -1    0    0  502  501  0.00000000000E+00  0.00000000000E+00  0.91066130455E+02  0.91066130455E+02  0.00000000000E+00 0.  1.
         21   -1    0    0  501  502 -0.00000000000E+00 -0.00000000000E+00 -0.11034567082E+04  0.11034567082E+04  0.00000000000E+00 0.  1.
         25    1    1    2    0    0 -0.43127916882E+02 -0.45878222346E+02 -0.10770989446E+03  0.17661044664E+03  0.12500000000E+03 0.  0.
         25    1    1    2    0    0 -0.47957447697E+02  0.19876328340E+03 -0.57524135039E+03  0.62316480230E+03  0.12500000000E+03 0.  0.
         25    1    1    2    0    0  0.91085364579E+02 -0.15288506105E+03 -0.32943933293E+03  0.39474758975E+03  0.12500000000E+03 0.  0.
</event>
<event>
 5    0  0.5568866E-005  0.5254621E+03  0.7546771E-02  0.1007339E+00
         21   -1    0    0  502  501  0.00000000000E+00  0.00000000000E+00  0.10956729740E+04  0.10956729740E+04  0.00000000000E+00 0. -1.
         21   -1    0    0  501  502 -0.00000000000E+00 -0.00000000000E+00 -0.25200074930E+03  0.25200074930E+03  0.00000000000E+00 0. -1.
         25    1    1    2    0    0 -0.22142138027E+03  0.33769379845E+03  0.50332996003E+03  0.65729032992E+03  0.12500000000E+03 0.  0.
         25    1    1    2    0    0 -0.70250404652E+02 -0.22014362171E+02  0.13407683026E+03  0.19753821885E+03  0.12500000000E+03 0.  0.
         25    1    1    2    0    0  0.29167178492E+03 -0.31567943628E+03  0.20626543440E+03  0.49284517451E+03  0.12500000000E+03 0.  0.
</event>
<event>
 5    0  0.5568866E-005  0.2670561E+03  0.7546771E-02  0.1102976E+00
         21   -1    0    0  502  501  0.00000000000E+00  0.00000000000E+00  0.13239056481E+03  0.13239056481E+03  0.00000000000E+00 0. -1.
         21   -1    0    0  501  502 -0.00000000000E+00 -0.00000000000E+00 -0.53870108853E+03  0.53870108853E+03  0.00000000000E+00 0. -1.
         25    1    1    2    0    0  0.12207429606E+03 -0.11167048737E+03 -0.16247441912E+03  0.26343000659E+03  0.12500000000E+03 0.  0.
         25    1    1    2    0    0 -0.15123675797E+02  0.90641735661E+02 -0.80083209596E+02  0.17459372919E+03  0.12500000000E+03 0.  0.
         25    1    1    2    0    0 -0.10695062026E+03  0.21028751704E+02 -0.16375289500E+03  0.23306791756E+03  0.12500000000E+03 0.  0.
</event>
<event>
 5    0  0.5568866E-005  0.3950256E+03  0.7546771E-02  0.1045516E+00
         21   -1    0    0  502  501  0.00000000000E+00  0.00000000000E+00  0.18768462086E+03  0.18768462086E+03  0.00000000000E+00 0. -1.
         21   -1    0    0  501  502 -0.00000000000E+00 -0.00000000000E+00 -0.83142246502E+03  0.83142246502E+03  0.00000000000E+00 0. -1.
         25    1    1    2    0    0  0.24955727775E+02  0.14281912240E+02 -0.10151684315E+03  0.16357698740E+03  0.12500000000E+03 0.  0.
         25    1    1    2    0    0  0.70931458077E+02 -0.27711077532E+03 -0.42526959029E+03  0.52754229969E+03  0.12500000000E+03 0.  0.
         25    1    1    2    0    0 -0.95887185852E+02  0.26282886308E+03 -0.11695141072E+03  0.32798779878E+03  0.12500000000E+03 0.  0.
</event>
<event>
 5    0  0.5568866E-005  0.3653966E+03  0.7546771E-02  0.1056467E+00
         21   -1    0    0  502  501  0.00000000000E+00  0.00000000000E+00  0.37795363752E+03  0.37795363752E+03  0.00000000000E+00 0.  1.
         21   -1    0    0  501  502 -0.00000000000E+00 -0.00000000000E+00 -0.35325682500E+03  0.35325682500E+03  0.00000000000E+00 0.  1.
         25    1    1    2    0    0  0.47394755425E+02  0.22737626690E+03  0.14230456429E+02  0.26414718526E+03  0.12500000000E+03 0.  0.
         25    1    1    2    0    0 -0.52912147559E+02 -0.15655511851E+03 -0.14683325730E+03  0.25395709468E+03  0.12500000000E+03 0.  0.
         25    1    1    2    0    0  0.55173921348E+01 -0.70821148394E+02  0.15729961339E+03  0.21310618257E+03  0.12500000000E+03 0.  0.
</event>
<event>
 5    0  0.5568866E-005  0.2500299E+03  0.7546771E-02  0.1113286E+00
         21   -1    0    0  502  501  0.00000000000E+00  0.00000000000E+00  0.16892900304E+03  0.16892900304E+03  0.00000000000E+00 0. -1.
         21   -1    0    0  501  502 -0.00000000000E+00 -0.00000000000E+00 -0.37006632670E+03  0.37006632670E+03  0.00000000000E+00 0. -1.
         25    1    1    2    0    0  0.50079336997E+02  0.46800746635E+02 -0.91512725042E+02  0.16940433502E+03  0.12500000000E+03 0.  0.
         25    1    1    2    0    0 -0.12623822371E+02 -0.14333498924E+03 -0.56447302905E+02  0.19878525608E+03  0.12500000000E+03 0.  0.
         25    1    1    2    0    0 -0.37455514626E+02  0.96534242600E+02 -0.53177295715E+02  0.17080573863E+03  0.12500000000E+03 0.  0.
</event>
<event>
 5    0  0.5568866E-005  0.2198238E+03  0.7546771E-02  0.1134014E+00
         21   -1    0    0  502  501  0.00000000000E+00  0.00000000000E+00  0.54409926654E+03  0.54409926654E+03  0.00000000000E+00 0. -1.
         21   -1    0    0  501  502 -0.00000000000E+00 -0.00000000000E+00 -0.88811915505E+02  0.88811915505E+02  0.00000000000E+00 0. -1.
         25    1    1    2    0    0 -0.24759306391E+02  0.74830827257E+00  0.16152400855E+03  0.20573912743E+03  0.12500000000E+03 0.  0.
         25    1    1    2    0    0 -0.28647134432E+02 -0.33866704082E+02  0.24574311859E+03  0.27925309719E+03  0.12500000000E+03 0.  0.
         25    1    1    2    0    0  0.53406440823E+02  0.33118395810E+02  0.48020223898E+02  0.14791895742E+03  0.12500000000E+03 0.  0.
</event>
<event>
 5    0  0.5568866E-005  0.2311113E+03  0.7546771E-02  0.1125860E+00
         21   -1    0    0  502  501  0.00000000000E+00  0.00000000000E+00  0.55079253243E+02  0.55079253243E+02  0.00000000000E+00 0.  1.
         21   -1    0    0  501  502 -0.00000000000E+00 -0.00000000000E+00 -0.96973796693E+03  0.96973796693E+03  0.00000000000E+00 0.  1.
         25    1    1    2    0    0 -0.20506701049E+02  0.27856705183E+02 -0.14846784618E+03  0.19714010794E+03  0.12500000000E+03 0.  0.
         25    1    1    2    0    0  0.81992450584E+02 -0.68692553126E+01 -0.23897751094E+03  0.28196666356E+03  0.12500000000E+03 0.  0.
         25    1    1    2    0    0 -0.61485749534E+02 -0.20987449870E+02 -0.52721335657E+03  0.54571044867E+03  0.12500000000E+03 0.  0.
</event>
<event>
 5    0  0.5568866E-005  0.2947049E+03  0.7546771E-02  0.1087918E+00
         21   -1    0    0  502  501  0.00000000000E+00  0.00000000000E+00  0.14021188876E+03  0.14021188876E+03  0.00000000000E+00 0.  1.
         21   -1    0    0  501  502 -0.00000000000E+00 -0.00000000000E+00 -0.61942680755E+03  0.61942680755E+03  0.00000000000E+00 0.  1.
         25    1    1    2    0    0 -0.44044699197E+02 -0.70627798776E+02 -0.29254326361E+02  0.15300012124E+03  0.12500000000E+03 0.  0.
         25    1    1    2    0    0  0.82297744596E+02 -0.11977752288E+02 -0.42405471904E+03  0.44984863016E+03  0.12500000000E+03 0.  0.
         25    1    1    2    0    0 -0.38253045399E+02  0.82605551064E+02 -0.25905873384E+02  0.15678994491E+03  0.12500000000E+03 0.  0.
</event>
<event>
 5    0  0.5568866E-005  0.2439730E+03  0.7546771E-02  0.1117174E+00
         21   -1    0    0  502  501  0.00000000000E+00  0.00000000000E+00  0.19716390624E+03  0.19716390624E+03  0.00000000000E+00 0.  1.
         21   -1    0    0  501  502 -0.00000000000E+00 -0.00000000000E+00 -0.30189512608E+03  0.30189512608E+03  0.00000000000E+00 0.  1.
         25    1    1    2    0    0  0.54840611351E+02 -0.10675972824E+03  0.66726221708E+01  0.17342046048E+03  0.12500000000E+03 0.  0.
         25    1    1    2    0    0 -0.81929153604E+02  0.29176795396E+02 -0.29560075172E+02  0.15512082273E+03  0.12500000000E+03 0.  0.
         25    1    1    2    0    0  0.27088542253E+02  0.77582932847E+02 -0.81843766836E+02  0.17051774911E+03  0.12500000000E+03 0.  0.
</event>
<event>
 5    0  0.5568866E-005  0.2575410E+03  0.7546771E-02  0.1108630E+00
         21   -1    0    0  502  501  0.00000000000E+00  0.00000000000E+00  0.60656722708E+02  0.60656722708E+02  0.00000000000E+00 0. -1.
         21   -1    0    0  501  502 -0.00000000000E+00 -0.00000000000E+00 -0.10934870924E+04  0.10934870924E+04  0.00000000000E+00 0. -1.
         25    1    1    2    0    0 -0.11056959402E+03 -0.10438338022E+03 -0.45465199289E+03  0.49543411250E+03  0.12500000000E+03 0.  0.
         25    1    1    2    0    0  0.57692195454E+02 -0.17476688577E+01 -0.31952446994E+03  0.34792575451E+03  0.12500000000E+03 0.  0.
         25    1    1    2    0    0  0.52877398567E+02  0.10613104908E+03 -0.25865390685E+03  0.31078394809E+03  0.12500000000E+03 0.  0.
</event>
<event>
 5    0  0.5568866E-005  0.3379457E+03  0.7546771E-02  0.1067674E+00
         21   -1    0    0  502  501  0.00000000000E+00  0.00000000000E+00  0.32498289479E+03  0.32498289479E+03  0.00000000000E+00 0. -1.
         21   -1    0    0  501  502 -0.00000000000E+00 -0.00000000000E+00 -0.35142548782E+03  0.35142548782E+03  0.00000000000E+00 0. -1.
         25    1    1    2    0    0  0.12853698044E+02  0.27993784815E+02  0.24803107157E+03  0.27945175255E+03  0.12500000000E+03 0.  0.
         25    1    1    2    0    0  0.98633229341E+01  0.42368538036E+02 -0.18106301172E+03  0.22427927315E+03  0.12500000000E+03 0.  0.
         25    1    1    2    0    0 -0.22717020978E+02 -0.70362322851E+02 -0.93410652872E+02  0.17267735691E+03  0.12500000000E+03 0.  0.
</event>
<event>
 5    0  0.5568866E-005  0.2596770E+03  0.7546771E-02  0.1107337E+00
         21   -1    0    0  502  501  0.00000000000E+00  0.00000000000E+00  0.37987979663E+03  0.37987979663E+03  0.00000000000E+00 0. -1.
         21   -1    0    0  501  502 -0.00000000000E+00 -0.00000000000E+00 -0.17750914340E+03  0.17750914340E+03  0.00000000000E+00 0. -1.
         25    1    1    2    0    0 -0.41771621513E+02  0.39957433430E+02  0.18270346646E+03  0.22879471477E+03  0.12500000000E+03 0.  0.
         25    1    1    2    0    0  0.81964774762E+02 -0.35300040256E+02  0.91576643333E+02  0.17881722162E+03  0.12500000000E+03 0.  0.
         25    1    1    2    0    0 -0.40193153249E+02 -0.46573931742E+01 -0.71909456559E+02  0.14977700365E+03  0.12500000000E+03 0.  0.
</event>
<event>
 5    0  0.5568866E-005  0.4827772E+03  0.7546771E-02  0.1018375E+00
         21   -1    0    0  502  501  0.00000000000E+00  0.00000000000E+00  0.17798858469E+04  0.17798858469E+04  0.00000000000E+00 0.  1.
         21   -1    0    0  501  502 -0.00000000000E+00 -0.00000000000E+00 -0.13094875538E+03  0.13094875538E+03  0.00000000000E+00 0.  1.
         25    1    1    2    0    0  0.16097798082E+02 -0.14918327044E+03  0.40747991952E+02  0.19949983993E+03  0.12500000000E+03 0.  0.
         25    1    1    2    0    0  0.76606645721E+02 -0.40178017515E+02  0.96837435591E+02  0.18023690020E+03  0.12500000000E+03 0.  0.
         25    1    1    2    0    0 -0.92704443803E+02  0.18936128796E+03  0.15113516640E+04  0.15310978622E+04  0.12500000000E+03 0.  0.
</event>
<event>
 5    0  0.5568866E-005  0.3550381E+03  0.7546771E-02  0.1060566E+00
         21   -1    0    0  502  501  0.00000000000E+00  0.00000000000E+00  0.34115115376E+02  0.34115115376E+02  0.00000000000E+00 0.  1.
         21   -1    0    0  501  502 -0.00000000000E+00 -0.00000000000E+00 -0.36949031656E+04  0.36949031656E+04  0.00000000000E+00 0.  1.
         25    1    1    2    0    0  0.34784839871E+02 -0.56666678589E+02 -0.74687112104E+03  0.76017272313E+03  0.12500000000E+03 0.  0.
         25    1    1    2    0    0  0.11756227495E+03 -0.18715420103E+03 -0.13933790719E+04  0.14163254645E+04  0.12500000000E+03 0.  0.
         25    1    1    2    0    0 -0.15234711482E+03  0.24382087962E+03 -0.15205378574E+04  0.15525200934E+04  0.12500000000E+03 0.  0.
</event>
<event>
 5    0  0.5568866E-005  0.2550658E+03  0.7546771E-02  0.1110145E+00
         21   -1    0    0  502  501  0.00000000000E+00  0.00000000000E+00  0.42615490163E+03  0.42615490163E+03  0.00000000000E+00 0. -1.
         21   -1    0    0  501  502 -0.00000000000E+00 -0.00000000000E+00 -0.15266405986E+03  0.15266405986E+03  0.00000000000E+00 0. -1.
         25    1    1    2    0    0 -0.18639747036E+02 -0.11985123068E+03  0.14648101792E+03  0.22758173537E+03  0.12500000000E+03 0.  0.
         25    1    1    2    0    0 -0.54043061808E+02  0.42462112216E+02 -0.18591271887E+01  0.14266092618E+03  0.12500000000E+03 0.  0.
         25    1    1    2    0    0  0.72682808844E+02  0.77389118461E+02  0.12886895104E+03  0.20857629995E+03  0.12500000000E+03 0.  0.
</event>
<event>
 5    0  0.5568866E-005  0.4665572E+03  0.7546771E-02  0.1022896E+00
         21   -1    0    0  502  501  0.00000000000E+00  0.00000000000E+00  0.18388303862E+04  0.18388303862E+04  0.00000000000E+00 0. -1.
         21   -1    0    0  501  502 -0.00000000000E+00 -0.00000000000E+00 -0.11837720406E+03  0.11837720406E+03  0.00000000000E+00 0. -1.
         25    1    1    2    0    0  0.26134106124E+03  0.10233574341E+03  0.14360856498E+04  0.14685839262E+04  0.12500000000E+03 0.  0.
         25    1    1    2    0    0 -0.57030294698E+02 -0.13164137755E+01  0.99113776058E+02  0.16941879489E+03  0.12500000000E+03 0.  0.
         25    1    1    2    0    0 -0.20431076655E+03 -0.10101932963E+03  0.18525375623E+03  0.31920486914E+03  0.12500000000E+03 0.  0.
</event>
<event>
 5    0  0.5568866E-005  0.4922487E+03  0.7546771E-02  0.1015822E+00
         21   -1    0    0  502  501  0.00000000000E+00  0.00000000000E+00  0.22618749444E+03  0.22618749444E+03  0.00000000000E+00 0. -1.
         21   -1    0    0  501  502 -0.00000000000E+00 -0.00000000000E+00 -0.10712738013E+04  0.10712738013E+04  0.00000000000E+00 0. -1.
         25    1    1    2    0    0 -0.16762665738E+03  0.38141910742E+03 -0.31923567758E+03  0.53955134103E+03  0.12500000000E+03 0.  0.
         25    1    1    2    0    0  0.44682142245E+01 -0.29690971934E+03 -0.33758062578E+03  0.46664871722E+03  0.12500000000E+03 0.  0.
         25    1    1    2    0    0  0.16315844316E+03 -0.84509388081E+02 -0.18827000349E+03  0.29126123749E+03  0.12500000000E+03 0.  0.
</event>
<event>
 5    0  0.5568866E-005  0.3197587E+03  0.7546771E-02  0.1075760E+00
         21   -1    0    0  502  501  0.00000000000E+00  0.00000000000E+00  0.15163709320E+04  0.15163709320E+04  0.00000000000E+00 0. -1.
         21   -1    0    0  501  502 -0.00000000000E+00 -0.00000000000E+00 -0.67427858627E+02  0.67427858627E+02  0.00000000000E+00 0. -1.
         25    1    1    2    0    0 -0.10535353627E+03  0.12102476268E+03  0.21474290282E+03  0.29578011275E+03  0.12500000000E+03 0.  0.
         25    1    1    2    0    0  0.14462960422E+03 -0.13651766055E+03  0.84620337070E+03  0.87820267515E+03  0.12500000000E+03 0.  0.
         25    1    1    2    0    0 -0.39276067948E+02  0.15492897872E+02  0.38799679988E+03  0.40981600276E+03  0.12500000000E+03 0.  0.
</event>
<event>
 5    0  0.5568866E-005  0.2410892E+03  0.7546771E-02  0.1119069E+00
         21   -1    0    0  502  501  0.00000000000E+00  0.00000000000E+00  0.71560112085E+03  0.71560112085E+03  0.00000000000E+00 0. -1.
         21   -1    0    0  501  502 -0.00000000000E+00 -0.00000000000E+00 -0.81224030350E+02  0.81224030350E+02  0.00000000000E+00 0. -1.
         25    1    1    2    0    0  0.64245013306E+01 -0.42733821736E+02  0.22414598606E+03  0.26025732805E+03  0.12500000000E+03 0.  0.
         25    1    1    2    0    0 -0.85147271518E+01 -0.96916112318E+02  0.18489474447E+03  0.24346724613E+03  0.12500000000E+03 0.  0.
         25    1    1    2    0    0  0.20902258213E+01  0.13964993405E+03  0.22533635998E+03  0.29310057702E+03  0.12500000000E+03 0.  0.
</event>
<event>
 5    0  0.6327195E-005  0.2878673E+03  0.7546771E-02  0.1091468E+00
         21   -1    0    0  502  501  0.00000000000E+00  0.00000000000E+00  0.12114896193E+03  0.12114896193E+03  0.00000000000E+00 0.  1.
         21   -1    0    0  501  502 -0.00000000000E+00 -0.00000000000E+00 -0.68401391710E+03  0.68401391710E+03  0.00000000000E+00 0.  1.
         25    1    1    2    0    0 -0.12013504024E+02  0.61739891943E+02 -0.21812654208E+02  0.14162249263E+03  0.12500000000E+03 0.  0.
         25    1    1    2    0    0 -0.28875183572E+02 -0.11549292125E+03 -0.98509933167E+02  0.19875008936E+03  0.12500000000E+03 0.  0.
         25    1    1    2    0    0  0.40888687596E+02  0.53753029312E+02 -0.44254236779E+03  0.46479029704E+03  0.12500000000E+03 0.  0.
</event>
<event>
 5    0  0.5568866E-005  0.2962228E+03  0.7546771E-02  0.1087144E+00
         21   -1    0    0  502  501  0.00000000000E+00  0.00000000000E+00  0.73015817549E+03  0.73015817549E+03  0.00000000000E+00 0.  1.
         21   -1    0    0  501  502 -0.00000000000E+00 -0.00000000000E+00 -0.12017661075E+03  0.12017661075E+03  0.00000000000E+00 0.  1.
         25    1    1    2    0    0 -0.21553109119E+03 -0.22660078309E+02  0.33876528641E+03  0.42113424190E+03  0.12500000000E+03 0.  0.
         25    1    1    2    0    0  0.85347315004E+02  0.12784474422E+02  0.12308142718E+03  0.19550356692E+03  0.12500000000E+03 0.  0.
         25    1    1    2    0    0  0.13018377618E+03  0.98756038874E+01  0.14813485115E+03  0.23369697743E+03  0.12500000000E+03 0.  0.
</event>
<event>
 5    0  0.5568866E-005  0.2405458E+03  0.7546771E-02  0.1119430E+00
         21   -1    0    0  502  501  0.00000000000E+00  0.00000000000E+00  0.21040271711E+03  0.21040271711E+03  0.00000000000E+00 0.  1.
         21   -1    0    0  501  502 -0.00000000000E+00 -0.00000000000E+00 -0.27500719217E+03  0.27500719217E+03  0.00000000000E+00 0.  1.
         25    1    1    2    0    0  0.12223068195E+03  0.33687332261E+02  0.32041320740E+02  0.18090556155E+03  0.12500000000E+03 0.  0.
         25    1    1    2    0    0 -0.63484663574E+02 -0.41760247161E+02 -0.24002764087E+02  0.14824086291E+03  0.12500000000E+03 0.  0.
         25    1    1    2    0    0 -0.58746018376E+02  0.80729148994E+01 -0.72643031714E+02  0.15626348482E+03  0.12500000000E+03 0.  0.
</event>
<event>
 5    0  0.5568866E-005  0.3869317E+03  0.7546771E-02  0.1048401E+00
         21   -1    0    0  502  501  0.00000000000E+00  0.00000000000E+00  0.17774905024E+03  0.17774905024E+03  0.00000000000E+00 0.  1.
         21   -1    0    0  501  502 -0.00000000000E+00 -0.00000000000E+00 -0.84228959823E+03  0.84228959823E+03  0.00000000000E+00 0.  1.
         25    1    1    2    0    0  0.40954671627E+02  0.76557208163E+02 -0.77721759719E+02  0.17089167090E+03  0.12500000000E+03 0.  0.
         25    1    1    2    0    0 -0.23019269045E+03  0.29648435763E+02 -0.66766840232E+02  0.27193844053E+03  0.12500000000E+03 0.  0.
         25    1    1    2    0    0  0.18923801883E+03 -0.10620564393E+03 -0.52005194805E+03  0.57720853704E+03  0.12500000000E+03 0.  0.
</event>
<event>
 5    0  0.5568866E-005  0.3507583E+03  0.7546771E-02  0.1062304E+00
         21   -1    0    0  502  501  0.00000000000E+00  0.00000000000E+00  0.22772058152E+04  0.22772058152E+04  0.00000000000E+00 0. -1.
         21   -1    0    0  501  502 -0.00000000000E+00 -0.00000000000E+00 -0.54027351430E+02  0.54027351430E+02  0.00000000000E+00 0. -1.
         25    1    1    2    0    0  0.24042022877E+03  0.98160722065E+02  0.12907705408E+04  0.13225547258E+04  0.12500000000E+03 0.  0.
         25    1    1    2    0    0 -0.42216193605E+02 -0.17058389693E+02  0.26111258780E+03  0.29304944833E+03  0.12500000000E+03 0.  0.
         25    1    1    2    0    0 -0.19820403516E+03 -0.81102332373E+02  0.67129533519E+03  0.71562899250E+03  0.12500000000E+03 0.  0.
</event>
<event>
 5    0  0.5568866E-005  0.2688279E+03  0.7546771E-02  0.1101952E+00
         21   -1    0    0  502  501  0.00000000000E+00  0.00000000000E+00  0.17202856515E+03  0.17202856515E+03  0.00000000000E+00 0. -1.
         21   -1    0    0  501  502 -0.00000000000E+00 -0.00000000000E+00 -0.42009551882E+03  0.42009551882E+03  0.00000000000E+00 0. -1.
         25    1    1    2    0    0 -0.24481816880E+02 -0.66338299689E+02  0.69478400197E+02  0.15953801258E+03  0.12500000000E+03 0.  0.
         25    1    1    2    0    0  0.60266576526E+02  0.36314438666E+02 -0.23607930360E+03  0.27624126464E+03  0.12500000000E+03 0.  0.
         25    1    1    2    0    0 -0.35784759647E+02  0.30023861024E+02 -0.81466050260E+02  0.15634480675E+03  0.12500000000E+03 0.  0.
</event>
<event>
 5    0  0.5568866E-005  0.4023897E+03  0.7546771E-02  0.1042955E+00
         21   -1    0    0  502  501  0.00000000000E+00  0.00000000000E+00  0.27879321022E+03  0.27879321022E+03  0.00000000000E+00 0. -1.
         21   -1    0    0  501  502 -0.00000000000E+00 -0.00000000000E+00 -0.58077973179E+03  0.58077973179E+03  0.00000000000E+00 0. -1.
         25    1    1    2    0    0  0.14922419231E+03 -0.75446899880E+02 -0.14068178880E+03  0.25174681721E+03  0.12500000000E+03 0.  0.
         25    1    1    2    0    0  0.55743523403E+02  0.20644541675E+03 -0.21632035568E+03  0.32885642274E+03  0.12500000000E+03 0.  0.
         25    1    1    2    0    0 -0.20496771571E+03 -0.13099851687E+03  0.55015622908E+02  0.27896970206E+03  0.12500000000E+03 0.  0.
</event>
<event>
 5    0  0.5568866E-005  0.3257740E+03  0.7546771E-02  0.1073022E+00
         21   -1    0    0  502  501  0.00000000000E+00  0.00000000000E+00  0.96884920025E+03  0.96884920025E+03  0.00000000000E+00 0.  1.
         21   -1    0    0  501  502 -0.00000000000E+00 -0.00000000000E+00 -0.10954096907E+03  0.10954096907E+03  0.00000000000E+00 0.  1.
         25    1    1    2    0    0 -0.25562223590E+02  0.97567849155E+02  0.57235784081E+03  0.59446733334E+03  0.12500000000E+03 0.  0.
         25    1    1    2    0    0 -0.53107980241E+02 -0.15336219639E+03  0.24731889271E+03  0.32114179974E+03  0.12500000000E+03 0.  0.
         25    1    1    2    0    0  0.78670203831E+02  0.55794347239E+02  0.39631497654E+02  0.16278103624E+03  0.12500000000E+03 0.  0.
</event>
<event>
 5    0  0.5568866E-005  0.3526431E+03  0.7546771E-02  0.1061535E+00
         21   -1    0    0  502  501  0.00000000000E+00  0.00000000000E+00  0.64974145296E+03  0.64974145296E+03  0.00000000000E+00 0.  1.
         21   -1    0    0  501  502 -0.00000000000E+00 -0.00000000000E+00 -0.19139481424E+03  0.19139481424E+03  0.00000000000E+00 0.  1.
         25    1    1    2    0    0 -0.15384844347E+03 -0.12665522599E+03  0.17435502406E+03  0.29280635964E+03  0.12500000000E+03 0.  0.
         25    1    1    2    0    0  0.71687754828E+02 -0.29625386030E+02  0.29717865064E+03  0.33159756948E+03  0.12500000000E+03 0.  0.
         25    1    1    2    0    0  0.82160688642E+02  0.15628061202E+03 -0.13187035974E+02  0.21673233808E+03  0.12500000000E+03 0.  0.
</event>
<event>
 5    0  0.5568866E-005  0.2731707E+03  0.7546771E-02  0.1099479E+00
         21   -1    0    0  502  501  0.00000000000E+00  0.00000000000E+00  0.11939231586E+03  0.11939231586E+03  0.00000000000E+00 0.  1.
         21   -1    0    0  501  502 -0.00000000000E+00 -0.00000000000E+00 -0.62501692246E+03  0.62501692246E+03  0.00000000000E+00 0.  1.
         25    1    1    2    0    0  0.12767743535E+03  0.12753837873E+03 -0.15797834840E+03  0.27046205669E+03  0.12500000000E+03 0.  0.
         25    1    1    2    0    0 -0.26923767500E+02 -0.57231393220E+02 -0.20328042599E+03  0.24687700017E+03  0.12500000000E+03 0.  0.
         25    1    1    2    0    0 -0.10075366785E+03 -0.70306985510E+02 -0.14436583221E+03  0.22707018146E+03  0.12500000000E+03 0.  0.
</event>
<event>
 5    0  0.5568866E-005  0.2378062E+03  0.7546771E-02  0.1121263E+00
         21   -1    0    0  502  501  0.00000000000E+00  0.00000000000E+00  0.94953743775E+02  0.94953743775E+02  0.00000000000E+00 0.  1.
         21   -1    0    0  501  502 -0.00000000000E+00 -0.00000000000E+00 -0.59557221314E+03  0.59557221314E+03  0.00000000000E+00 0.  1.
         25    1    1    2    0    0  0.40638201154E+02 -0.60814588668E+02 -0.29539380238E+03  0.32898689346E+03  0.12500000000E+03 0.  0.
         25    1    1    2    0    0 -0.55215637709E+02  0.94109010786E+02 -0.13314436466E+03  0.21273855880E+03  0.12500000000E+03 0.  0.
         25    1    1    2    0    0  0.14577436556E+02 -0.33294422118E+02 -0.72080302320E+02  0.14880050465E+03  0.12500000000E+03 0.  0.
</event>
<event>
 5    0  0.5568866E-005  0.2805010E+03  0.7546771E-02  0.1095416E+00
         21   -1    0    0  502  501  0.00000000000E+00  0.00000000000E+00  0.26471677274E+03  0.26471677274E+03  0.00000000000E+00 0. -1.
         21   -1    0    0  501  502 -0.00000000000E+00 -0.00000000000E+00 -0.29722633724E+03  0.29722633724E+03  0.00000000000E+00 0. -1.
         25    1    1    2    0    0 -0.18760236258E+02 -0.15820892067E+03 -0.55802487029E+02  0.21004981933E+03  0.12500000000E+03 0.  0.
         25    1    1    2    0    0 -0.29563860743E+02  0.15137808863E+03 -0.41591067584E+02  0.20284024374E+03  0.12500000000E+03 0.  0.
         25    1    1    2    0    0  0.48324097000E+02  0.68308320397E+01  0.64883990114E+02  0.14905304690E+03  0.12500000000E+03 0.  0.
</event>
<event>
 5    0  0.5568866E-005  0.2577776E+03  0.7546771E-02  0.1108486E+00
         21   -1    0    0  502  501  0.00000000000E+00  0.00000000000E+00  0.11615349795E+04  0.11615349795E+04  0.00000000000E+00 0.  1.
         21   -1    0    0  501  502 -0.00000000000E+00 -0.00000000000E+00 -0.57208191424E+02  0.57208191424E+02  0.00000000000E+00 0.  1.
         25    1    1    2    0    0 -0.11098529907E+03 -0.30822912782E+02  0.64018201429E+03  0.66236379731E+03  0.12500000000E+03 0.  0.
         25    1    1    2    0    0  0.10748647857E+03 -0.13974749759E+02  0.32080164039E+03  0.36095336151E+03  0.12500000000E+03 0.  0.
         25    1    1    2    0    0  0.34988205043E+01  0.44797662541E+02  0.14334313336E+03  0.19542601208E+03  0.12500000000E+03 0.  0.
</event>
<event>
 5    0  0.5568866E-005  0.3349472E+03  0.7546771E-02  0.1068969E+00
         21   -1    0    0  502  501  0.00000000000E+00  0.00000000000E+00  0.30035492903E+03  0.30035492903E+03  0.00000000000E+00 0. -1.
         21   -1    0    0  501  502 -0.00000000000E+00 -0.00000000000E+00 -0.37352355572E+03  0.37352355572E+03  0.00000000000E+00 0. -1.
         25    1    1    2    0    0 -0.37868105444E+02 -0.48121117006E+02 -0.20420078148E+03  0.24712870021E+03  0.12500000000E+03 0.  0.
         25    1    1    2    0    0  0.11068250122E+03 -0.79280485253E+02 -0.14239436736E+02  0.18537468267E+03  0.12500000000E+03 0.  0.
         25    1    1    2    0    0 -0.72814395776E+02  0.12740160226E+03  0.14527159154E+03  0.24137510186E+03  0.12500000000E+03 0.  0.
</event>
<event>
 5    0  0.5568866E-005  0.2310364E+03  0.7546771E-02  0.1125912E+00
         21   -1    0    0  502  501  0.00000000000E+00  0.00000000000E+00  0.87341116049E+03  0.87341116049E+03  0.00000000000E+00 0.  1.
         21   -1    0    0  501  502 -0.00000000000E+00 -0.00000000000E+00 -0.61114218817E+02  0.61114218817E+02  0.00000000000E+00 0.  1.
         25    1    1    2    0    0  0.87894346917E+01 -0.62378620579E+02  0.18350564475E+03  0.23079789454E+03  0.12500000000E+03 0.  0.
         25    1    1    2    0    0 -0.11586054711E+02 -0.35142723600E+02  0.43065621206E+03  0.44995446511E+03  0.12500000000E+03 0.  0.
         25    1    1    2    0    0  0.27966200197E+01  0.97521344179E+02  0.19813508486E+03  0.25377301966E+03  0.12500000000E+03 0.  0.
</event>
<event>
 5    0  0.5568866E-005  0.2766745E+03  0.7546771E-02  0.1097519E+00
         21   -1    0    0  502  501  0.00000000000E+00  0.00000000000E+00  0.17824282260E+03  0.17824282260E+03  0.00000000000E+00 0.  1.
         21   -1    0    0  501  502 -0.00000000000E+00 -0.00000000000E+00 -0.42946359842E+03  0.42946359842E+03  0.00000000000E+00 0.  1.
         25    1    1    2    0    0  0.15792366897E+03 -0.19126017738E+02 -0.40184909923E+02  0.20626564610E+03  0.12500000000E+03 0.  0.
         25    1    1    2    0    0 -0.15156830476E+03  0.54407346023E+02 -0.86711540115E+02  0.22153329659E+03  0.12500000000E+03 0.  0.
         25    1    1    2    0    0 -0.63553642121E+01 -0.35281328285E+02 -0.12432432578E+03  0.17990747833E+03  0.12500000000E+03 0.  0.
</event>
<event>
 5    0  0.5568866E-005  0.3993158E+03  0.7546771E-02  0.1044017E+00
         21   -1    0    0  502  501  0.00000000000E+00  0.00000000000E+00  0.22196192627E+03  0.22196192627E+03  0.00000000000E+00 0.  1.
         21   -1    0    0  501  502 -0.00000000000E+00 -0.00000000000E+00 -0.71838053105E+03  0.71838053105E+03  0.00000000000E+00 0.  1.
         25    1    1    2    0    0 -0.56846563662E+01  0.13503806597E+03 -0.20949798924E+03  0.27889424891E+03  0.12500000000E+03 0.  0.
         25    1    1    2    0    0 -0.22564502540E+03  0.61071652785E+02 -0.96134932493E+02  0.28197934234E+03  0.12500000000E+03 0.  0.
         25    1    1    2    0    0  0.23132968176E+03 -0.19610971876E+03 -0.19078568305E+03  0.37946886607E+03  0.12500000000E+03 0.  0.
</event>
<event>
 5    0  0.5568866E-005  0.2806321E+03  0.7546771E-02  0.1095344E+00
         21   -1    0    0  502  501  0.00000000000E+00  0.00000000000E+00  0.86236867861E+03  0.86236867861E+03  0.00000000000E+00 0.  1.
         21   -1    0    0  501  502 -0.00000000000E+00 -0.00000000000E+00 -0.91323336679E+02  0.91323336679E+02  0.00000000000E+00 0.  1.
         25    1    1    2    0    0 -0.10269684646E+03  0.29966834997E+01  0.17787940891E+03  0.24046144493E+03  0.12500000000E+03 0.  0.
         25    1    1    2    0    0  0.19390924543E+03 -0.35160259083E+02  0.29897363025E+03  0.37927202753E+03  0.12500000000E+03 0.  0.
         25    1    1    2    0    0 -0.91212398969E+02  0.32163575583E+02  0.29419230277E+03  0.33395854283E+03  0.12500000000E+03 0.  0.
</event>
<event>
 5    0  0.5568866E-005  0.2990377E+03  0.7546771E-02  0.1085723E+00
         21   -1    0    0  502  501  0.00000000000E+00  0.00000000000E+00  0.50218846295E+02  0.50218846295E+02  0.00000000000E+00 0.  1.
         21   -1    0    0  501  502 -0.00000000000E+00 -0.00000000000E+00 -0.17806771233E+04  0.17806771233E+04  0.00000000000E+00 0.  1.
         25    1    1    2    0    0  0.73576075338E+02 -0.15391522964E+03 -0.62823459393E+03  0.66287784831E+03  0.12500000000E+03 0.  0.
         25    1    1    2    0    0  0.31317785660E+02 -0.25312151332E+02 -0.54060055573E+03  0.55632317008E+03  0.12500000000E+03 0.  0.
         25    1    1    2    0    0 -0.10489386100E+03  0.17922738097E+03 -0.56162312735E+03  0.61169495122E+03  0.12500000000E+03 0.  0.
</event>
<event>
 5    0  0.5568866E-005  0.2653284E+03  0.7546771E-02  0.1103983E+00
         21   -1    0    0  502  501  0.00000000000E+00  0.00000000000E+00  0.65765293042E+03  0.65765293042E+03  0.00000000000E+00 0. -1.
         21   -1    0    0  501  502 -0.00000000000E+00 -0.00000000000E+00 -0.10704609927E+03  0.10704609927E+03  0.00000000000E+00 0. -1.
         25    1    1    2    0    0 -0.11669189507E+02 -0.78694408125E+01 -0.18983668085E+02  0.12721429847E+03  0.12500000000E+03 0.  0.
         25    1    1    2    0    0  0.47711899346E+02 -0.30685517245E+02  0.19020502372E+03  0.23456550760E+03  0.12500000000E+03 0.  0.
         25    1    1    2    0    0 -0.36042709840E+02  0.38554958058E+02  0.37938547552E+03  0.40291922361E+03  0.12500000000E+03 0.  0.
</event>
<event>
 5    0  0.5568866E-005  0.3145592E+03  0.7546771E-02  0.1078181E+00
         21   -1    0    0  502  501  0.00000000000E+00  0.00000000000E+00  0.54284635617E+03  0.54284635617E+03  0.00000000000E+00 0.  1.
         21   -1    0    0  501  502 -0.00000000000E+00 -0.00000000000E+00 -0.18227532243E+03  0.18227532243E+03  0.00000000000E+00 0.  1.
         25    1    1    2    0    0 -0.88882982542E+02  0.38403811787E+02  0.30533073774E+03  0.34384138313E+03  0.12500000000E+03 0.  0.
         25    1    1    2    0    0 -0.32027848083E+02  0.84618192253E+02 -0.19479555931E+02  0.15553287309E+03  0.12500000000E+03 0.  0.
         25    1    1    2    0    0  0.12091083062E+03 -0.12302200404E+03  0.74719851939E+02  0.22574742239E+03  0.12500000000E+03 0.  0.
</event>
<event>
 5    0  0.6147510E-005  0.5574071E+03  0.7546771E-02  0.9997939E-01
         21   -1    0    0  502  501  0.00000000000E+00  0.00000000000E+00  0.12297201353E+04  0.12297201353E+04  0.00000000000E+00 0.  1.
         21   -1    0    0  501  502 -0.00000000000E+00 -0.00000000000E+00 -0.25266129587E+03  0.25266129587E+03  0.00000000000E+00 0.  1.
         25    1    1    2    0    0 -0.12445645091E+03 -0.19487135047E+03  0.44815126492E+02  0.26664142021E+03  0.12500000000E+03 0.  0.
         25    1    1    2    0    0  0.40140639536E+03  0.20213397647E+01  0.49610741670E+03  0.65029128008E+03  0.12500000000E+03 0.  0.
         25    1    1    2    0    0 -0.27694994445E+03  0.19285001070E+03  0.43613629621E+03  0.56544873086E+03  0.12500000000E+03 0.  0.
</event>
<event>
 5    0  0.5568866E-005  0.2764655E+03  0.7546771E-02  0.1097635E+00
         21   -1    0    0  502  501  0.00000000000E+00  0.00000000000E+00  0.12879034542E+03  0.12879034542E+03  0.00000000000E+00 0.  1.
         21   -1    0    0  501  502 -0.00000000000E+00 -0.00000000000E+00 -0.59346955502E+03  0.59346955502E+03  0.00000000000E+00 0.  1.
         25    1    1    2    0    0  0.11753949188E+03  0.19678465033E+02 -0.14094896634E+03  0.22292237494E+03  0.12500000000E+03 0.  0.
         25    1    1    2    0    0 -0.16369544851E+03 -0.86814692100E+02 -0.14461246876E+03  0.26621562078E+03  0.12500000000E+03 0.  0.
         25    1    1    2    0    0  0.46155956636E+02  0.67136227066E+02 -0.17911777449E+03  0.23312190471E+03  0.12500000000E+03 0.  0.
</event>
<event>
 5    0  0.5568866E-005  0.2363720E+03  0.7546771E-02  0.1122234E+00
         21   -1    0    0  502  501  0.00000000000E+00  0.00000000000E+00  0.14289264279E+03  0.14289264279E+03  0.00000000000E+00 0. -1.
         21   -1    0    0  501  502 -0.00000000000E+00 -0.00000000000E+00 -0.39100502055E+03  0.39100502055E+03  0.00000000000E+00 0. -1.
         25    1    1    2    0    0  0.28770559088E+01  0.55225911479E+02 -0.14614101547E+03  0.20010091242E+03  0.12500000000E+03 0.  0.
         25    1    1    2    0    0  0.20953659941E+02  0.97935666435E+01  0.39095259308E+02  0.13299777860E+03  0.12500000000E+03 0.  0.
         25    1    1    2    0    0 -0.23830715850E+02 -0.65019478122E+02 -0.14106662159E+03  0.20079897231E+03  0.12500000000E+03 0.  0.
</event>
<event>
 5    0  0.5568866E-005  0.2553249E+03  0.7546771E-02  0.1109985E+00
         21   -1    0    0  502  501  0.00000000000E+00  0.00000000000E+00  0.70103032445E+03  0.70103032445E+03  0.00000000000E+00 0.  1.
         21   -1    0    0  501  502 -0.00000000000E+00 -0.00000000000E+00 -0.92992856179E+02  0.92992856179E+02  0.00000000000E+00 0.  1.
         25    1    1    2    0    0  0.85747440810E+02 -0.16340242073E+02  0.74742452480E+02  0.16979711811E+03  0.12500000000E+03 0.  0.
         25    1    1    2    0    0  0.15006386204E+02  0.82744316742E+02  0.24314626189E+03  0.28603656803E+03  0.12500000000E+03 0.  0.
         25    1    1    2    0    0 -0.10075382701E+03 -0.66404074669E+02  0.29014875390E+03  0.33818949448E+03  0.12500000000E+03 0.  0.
</event>
<event>
 5    0  0.5568866E-005  0.2753248E+03  0.7546771E-02  0.1098270E+00
         21   -1    0    0  502  501  0.00000000000E+00  0.00000000000E+00  0.84254630088E+03  0.84254630088E+03  0.00000000000E+00 0.  1.
         21   -1    0    0  501  502 -0.00000000000E+00 -0.00000000000E+00 -0.89969846910E+02  0.89969846910E+02  0.00000000000E+00 0.  1.
         25    1    1    2    0    0 -0.74293849877E+01  0.95350095940E+01  0.52668216406E+03  0.54144733272E+03  0.12500000000E+03 0.  0.
         25    1    1    2    0    0 -0.10127344643E+01 -0.10199998850E+03  0.92123352942E+02  0.18578680104E+03  0.12500000000E+03 0.  0.
         25    1    1    2    0    0  0.84421194520E+01  0.92464978906E+02  0.13377093697E+03  0.20528201402E+03  0.12500000000E+03 0.  0.
</event>
<event>
 5    0  0.5568866E-005  0.2836025E+03  0.7546771E-02  0.1093737E+00
         21   -1    0    0  502  501  0.00000000000E+00  0.00000000000E+00  0.44246652925E+03  0.44246652925E+03  0.00000000000E+00 0.  1.
         21   -1    0    0  501  502 -0.00000000000E+00 -0.00000000000E+00 -0.18177727997E+03  0.18177727997E+03  0.00000000000E+00 0.  1.
         25    1    1    2    0    0 -0.17612804940E+02  0.27842509676E+01  0.16514011768E+03  0.20788030551E+03  0.12500000000E+03 0.  0.
         25    1    1    2    0    0 -0.12674763045E+03 -0.65023634737E+02  0.10237327633E+03  0.21540269870E+03  0.12500000000E+03 0.  0.
         25    1    1    2    0    0  0.14436043539E+03  0.62239383769E+02 -0.68241447378E+01  0.20096080501E+03  0.12500000000E+03 0.  0.
</event>
<event>
 5    0  0.6393014E-005  0.2886969E+03  0.7546771E-02  0.1091031E+00
         21   -1    0    0  502  501  0.00000000000E+00  0.00000000000E+00  0.60028676218E+03  0.60028676218E+03  0.00000000000E+00 0. -1.
         21   -1    0    0  501  502 -0.00000000000E+00 -0.00000000000E+00 -0.13884349944E+03  0.13884349944E+03  0.00000000000E+00 0. -1.
         25    1    1    2    0    0 -0.15455183727E+03 -0.70578386626E+02  0.56724888673E+02  0.21842685746E+03  0.12500000000E+03 0.  0.
         25    1    1    2    0    0  0.14553352400E+03  0.22601931104E+02  0.24882382105E+03  0.31500658377E+03  0.12500000000E+03 0.  0.
         25    1    1    2    0    0  0.90183132703E+01  0.47976455522E+02  0.15589455301E+03  0.20569682039E+03  0.12500000000E+03 0.  0.
</event>
<event>
 5    0  0.5568866E-005  0.2764774E+03  0.7546771E-02  0.1097629E+00
         21   -1    0    0  502  501  0.00000000000E+00  0.00000000000E+00  0.48353524529E+02  0.48353524529E+02  0.00000000000E+00 0.  1.
         21   -1    0    0  501  502 -0.00000000000E+00 -0.00000000000E+00 -0.15808518652E+04  0.15808518652E+04  0.00000000000E+00 0.  1.
         25    1    1    2    0    0  0.79222218751E+02 -0.24046785304E+02 -0.94859538711E+03  0.96037108259E+03  0.12500000000E+03 0.  0.
         25    1    1    2    0    0  0.49079684864E+02  0.16616529044E+01 -0.33864631007E+03  0.36430468001E+03  0.12500000000E+03 0.  0.
         25    1    1    2    0    0 -0.12830190361E+03  0.22385132399E+02 -0.24525664352E+03  0.30452962716E+03  0.12500000000E+03 0.  0.
</event>
<event>
 5    0  0.5698582E-005  0.4230286E+03  0.7546771E-02  0.1036085E+00
         21   -1    0    0  502  501  0.00000000000E+00  0.00000000000E+00  0.27859832523E+03  0.27859832523E+03  0.00000000000E+00 0. -1.
         21   -1    0    0  501  502 -0.00000000000E+00 -0.00000000000E+00 -0.64233406597E+03  0.64233406597E+03  0.00000000000E+00 0. -1.
         25    1    1    2    0    0  0.47568878016E+02  0.87657626985E+02 -0.42190455469E+03  0.45119298642E+03  0.12500000000E+03 0.  0.
         25    1    1    2    0    0 -0.14819492159E+03  0.96820506871E+02 -0.65856308011E+01  0.21680478747E+03  0.12500000000E+03 0.  0.
         25    1    1    2    0    0  0.10062604358E+03 -0.18447813386E+03  0.64754444752E+02  0.25293461731E+03  0.12500000000E+03 0.  0.
</event>
<event>
 5    0  0.5568866E-005  0.3688019E+03  0.7546771E-02  0.1055152E+00
         21   -1    0    0  502  501  0.00000000000E+00  0.00000000000E+00  0.24903215767E+04  0.24903215767E+04  0.00000000000E+00 0.  1.
         21   -1    0    0  501  502 -0.00000000000E+00 -0.00000000000E+00 -0.54617381012E+02  0.54617381012E+02  0.00000000000E+00 0.  1.
         25    1    1    2    0    0 -0.21977021473E+02 -0.12602709371E+03  0.13764193433E+04  0.13879917242E+04  0.12500000000E+03 0.  0.
         25    1    1    2    0    0  0.11593309555E+03 -0.50126229377E+02  0.73479817536E+03  0.75598047596E+03  0.12500000000E+03 0.  0.
         25    1    1    2    0    0 -0.93956074075E+02  0.17615332309E+03  0.32448667697E+03  0.40096675750E+03  0.12500000000E+03 0.  0.
</event>
<event>
 5    0  0.6298260E-005  0.3449175E+03  0.7546771E-02  0.1064721E+00
         21   -1    0    0  502  501  0.00000000000E+00  0.00000000000E+00  0.71774928250E+02  0.71774928250E+02  0.00000000000E+00 0. -1.
         21   -1    0    0  501  502 -0.00000000000E+00 -0.00000000000E+00 -0.16575160622E+04  0.16575160622E+04  0.00000000000E+00 0. -1.
         25    1    1    2    0    0  0.73949216617E+02  0.76250398697E+02 -0.10436773509E+03  0.19442282291E+03  0.12500000000E+03 0.  0.
         25    1    1    2    0    0  0.94487280621E+02 -0.43121873567E+02 -0.92850803268E+03  0.94262373667E+03  0.12500000000E+03 0.  0.
         25    1    1    2    0    0 -0.16843649724E+03 -0.33128525131E+02 -0.55286536618E+03  0.59224443087E+03  0.12500000000E+03 0.  0.
</event>
<event>
 5    0  0.5568866E-005  0.2183149E+03  0.7546771E-02  0.1135146E+00
         21   -1    0    0  502  501  0.00000000000E+00  0.00000000000E+00  0.31996850014E+03  0.31996850014E+03  0.00000000000E+00 0. -1.
         21   -1    0    0  501  502 -0.00000000000E+00 -0.00000000000E+00 -0.14895658154E+03  0.14895658154E+03  0.00000000000E+00 0. -1.
         25    1    1    2    0    0 -0.15526868315E+01  0.85390570526E+02  0.81396377080E+02  0.17188464321E+03  0.12500000000E+03 0.  0.
         25    1    1    2    0    0  0.49107779119E+02 -0.40482780693E+02  0.61637517722E+02  0.15321427183E+03  0.12500000000E+03 0.  0.
         25    1    1    2    0    0 -0.47555092288E+02 -0.44907789833E+02  0.27978023797E+02  0.14382616662E+03  0.12500000000E+03 0.  0.
</event>
<event>
 5    0  0.5568866E-005  0.5223260E+03  0.7546771E-02  0.1008110E+00
         21   -1    0    0  502  501  0.00000000000E+00  0.00000000000E+00  0.36860988818E+03  0.36860988818E+03  0.00000000000E+00 0.  1.
         21   -1    0    0  501  502 -0.00000000000E+00 -0.00000000000E+00 -0.74014413086E+03  0.74014413086E+03  0.00000000000E+00 0.  1.
         25    1    1    2    0    0 -0.36080203486E+03 -0.24366262002E+03 -0.22121450590E+03  0.50409368015E+03  0.12500000000E+03 0.  0.
         25    1    1    2    0    0  0.23150654776E+03  0.71543962051E+02 -0.21527490504E+03  0.34739330003E+03  0.12500000000E+03 0.  0.
         25    1    1    2    0    0  0.12929548710E+03  0.17211865797E+03  0.64955168256E+02  0.25726703887E+03  0.12500000000E+03 0.  0.
</event>
<event>
 5    0  0.5568866E-005  0.2422643E+03  0.7546771E-02  0.1118294E+00
         21   -1    0    0  502  501  0.00000000000E+00  0.00000000000E+00  0.51561870761E+03  0.51561870761E+03  0.00000000000E+00 0. -1.
         21   -1    0    0  501  502 -0.00000000000E+00 -0.00000000000E+00 -0.11382831529E+03  0.11382831529E+03  0.00000000000E+00 0. -1.
         25    1    1    2    0    0 -0.34719100985E+02  0.79069047925E+02  0.85729468478E+02  0.17444733325E+03  0.12500000000E+03 0.  0.
         25    1    1    2    0    0  0.10276280157E+03 -0.12813384203E+02  0.21051748996E+03  0.26583263490E+03  0.12500000000E+03 0.  0.
         25    1    1    2    0    0 -0.68043700585E+02 -0.66255663721E+02  0.10554343389E+03  0.18916705475E+03  0.12500000000E+03 0.  0.
</event>
<event>
 5    0  0.5568866E-005  0.5023939E+03  0.7546771E-02  0.1013156E+00
         21   -1    0    0  502  501  0.00000000000E+00  0.00000000000E+00  0.52302134162E+03  0.52302134162E+03  0.00000000000E+00 0.  1.
         21   -1    0    0  501  502 -0.00000000000E+00 -0.00000000000E+00 -0.48257998700E+03  0.48257998700E+03  0.00000000000E+00 0.  1.
         25    1    1    2    0    0  0.16971497189E+03  0.81643046526E+02 -0.38665155372E+01  0.22607235274E+03  0.12500000000E+03 0.  0.
         25    1    1    2    0    0  0.27288110278E+03  0.33225458319E+02  0.46153407670E+02  0.30548840301E+03  0.12500000000E+03 0.  0.
         25    1    1    2    0    0 -0.44259607467E+03 -0.11486850485E+03 -0.18455375094E+01  0.47404057287E+03  0.12500000000E+03 0.  0.
</event>
<event>
 5    0  0.5568866E-005  0.3856620E+03  0.7546771E-02  0.1048861E+00
         21   -1    0    0  502  501  0.00000000000E+00  0.00000000000E+00  0.51678556697E+03  0.51678556697E+03  0.00000000000E+00 0. -1.
         21   -1    0    0  501  502 -0.00000000000E+00 -0.00000000000E+00 -0.28780830585E+03  0.28780830585E+03  0.00000000000E+00 0. -1.
         25    1    1    2    0    0 -0.18759548351E+03  0.93520287997E+02 -0.65598938043E+01  0.24414369111E+03  0.12500000000E+03 0.  0.
         25    1    1    2    0    0  0.22922025723E+03  0.16557099880E+02 -0.88791683495E+01  0.26176306751E+03  0.12500000000E+03 0.  0.
         25    1    1    2    0    0 -0.41624773721E+02 -0.11007738788E+03  0.24441632327E+03  0.29868711420E+03  0.12500000000E+03 0.  0.
</event>
<event>
 5    0  0.5828782E-005  0.3411709E+03  0.7546771E-02  0.1066298E+00
         21   -1    0    0  502  501  0.00000000000E+00  0.00000000000E+00  0.43505104960E+03  0.43505104960E+03  0.00000000000E+00 0.  1.
         21   -1    0    0  501  502 -0.00000000000E+00 -0.00000000000E+00 -0.26754931742E+03  0.26754931742E+03  0.00000000000E+00 0. -1.
         25    1    1    2    0    0  0.98186143231E+02 -0.10837636428E+03  0.62749738067E+02  0.20235731932E+03  0.12500000000E+03 0.  0.
         25    1    1    2    0    0 -0.98499318673E+02  0.18205704224E+03  0.21058110311E+03  0.32064978309E+03  0.12500000000E+03 0.  0.
         25    1    1    2    0    0  0.31317544261E+00 -0.73680677959E+02 -0.10582910900E+03  0.17959326461E+03  0.12500000000E+03 0.  0.
</event>
<event>
 5    0  0.5568866E-005  0.3623795E+03  0.7546771E-02  0.1057646E+00
         21   -1    0    0  502  501  0.00000000000E+00  0.00000000000E+00  0.16415993603E+03  0.16415993603E+03  0.00000000000E+00 0.  1.
         21   -1    0    0  501  502 -0.00000000000E+00 -0.00000000000E+00 -0.79994497689E+03  0.79994497689E+03  0.00000000000E+00 0.  1.
         25    1    1    2    0    0  0.86608380531E+02 -0.15468811405E+03 -0.46471310988E+03  0.51284763693E+03  0.12500000000E+03 0.  0.
         25    1    1    2    0    0 -0.12949729342E+03  0.20333702224E+03 -0.14568757511E+03  0.30816450665E+03  0.12500000000E+03 0.  0.
         25    1    1    2    0    0  0.42888912886E+02 -0.48648908187E+02 -0.25384355866E+02  0.14309276935E+03  0.12500000000E+03 0.  0.
</event>
<event>
 5    0  0.5568866E-005  0.4208996E+03  0.7546771E-02  0.1036774E+00
         21   -1    0    0  502  501  0.00000000000E+00  0.00000000000E+00  0.29189216981E+03  0.29189216981E+03  0.00000000000E+00 0. -1.
         21   -1    0    0  501  502 -0.00000000000E+00 -0.00000000000E+00 -0.60692433490E+03  0.60692433490E+03  0.00000000000E+00 0. -1.
         25    1    1    2    0    0  0.14502267132E+03 -0.10141561577E+02 -0.28579834872E+02  0.19384590125E+03  0.12500000000E+03 0.  0.
         25    1    1    2    0    0 -0.28867955324E+03 -0.29395262066E+02  0.46522052657E+02  0.31935758528E+03  0.12500000000E+03 0.  0.
         25    1    1    2    0    0  0.14365688191E+03  0.39536823643E+02 -0.33297438288E+03  0.38561301819E+03  0.12500000000E+03 0.  0.
</event>
<event>
 5    0  0.5568866E-005  0.2351463E+03  0.7546771E-02  0.1123069E+00
         21   -1    0    0  502  501  0.00000000000E+00  0.00000000000E+00  0.10295792975E+03  0.10295792975E+03  0.00000000000E+00 0. -1.
         21   -1    0    0  501  502 -0.00000000000E+00 -0.00000000000E+00 -0.53705210318E+03  0.53705210318E+03  0.00000000000E+00 0. -1.
         25    1    1    2    0    0  0.10494529121E+03 -0.16602878238E+02 -0.24449555567E+03  0.29443547078E+03  0.12500000000E+03 0.  0.
         25    1    1    2    0    0 -0.15040188498E+02  0.15570023927E+02 -0.45749816060E+02  0.13485799414E+03  0.12500000000E+03 0.  0.
         25    1    1    2    0    0 -0.89905102711E+02  0.10328543109E+01 -0.14384880170E+03  0.21071656800E+03  0.12500000000E+03 0.  0.
</event>
<event>
 5    0  0.5568866E-005  0.2560319E+03  0.7546771E-02  0.1109551E+00
         21   -1    0    0  502  501  0.00000000000E+00  0.00000000000E+00  0.10484570744E+03  0.10484570744E+03  0.00000000000E+00 0.  1.
         21   -1    0    0  501  502 -0.00000000000E+00 -0.00000000000E+00 -0.62522645168E+03  0.62522645168E+03  0.00000000000E+00 0.  1.
         25    1    1    2    0    0 -0.56443411540E+02 -0.65350015001E+02 -0.18592143601E+03  0.24010052798E+03  0.12500000000E+03 0.  0.
         25    1    1    2    0    0 -0.70169994430E+02 -0.42963111700E+02 -0.13365590579E+03  0.20064535439E+03  0.12500000000E+03 0.  0.
         25    1    1    2    0    0  0.12661340597E+03  0.10831312670E+03 -0.20080340244E+03  0.28932627675E+03  0.12500000000E+03 0.  0.
</event>
<event>
 5    0  0.5568866E-005  0.3080667E+03  0.7546771E-02  0.1081276E+00
         21   -1    0    0  502  501  0.00000000000E+00  0.00000000000E+00  0.69568461165E+02  0.69568461165E+02  0.00000000000E+00 0.  1.
         21   -1    0    0  501  502 -0.00000000000E+00 -0.00000000000E+00 -0.13641972689E+04  0.13641972689E+04  0.00000000000E+00 0.  1.
         25    1    1    2    0    0 -0.93599347814E+02  0.65497676976E+02 -0.35015385516E+03  0.38895180407E+03  0.12500000000E+03 0.  0.
         25    1    1    2    0    0  0.53942321109E+02 -0.50684779907E+02 -0.71488770595E+02  0.16190850886E+03  0.12500000000E+03 0.  0.
         25    1    1    2    0    0  0.39657026705E+02 -0.14812897069E+02 -0.87298618193E+03  0.88290541709E+03  0.12500000000E+03 0.  0.
</event>
<event>
 5    0  0.5568866E-005  0.3912312E+03  0.7546771E-02  0.1046859E+00
         21   -1    0    0  502  501  0.00000000000E+00  0.00000000000E+00  0.30144266179E+03  0.30144266179E+03  0.00000000000E+00 0.  1.
         21   -1    0    0  501  502 -0.00000000000E+00 -0.00000000000E+00 -0.50776436071E+03  0.50776436071E+03  0.00000000000E+00 0.  1.
         25    1    1    2    0    0  0.14952088946E+03 -0.51545233371E+02 -0.23530085231E+03  0.30984657262E+03  0.12500000000E+03 0.  0.
         25    1    1    2    0    0 -0.10719385671E+03  0.19778716400E+03 -0.85906208010E+02  0.27132114133E+03  0.12500000000E+03 0.  0.
         25    1    1    2    0    0 -0.42327032749E+02 -0.14624193063E+03  0.11488536140E+03  0.22803930854E+03  0.12500000000E+03 0.  0.
</event>
<event>
 5    0  0.5568866E-005  0.3569296E+03  0.7546771E-02  0.1059806E+00
         21   -1    0    0  502  501  0.00000000000E+00  0.00000000000E+00  0.10213210632E+04  0.10213210632E+04  0.00000000000E+00 0. -1.
         21   -1    0    0  501  502 -0.00000000000E+00 -0.00000000000E+00 -0.12473915566E+03  0.12473915566E+03  0.00000000000E+00 0. -1.
         25    1    1    2    0    0 -0.32990592252E+02 -0.80355737485E+02  0.32979625219E+03  0.36322994326E+03  0.12500000000E+03 0.  0.
         25    1    1    2    0    0 -0.62062099909E+02  0.14631656834E+03  0.57779035140E+03  0.61214943648E+03  0.12500000000E+03 0.  0.
         25    1    1    2    0    0  0.95052692161E+02 -0.65960830851E+02 -0.11004696092E+02  0.17068083908E+03  0.12500000000E+03 0.  0.
</event>
<event>
 5    0  0.5568866E-005  0.2491820E+03  0.7546771E-02  0.1113823E+00
         21   -1    0    0  502  501  0.00000000000E+00  0.00000000000E+00  0.78481464780E+03  0.78481464780E+03  0.00000000000E+00 0.  1.
         21   -1    0    0  501  502 -0.00000000000E+00 -0.00000000000E+00 -0.79116358754E+02  0.79116358754E+02  0.00000000000E+00 0.  1.
         25    1    1    2    0    0  0.24512670483E+02 -0.24533333483E+02  0.32820787228E+03  0.35291381794E+03  0.12500000000E+03 0.  0.
         25    1    1    2    0    0 -0.32098005602E+02  0.74122976757E+02  0.34009207441E+03  0.37123054390E+03  0.12500000000E+03 0.  0.
         25    1    1    2    0    0  0.75853351187E+01 -0.49589643274E+02  0.37398342351E+02  0.13978664471E+03  0.12500000000E+03 0.  0.
</event>
<event>
 5    0  0.5568866E-005  0.4138272E+03  0.7546771E-02  0.1039094E+00
         21   -1    0    0  502  501  0.00000000000E+00  0.00000000000E+00  0.10761265173E+04  0.10761265173E+04  0.00000000000E+00 0. -1.
         21   -1    0    0  501  502 -0.00000000000E+00 -0.00000000000E+00 -0.15913829056E+03  0.15913829056E+03  0.00000000000E+00 0. -1.
         25    1    1    2    0    0  0.30345942281E+03 -0.14915607313E+03  0.61818552020E+03  0.71562105393E+03  0.12500000000E+03 0.  0.
         25    1    1    2    0    0 -0.14951273693E+03  0.40612301219E+02  0.14140509774E+03  0.24417989103E+03  0.12500000000E+03 0.  0.
         25    1    1    2    0    0 -0.15394668588E+03  0.10854377191E+03  0.15739760881E+03  0.27546386292E+03  0.12500000000E+03 0.  0.
</event>
<event>
 5    0  0.5568866E-005  0.2964881E+03  0.7546771E-02  0.1087009E+00
         21   -1    0    0  502  501  0.00000000000E+00  0.00000000000E+00  0.17271227643E+03  0.17271227643E+03  0.00000000000E+00 0. -1.
         21   -1    0    0  501  502 -0.00000000000E+00 -0.00000000000E+00 -0.50896888417E+03  0.50896888417E+03  0.00000000000E+00 0. -1.
         25    1    1    2    0    0 -0.16190119414E+03 -0.29244105768E+02 -0.16965022536E+03  0.26734512031E+03  0.12500000000E+03 0.  0.
         25    1    1    2    0    0  0.24432823431E+02  0.18409888083E+01 -0.18609602185E+03  0.22551514683E+03  0.12500000000E+03 0.  0.
         25    1    1    2    0    0  0.13746837071E+03  0.27403116959E+02  0.19489639477E+02  0.18882089347E+03  0.12500000000E+03 0.  0.
</event>
<event>
 5    0  0.5568866E-005  0.3041178E+03  0.7546771E-02  0.1083200E+00
         21   -1    0    0  502  501  0.00000000000E+00  0.00000000000E+00  0.39266919808E+03  0.39266919808E+03  0.00000000000E+00 0.  1.
         21   -1    0    0  501  502 -0.00000000000E+00 -0.00000000000E+00 -0.23553568001E+03  0.23553568001E+03  0.00000000000E+00 0.  1.
         25    1    1    2    0    0  0.56492368245E+02  0.88689039760E+02 -0.63629639645E+02  0.17530220901E+03  0.12500000000E+03 0.  0.
         25    1    1    2    0    0 -0.47980215941E+02 -0.29032550495E+02 -0.52264451230E+02  0.14663411258E+03  0.12500000000E+03 0.  0.
         25    1    1    2    0    0 -0.85121523043E+01 -0.59656489266E+02  0.27302760895E+03  0.30626855650E+03  0.12500000000E+03 0.  0.
</event>
<event>
 5    0  0.5568866E-005  0.4837845E+03  0.7546771E-02  0.1018100E+00
         21   -1    0    0  502  501  0.00000000000E+00  0.00000000000E+00  0.41100162313E+03  0.41100162313E+03  0.00000000000E+00 0.  1.
         21   -1    0    0  501  502 -0.00000000000E+00 -0.00000000000E+00 -0.56945625380E+03  0.56945625380E+03  0.00000000000E+00 0.  1.
         25    1    1    2    0    0  0.82916883286E+01  0.10667206297E+03 -0.18836596236E+03  0.25010881010E+03  0.12500000000E+03 0.  0.
         25    1    1    2    0    0  0.27628322551E+03  0.13511639495E+03  0.51564907411E+02  0.33596547525E+03  0.12500000000E+03 0.  0.
         25    1    1    2    0    0 -0.28457491384E+03 -0.24178845791E+03 -0.21653575721E+02  0.39438359158E+03  0.12500000000E+03 0.  0.
</event>
<event>
 5    0  0.5568866E-005  0.2599657E+03  0.7546771E-02  0.1107164E+00
         21   -1    0    0  502  501  0.00000000000E+00  0.00000000000E+00  0.11171755266E+03  0.11171755266E+03  0.00000000000E+00 0.  1.
         21   -1    0    0  501  502 -0.00000000000E+00 -0.00000000000E+00 -0.60493760426E+03  0.60493760426E+03  0.00000000000E+00 0.  1.
         25    1    1    2    0    0  0.68054950287E+02  0.15908154090E+03 -0.18064084940E+03  0.27963284748E+03  0.12500000000E+03 0.  0.
         25    1    1    2    0    0 -0.27263014264E+02 -0.79843506856E+02 -0.13641436609E+03  0.20335224811E+03  0.12500000000E+03 0.  0.
         25    1    1    2    0    0 -0.40791936023E+02 -0.79238034049E+02 -0.17616483610E+03  0.23367006133E+03  0.12500000000E+03 0.  0.
</event>
<event>
 5    0  0.5568866E-005  0.2740030E+03  0.7546771E-02  0.1099010E+00
         21   -1    0    0  502  501  0.00000000000E+00  0.00000000000E+00  0.28030502698E+03  0.28030502698E+03  0.00000000000E+00 0. -1.
         21   -1    0    0  501  502 -0.00000000000E+00 -0.00000000000E+00 -0.26784267263E+03  0.26784267263E+03  0.00000000000E+00 0. -1.
         25    1    1    2    0    0 -0.81336175453E+02 -0.35688059679E+02  0.11796557739E+03  0.19346857236E+03  0.12500000000E+03 0.  0.
         25    1    1    2    0    0  0.10340842478E+03 -0.45730516972E+02  0.35315584090E+01  0.16858841717E+03  0.12500000000E+03 0.  0.
         25    1    1    2    0    0 -0.22072249327E+02  0.81418576651E+02 -0.10903478145E+03  0.18609071008E+03  0.12500000000E+03 0.  0.
</event>
<event>
 5    0  0.5568866E-005  0.4070492E+03  0.7546771E-02  0.1041366E+00
         21   -1    0    0  502  501  0.00000000000E+00  0.00000000000E+00  0.88813901081E+03  0.88813901081E+03  0.00000000000E+00 0.  1.
         21   -1    0    0  501  502 -0.00000000000E+00 -0.00000000000E+00 -0.18655754089E+03  0.18655754089E+03  0.00000000000E+00 0. -1.
         25    1    1    2    0    0  0.20695403622E+03  0.26678325047E+02  0.35231202226E+03  0.42812435946E+03  0.12500000000E+03 0.  0.
         25    1    1    2    0    0  0.68952388238E+02  0.77121641207E+02 -0.13367698373E+02  0.16280624910E+03  0.12500000000E+03 0.  0.
         25    1    1    2    0    0 -0.27590642446E+03 -0.10379996625E+03  0.36263714604E+03  0.48376594313E+03  0.12500000000E+03 0.  0.
</event>
<event>
 5    0  0.5568866E-005  0.2464643E+03  0.7546771E-02  0.1115560E+00
         21   -1    0    0  502  501  0.00000000000E+00  0.00000000000E+00  0.14797100304E+03  0.14797100304E+03  0.00000000000E+00 0. -1.
         21   -1    0    0  501  502 -0.00000000000E+00 -0.00000000000E+00 -0.41051740918E+03  0.41051740918E+03  0.00000000000E+00 0. -1.
         25    1    1    2    0    0  0.62824221414E+01  0.62096386042E+01  0.54597673510E+02  0.13668918901E+03  0.12500000000E+03 0.  0.
         25    1    1    2    0    0 -0.61101162473E+00  0.56178085237E+02 -0.13721571012E+03  0.19393169339E+03  0.12500000000E+03 0.  0.
         25    1    1    2    0    0 -0.56714105167E+01 -0.62387723842E+02 -0.17992836954E+03  0.22786752982E+03  0.12500000000E+03 0.  0.
</event>
<event>
 5    0  0.6373139E-005  0.2948870E+03  0.7546771E-02  0.1087825E+00
         21   -1    0    0  502  501  0.00000000000E+00  0.00000000000E+00  0.38189314157E+03  0.38189314157E+03  0.00000000000E+00 0.  1.
         21   -1    0    0  501  502 -0.00000000000E+00 -0.00000000000E+00 -0.22770336485E+03  0.22770336485E+03  0.00000000000E+00 0.  1.
         25    1    1    2    0    0 -0.10302185119E+03 -0.10225917290E+03  0.23982774227E+02  0.19305598599E+03  0.12500000000E+03 0.  0.
         25    1    1    2    0    0  0.13481807638E+03  0.10136488670E+03  0.18170592471E+03  0.27765589684E+03  0.12500000000E+03 0.  0.
         25    1    1    2    0    0 -0.31796225184E+02  0.89428619870E+00 -0.51498922213E+02  0.13888462360E+03  0.12500000000E+03 0.  0.
</event>
<event>
 5    0  0.5568866E-005  0.2786199E+03  0.7546771E-02  0.1096445E+00
         21   -1    0    0  502  501  0.00000000000E+00  0.00000000000E+00  0.12318230156E+04  0.12318230156E+04  0.00000000000E+00 0. -1.
         21   -1    0    0  501  502 -0.00000000000E+00 -0.00000000000E+00 -0.63019644620E+02  0.63019644620E+02  0.00000000000E+00 0. -1.
         25    1    1    2    0    0 -0.81260842035E+02 -0.53345486944E+01  0.36160402997E+03  0.39117036743E+03  0.12500000000E+03 0.  0.
         25    1    1    2    0    0  0.12880239952E+03 -0.11032538572E+03  0.57098433848E+03  0.60861306562E+03  0.12500000000E+03 0.  0.
         25    1    1    2    0    0 -0.47541557483E+02  0.11565993442E+03  0.23621500249E+03  0.29505922714E+03  0.12500000000E+03 0.  0.
</event>
<event>
 5    0  0.5926928E-005  0.2551939E+03  0.7546771E-02  0.1110066E+00
         21   -1    0    0  502  501  0.00000000000E+00  0.00000000000E+00  0.52408979368E+02  0.52408979368E+02  0.00000000000E+00 0. -1.
         21   -1    0    0  501  502 -0.00000000000E+00 -0.00000000000E+00 -0.12426103775E+04  0.12426103775E+04  0.00000000000E+00 0. -1.
         25    1    1    2    0    0 -0.30350971765E+01  0.43278692064E+02 -0.30165232809E+03  0.32939548273E+03  0.12500000000E+03 0.  0.
         25    1    1    2    0    0 -0.64094414500E+02  0.47794275262E+02 -0.16164379959E+03  0.21942220641E+03  0.12500000000E+03 0.  0.
         25    1    1    2    0    0  0.67129511677E+02 -0.91072967326E+02 -0.72690527048E+03  0.74620166776E+03  0.12500000000E+03 0.  0.
</event>
<event>
 5    0  0.5568866E-005  0.3079016E+03  0.7546771E-02  0.1081356E+00
         21   -1    0    0  502  501  0.00000000000E+00  0.00000000000E+00  0.70768016412E+03  0.70768016412E+03  0.00000000000E+00 0.  1.
         21   -1    0    0  501  502 -0.00000000000E+00 -0.00000000000E+00 -0.13396358207E+03  0.13396358207E+03  0.00000000000E+00 0.  1.
         25    1    1    2    0    0  0.88739803078E+02 -0.17105052280E+03  0.12821382416E+03  0.26305288196E+03  0.12500000000E+03 0.  0.
         25    1    1    2    0    0  0.27256032432E+02  0.14693047700E+03  0.26728708347E+03  0.33075495668E+03  0.12500000000E+03 0.  0.
         25    1    1    2    0    0 -0.11599583551E+03  0.24120045802E+02  0.17821567441E+03  0.24783590755E+03  0.12500000000E+03 0.  0.
</event>
<event>
 5    0  0.5568866E-005  0.2176926E+03  0.7546771E-02  0.1135615E+00
         21   -1    0    0  502  501  0.00000000000E+00  0.00000000000E+00  0.41064864712E+03  0.41064864712E+03  0.00000000000E+00 0. -1.
         21   -1    0    0  501  502 -0.00000000000E+00 -0.00000000000E+00 -0.11540291981E+03  0.11540291981E+03  0.00000000000E+00 0. -1.
         25    1    1    2    0    0  0.20058572533E+02 -0.77026710147E+02  0.13457110808E+03  0.20017453269E+03  0.12500000000E+03 0.  0.
         25    1    1    2    0    0  0.98187736387E+01 -0.13712200553E+02  0.74691218415E+02  0.14658857687E+03  0.12500000000E+03 0.  0.
         25    1    1    2    0    0 -0.29877346171E+02  0.90738910700E+02  0.85983400810E+02  0.17928845736E+03  0.12500000000E+03 0.  0.
</event>
<event>
 5    0  0.7059640E-005  0.2888473E+03  0.7546771E-02  0.1090953E+00
         21   -1    0    0  502  501  0.00000000000E+00  0.00000000000E+00  0.15849953737E+03  0.15849953737E+03  0.00000000000E+00 0. -1.
         21   -1    0    0  501  502 -0.00000000000E+00 -0.00000000000E+00 -0.52639112867E+03  0.52639112867E+03  0.00000000000E+00 0. -1.
         25    1    1    2    0    0 -0.92284103887E+02 -0.68939670615E+02 -0.11428708803E+03  0.20483059465E+03  0.12500000000E+03 0.  0.
         25    1    1    2    0    0 -0.90026111247E+02  0.77157081315E+01 -0.25050355846E+02  0.15625860996E+03  0.12500000000E+03 0.  0.
         25    1    1    2    0    0  0.18231021513E+03  0.61223962484E+02 -0.22855414743E+03  0.32380146144E+03  0.12500000000E+03 0.  0.
</event>
<event>
 5    0  0.5568866E-005  0.2154691E+03  0.7546771E-02  0.1137307E+00
         21   -1    0    0  502  501  0.00000000000E+00  0.00000000000E+00  0.19616607232E+03  0.19616607232E+03  0.00000000000E+00 0.  1.
         21   -1    0    0  501  502 -0.00000000000E+00 -0.00000000000E+00 -0.23667153214E+03  0.23667153214E+03  0.00000000000E+00 0.  1.
         25    1    1    2    0    0  0.65659553006E+02 -0.26331289900E+02  0.20156000580E+02  0.14503716106E+03  0.12500000000E+03 0.  0.
         25    1    1    2    0    0 -0.73915951661E+02  0.49187420790E+02 -0.43018114962E+02  0.15924361365E+03  0.12500000000E+03 0.  0.
         25    1    1    2    0    0  0.82563986548E+01 -0.22856130889E+02 -0.17643345437E+02  0.12855682975E+03  0.12500000000E+03 0.  0.
</event>
<event>
 5    0  0.5568866E-005  0.3521810E+03  0.7546771E-02  0.1061723E+00
         21   -1    0    0  502  501  0.00000000000E+00  0.00000000000E+00  0.26772194085E+03  0.26772194085E+03  0.00000000000E+00 0.  1.
         21   -1    0    0  501  502 -0.00000000000E+00 -0.00000000000E+00 -0.46328471763E+03  0.46328471763E+03  0.00000000000E+00 0.  1.
         25    1    1    2    0    0  0.47201007376E+02  0.29367931255E+01  0.49530122689E+02  0.14252997195E+03  0.12500000000E+03 0.  0.
         25    1    1    2    0    0  0.91719605356E+02  0.11209219039E+03  0.70667180282E+02  0.20395096353E+03  0.12500000000E+03 0.  0.
         25    1    1    2    0    0 -0.13892061273E+03 -0.11502898352E+03 -0.31576007975E+03  0.38452572301E+03  0.12500000000E+03 0.  0.
</event>
<event>
 5    0  0.5568866E-005  0.3386734E+03  0.7546771E-02  0.1067362E+00
         21   -1    0    0  502  501  0.00000000000E+00  0.00000000000E+00  0.85736047427E+03  0.85736047427E+03  0.00000000000E+00 0. -1.
         21   -1    0    0  501  502 -0.00000000000E+00 -0.00000000000E+00 -0.13378234857E+03  0.13378234857E+03  0.00000000000E+00 0. -1.
         25    1    1    2    0    0 -0.12654618450E+03 -0.18638253897E+03  0.44692609754E+03  0.51586851456E+03  0.12500000000E+03 0.  0.
         25    1    1    2    0    0  0.34228990140E+02  0.56488568153E+01  0.31799426477E+02  0.13356547785E+03  0.12500000000E+03 0.  0.
         25    1    1    2    0    0  0.92317194359E+02  0.18073368216E+03  0.24485260168E+03  0.34170883042E+03  0.12500000000E+03 0.  0.
</event>
<event>
 5    0  0.5568866E-005  0.2563464E+03  0.7546771E-02  0.1109358E+00
         21   -1    0    0  502  501  0.00000000000E+00  0.00000000000E+00  0.87747422952E+03  0.87747422952E+03  0.00000000000E+00 0. -1.
         21   -1    0    0  501  502 -0.00000000000E+00 -0.00000000000E+00 -0.74889371579E+02  0.74889371579E+02  0.00000000000E+00 0. -1.
         25    1    1    2    0    0 -0.89096536191E+02  0.73550992981E+02  0.19853487947E+03  0.26151298189E+03  0.12500000000E+03 0.  0.
         25    1    1    2    0    0  0.10333280423E+03  0.22228532253E+02  0.21002863913E+03  0.26628707316E+03  0.12500000000E+03 0.  0.
         25    1    1    2    0    0 -0.14236268035E+02 -0.95779525235E+02  0.39402133935E+03  0.42456354606E+03  0.12500000000E+03 0.  0.
</event>
<event>
 5    0  0.5568866E-005  0.3078819E+03  0.7546771E-02  0.1081366E+00
         21   -1    0    0  502  501  0.00000000000E+00  0.00000000000E+00  0.44761282993E+03  0.44761282993E+03  0.00000000000E+00 0. -1.
         21   -1    0    0  501  502 -0.00000000000E+00 -0.00000000000E+00 -0.21177068888E+03  0.21177068888E+03  0.00000000000E+00 0. -1.
         25    1    1    2    0    0  0.11555460169E+03  0.70645125588E+02  0.40470248785E+02  0.18869668990E+03  0.12500000000E+03 0.  0.
         25    1    1    2    0    0  0.89682455858E+02 -0.10173662847E+03  0.10386199750E+03  0.21167333083E+03  0.12500000000E+03 0.  0.
         25    1    1    2    0    0 -0.20523705755E+03  0.31091502878E+02  0.91509894766E+02  0.25901349807E+03  0.12500000000E+03 0.  0.
</event>
<event>
 5    0  0.5568866E-005  0.6269182E+03  0.7546771E-02  0.9851081E-01
         21   -1    0    0  502  501  0.00000000000E+00  0.00000000000E+00  0.62413006580E+03  0.62413006580E+03  0.00000000000E+00 0. -1.
         21   -1    0    0  501  502 -0.00000000000E+00 -0.00000000000E+00 -0.62971871067E+03  0.62971871067E+03  0.00000000000E+00 0.  1.
         25    1    1    2    0    0 -0.21242317509E+01  0.41921726170E+03  0.28437636490E+03  0.52176866692E+03  0.12500000000E+03 0.  0.
         25    1    1    2    0    0 -0.44698359828E+02 -0.13334619059E+03 -0.36243348944E+03  0.40836525829E+03  0.12500000000E+03 0.  0.
         25    1    1    2    0    0  0.46822591579E+02 -0.28587107111E+03  0.72468479661E+02  0.32371485126E+03  0.12500000000E+03 0.  0.
</event>
<event>
 5    0  0.5568866E-005  0.2348652E+03  0.7546771E-02  0.1123262E+00
         21   -1    0    0  502  501  0.00000000000E+00  0.00000000000E+00  0.28940488498E+03  0.28940488498E+03  0.00000000000E+00 0. -1.
         21   -1    0    0  501  502 -0.00000000000E+00 -0.00000000000E+00 -0.19060372504E+03  0.19060372504E+03  0.00000000000E+00 0. -1.
         25    1    1    2    0    0  0.76716859553E+02  0.10576630390E+01  0.43045195019E+01  0.14673146929E+03  0.12500000000E+03 0.  0.
         25    1    1    2    0    0 -0.33096386719E+02  0.61343508821E+02  0.11742964285E+03  0.18513000272E+03  0.12500000000E+03 0.  0.
         25    1    1    2    0    0 -0.43620472834E+02 -0.62401171860E+02 -0.22933002411E+02  0.14814713801E+03  0.12500000000E+03 0.  0.
</event>
<event>
 5    0  0.5568866E-005  0.3054737E+03  0.7546771E-02  0.1082536E+00
         21   -1    0    0  502  501  0.00000000000E+00  0.00000000000E+00  0.18450514556E+04  0.18450514556E+04  0.00000000000E+00 0.  1.
         21   -1    0    0  501  502 -0.00000000000E+00 -0.00000000000E+00 -0.50575381448E+02  0.50575381448E+02  0.00000000000E+00 0.  1.
         25    1    1    2    0    0  0.93152425286E+02  0.18724632645E+03  0.10694574272E+04  0.10968604058E+04  0.12500000000E+03 0.  0.
         25    1    1    2    0    0 -0.77937277928E+02 -0.88855256290E+02  0.31897562681E+03  0.36240850757E+03  0.12500000000E+03 0.  0.
         25    1    1    2    0    0 -0.15215147358E+02 -0.98391070156E+02  0.40604302014E+03  0.43635792373E+03  0.12500000000E+03 0.  0.
</event>
<event>
 5    0  0.5568866E-005  0.3468418E+03  0.7546771E-02  0.1063919E+00
         21   -1    0    0  502  501  0.00000000000E+00  0.00000000000E+00  0.78135290726E+03  0.78135290726E+03  0.00000000000E+00 0. -1.
         21   -1    0    0  501  502 -0.00000000000E+00 -0.00000000000E+00 -0.15396274446E+03  0.15396274446E+03  0.00000000000E+00 0. -1.
         25    1    1    2    0    0  0.16626518602E+03 -0.84079941800E+02  0.16161656159E+03  0.27651123246E+03  0.12500000000E+03 0.  0.
         25    1    1    2    0    0 -0.17106486962E+03 -0.10157728498E+03  0.18111941880E+03  0.29666543161E+03  0.12500000000E+03 0.  0.
         25    1    1    2    0    0  0.47996835969E+01  0.18565722678E+03  0.28465418241E+03  0.36213898766E+03  0.12500000000E+03 0.  0.
</event>
<event>
 5    0  0.5568866E-005  0.3110642E+03  0.7546771E-02  0.1079837E+00
         21   -1    0    0  502  501  0.00000000000E+00  0.00000000000E+00  0.99599325111E+03  0.99599325111E+03  0.00000000000E+00 0. -1.
         21   -1    0    0  501  502 -0.00000000000E+00 -0.00000000000E+00 -0.97150208560E+02  0.97150208560E+02  0.00000000000E+00 0. -1.
         25    1    1    2    0    0  0.11988617149E+03  0.35711104614E+02  0.14586092873E+03  0.22923435091E+03  0.12500000000E+03 0.  0.
         25    1    1    2    0    0  0.81517035305E+02  0.57250716721E+02  0.20745787000E+03  0.26189012856E+03  0.12500000000E+03 0.  0.
         25    1    1    2    0    0 -0.20140320679E+03 -0.92961821335E+02  0.54552424381E+03  0.60201898020E+03  0.12500000000E+03 0.  0.
</event>
<event>
 5    0  0.5568866E-005  0.2810553E+03  0.7546771E-02  0.1095114E+00
         21   -1    0    0  502  501  0.00000000000E+00  0.00000000000E+00  0.40397674868E+03  0.40397674868E+03  0.00000000000E+00 0. -1.
         21   -1    0    0  501  502 -0.00000000000E+00 -0.00000000000E+00 -0.19553614794E+03  0.19553614794E+03  0.00000000000E+00 0.  1.
         25    1    1    2    0    0 -0.81810918536E+02  0.40160757020E+02  0.13984252387E+02  0.15532698449E+03  0.12500000000E+03 0.  0.
         25    1    1    2    0    0  0.14093773926E+03  0.85564828674E+02  0.65135786311E+02  0.21691578300E+03  0.12500000000E+03 0.  0.
         25    1    1    2    0    0 -0.59126820727E+02 -0.12572558569E+03  0.12932056204E+03  0.22727012913E+03  0.12500000000E+03 0.  0.
</event>
<event>
 5    0  0.5568866E-005  0.4042594E+03  0.7546771E-02  0.1042315E+00
         21   -1    0    0  502  501  0.00000000000E+00  0.00000000000E+00  0.45873059368E+03  0.45873059368E+03  0.00000000000E+00 0. -1.
         21   -1    0    0  501  502 -0.00000000000E+00 -0.00000000000E+00 -0.35625631407E+03  0.35625631407E+03  0.00000000000E+00 0. -1.
         25    1    1    2    0    0 -0.89149554192E+02 -0.19557170891E+03  0.11272067412E+03  0.27299612948E+03  0.12500000000E+03 0.  0.
         25    1    1    2    0    0 -0.16547495139E+03  0.98441359434E+02  0.52936292937E+02  0.23558419279E+03  0.12500000000E+03 0.  0.
         25    1    1    2    0    0  0.25462450558E+03  0.97130349474E+02 -0.63182687448E+02  0.30640658548E+03  0.12500000000E+03 0.  0.
</event>
<event>
 5    0  0.5568866E-005  0.4959685E+03  0.7546771E-02  0.1014837E+00
         21   -1    0    0  502  501  0.00000000000E+00  0.00000000000E+00  0.16315641490E+03  0.16315641490E+03  0.00000000000E+00 0.  1.
         21   -1    0    0  501  502 -0.00000000000E+00 -0.00000000000E+00 -0.15076620447E+04  0.15076620447E+04  0.00000000000E+00 0.  1.
         25    1    1    2    0    0  0.84399651224E+02 -0.11139063004E+03  0.31704469856E+02  0.19016137094E+03  0.12500000000E+03 0.  0.
         25    1    1    2    0    0  0.15767701830E+03  0.17309823983E+03 -0.61613503590E+03  0.67087437363E+03  0.12500000000E+03 0.  0.
         25    1    1    2    0    0 -0.24207666952E+03 -0.61707609785E+02 -0.76007506374E+03  0.80978271502E+03  0.12500000000E+03 0.  0.
</event>
<event>
 5    0  0.5568866E-005  0.4792580E+03  0.7546771E-02  0.1019339E+00
         21   -1    0    0  502  501  0.00000000000E+00  0.00000000000E+00  0.18781136238E+03  0.18781136238E+03  0.00000000000E+00 0. -1.
         21   -1    0    0  501  502 -0.00000000000E+00 -0.00000000000E+00 -0.12229732353E+04  0.12229732353E+04  0.00000000000E+00 0. -1.
         25    1    1    2    0    0  0.94558984371E+02 -0.32796501577E+03 -0.20968139267E+03  0.41963524581E+03  0.12500000000E+03 0.  0.
         25    1    1    2    0    0  0.39131848009E+02  0.32357036549E+02 -0.54708808943E+02  0.14558960512E+03  0.12500000000E+03 0.  0.
         25    1    1    2    0    0 -0.13369083238E+03  0.29560797922E+03 -0.77077167136E+03  0.84555974680E+03  0.12500000000E+03 0.  0.
</event>
<event>
 5    0  0.5568866E-005  0.3350362E+03  0.7546771E-02  0.1068930E+00
         21   -1    0    0  502  501  0.00000000000E+00  0.00000000000E+00  0.81529816053E+02  0.81529816053E+02  0.00000000000E+00 0.  1.
         21   -1    0    0  501  502 -0.00000000000E+00 -0.00000000000E+00 -0.13767880116E+04  0.13767880116E+04  0.00000000000E+00 0.  1.
         25    1    1    2    0    0  0.74750566122E+02  0.21092244602E+02 -0.48384763564E+03  0.50573319491E+03  0.12500000000E+03 0.  0.
         25    1    1    2    0    0  0.96505433494E+02 -0.74184680221E+02 -0.85144645907E+02  0.19414241216E+03  0.12500000000E+03 0.  0.
         25    1    1    2    0    0 -0.17125599962E+03  0.53092435619E+02 -0.72626591400E+03  0.75844222058E+03  0.12500000000E+03 0.  0.
</event>
<event>
 5    0  0.5568866E-005  0.4106119E+03  0.7546771E-02  0.1040166E+00
         21   -1    0    0  502  501  0.00000000000E+00  0.00000000000E+00  0.11547043886E+04  0.11547043886E+04  0.00000000000E+00 0.  1.
         21   -1    0    0  501  502 -0.00000000000E+00 -0.00000000000E+00 -0.14601321732E+03  0.14601321732E+03  0.00000000000E+00 0.  1.
         25    1    1    2    0    0  0.18842612336E+03  0.40800387487E+02  0.14268604089E+03  0.27046881862E+03  0.12500000000E+03 0.  0.
         25    1    1    2    0    0 -0.14128991739E+03  0.25254647074E+02  0.44669484953E+02  0.19550192030E+03  0.12500000000E+03 0.  0.
         25    1    1    2    0    0 -0.47136205962E+02 -0.66055034561E+02  0.82133564544E+03  0.83474686700E+03  0.12500000000E+03 0.  0.
</event>
<event>
 5    0  0.5568866E-005  0.3569126E+03  0.7546771E-02  0.1059813E+00
         21   -1    0    0  502  501  0.00000000000E+00  0.00000000000E+00  0.44980184028E+03  0.44980184028E+03  0.00000000000E+00 0.  1.
         21   -1    0    0  501  502 -0.00000000000E+00 -0.00000000000E+00 -0.28320598075E+03  0.28320598075E+03  0.00000000000E+00 0.  1.
         25    1    1    2    0    0  0.18174267299E+03  0.73596691688E+02 -0.63295783034E+02  0.24099424965E+03  0.12500000000E+03 0.  0.
         25    1    1    2    0    0 -0.82175021022E+02 -0.14124213481E+03  0.22215448234E+01  0.20574744224E+03  0.12500000000E+03 0.  0.
         25    1    1    2    0    0 -0.99567651967E+02  0.67645443119E+02  0.22767009774E+03  0.28626612915E+03  0.12500000000E+03 0.  0.
</event>
<event>
 5    0  0.5568866E-005  0.3788211E+03  0.7546771E-02  0.1051370E+00
         21   -1    0    0  502  501  0.00000000000E+00  0.00000000000E+00  0.16913909359E+03  0.16913909359E+03  0.00000000000E+00 0.  1.
         21   -1    0    0  501  502 -0.00000000000E+00 -0.00000000000E+00 -0.84844607391E+03  0.84844607391E+03  0.00000000000E+00 0.  1.
         25    1    1    2    0    0  0.15972255501E+03  0.21734518310E+03 -0.13802192263E+03  0.32775795081E+03  0.12500000000E+03 0.  0.
         25    1    1    2    0    0  0.79778757097E+01 -0.16631784227E+01 -0.13045143732E+03  0.18085626935E+03  0.12500000000E+03 0.  0.
         25    1    1    2    0    0 -0.16770043072E+03 -0.21568200468E+03 -0.41083362038E+03  0.50897094734E+03  0.12500000000E+03 0.  0.
</event>
<event>
 5    0  0.5568866E-005  0.3127337E+03  0.7546771E-02  0.1079043E+00
         21   -1    0    0  502  501  0.00000000000E+00  0.00000000000E+00  0.11023054870E+03  0.11023054870E+03  0.00000000000E+00 0. -1.
         21   -1    0    0  501  502 -0.00000000000E+00 -0.00000000000E+00 -0.88725302932E+03  0.88725302932E+03  0.00000000000E+00 0. -1.
         25    1    1    2    0    0 -0.14102179320E+02 -0.93724453938E+02 -0.99674596336E+02  0.18585792930E+03  0.12500000000E+03 0.  0.
         25    1    1    2    0    0  0.14842905698E+03  0.88644720863E+02 -0.17221748604E+03  0.27417682978E+03  0.12500000000E+03 0.  0.
         25    1    1    2    0    0 -0.13432687766E+03  0.50797330752E+01 -0.50513039824E+03  0.53744881894E+03  0.12500000000E+03 0.  0.
</event>
<event>
 5    0  0.5568866E-005  0.2509885E+03  0.7546771E-02  0.1112682E+00
         21   -1    0    0  502  501  0.00000000000E+00  0.00000000000E+00  0.54714420193E+03  0.54714420193E+03  0.00000000000E+00 0.  1.
         21   -1    0    0  501  502 -0.00000000000E+00 -0.00000000000E+00 -0.11513460287E+03  0.11513460287E+03  0.00000000000E+00 0.  1.
         25    1    1    2    0    0 -0.48933462175E+02 -0.16456741013E+02  0.31447981449E+03  0.34232712684E+03  0.12500000000E+03 0.  0.
         25    1    1    2    0    0  0.14635757491E+02  0.36553690091E+02  0.13437953712E+03  0.18770518814E+03  0.12500000000E+03 0.  0.
         25    1    1    2    0    0  0.34297704685E+02 -0.20096949079E+02 -0.16849752555E+02  0.13224648982E+03  0.12500000000E+03 0.  0.
</event>
<event>
 5    0  0.5568866E-005  0.3189561E+03  0.7546771E-02  0.1076131E+00
         21   -1    0    0  502  501  0.00000000000E+00  0.00000000000E+00  0.35265933561E+03  0.35265933561E+03  0.00000000000E+00 0. -1.
         21   -1    0    0  501  502 -0.00000000000E+00 -0.00000000000E+00 -0.28847392220E+03  0.28847392220E+03  0.00000000000E+00 0. -1.
         25    1    1    2    0    0 -0.11339920309E+03  0.48764071852E+02 -0.79054106376E+02  0.19264440220E+03  0.12500000000E+03 0.  0.
         25    1    1    2    0    0  0.14775314366E+03  0.10002331597E+03  0.27161637821E+02  0.21954136232E+03  0.12500000000E+03 0.  0.
         25    1    1    2    0    0 -0.34353940566E+02 -0.14878738782E+03  0.11607788196E+03  0.22894749330E+03  0.12500000000E+03 0.  0.
</event>
<event>
 5    0  0.5568866E-005  0.2744963E+03  0.7546771E-02  0.1098733E+00
         21   -1    0    0  502  501  0.00000000000E+00  0.00000000000E+00  0.13228158701E+04  0.13228158701E+04  0.00000000000E+00 0. -1.
         21   -1    0    0  501  502 -0.00000000000E+00 -0.00000000000E+00 -0.56960475449E+02  0.56960475449E+02  0.00000000000E+00 0. -1.
         25    1    1    2    0    0  0.96094316437E+02 -0.12392666172E+03  0.32960292379E+03  0.38581734345E+03  0.12500000000E+03 0.  0.
         25    1    1    2    0    0 -0.61300220180E+02  0.14291424355E+03  0.62923248003E+03  0.66010659134E+03  0.12500000000E+03 0.  0.
         25    1    1    2    0    0 -0.34794096257E+02 -0.18987581833E+02  0.30701999081E+03  0.33385241074E+03  0.12500000000E+03 0.  0.
</event>
<event>
 5    0  0.5568866E-005  0.3024138E+03  0.7546771E-02  0.1084040E+00
         21   -1    0    0  502  501  0.00000000000E+00  0.00000000000E+00  0.48153537898E+02  0.48153537898E+02  0.00000000000E+00 0. -1.
         21   -1    0    0  501  502 -0.00000000000E+00 -0.00000000000E+00 -0.18992188719E+04  0.18992188719E+04  0.00000000000E+00 0. -1.
         25    1    1    2    0    0  0.44753122990E+02  0.30181567518E+02 -0.22785590650E+03  0.26543753156E+03  0.12500000000E+03 0.  0.
         25    1    1    2    0    0 -0.16258918114E+03 -0.11030839183E+03 -0.65044005948E+03  0.69086934663E+03  0.12500000000E+03 0.  0.
         25    1    1    2    0    0  0.11783605815E+03  0.80126824315E+02 -0.97276936798E+03  0.99106553157E+03  0.12500000000E+03 0.  0.
</event>
<event>
 5    0  0.5568866E-005  0.3177120E+03  0.7546771E-02  0.1076707E+00
         21   -1    0    0  502  501  0.00000000000E+00  0.00000000000E+00  0.15055530754E+04  0.15055530754E+04  0.00000000000E+00 0. -1.
         21   -1    0    0  501  502 -0.00000000000E+00 -0.00000000000E+00 -0.67045720747E+02  0.67045720747E+02  0.00000000000E+00 0. -1.
         25    1    1    2    0    0  0.11590585557E+03  0.49892321232E+02  0.50718210722E+03  0.53738450011E+03  0.12500000000E+03 0.  0.
         25    1    1    2    0    0  0.47776727517E+02  0.10812182903E+03  0.22880694132E+03  0.28627008576E+03  0.12500000000E+03 0.  0.
         25    1    1    2    0    0 -0.16368258309E+03 -0.15801415026E+03  0.70251830612E+03  0.74894421029E+03  0.12500000000E+03 0.  0.
</event>
<event>
 5    0  0.5568866E-005  0.3540481E+03  0.7546771E-02  0.1060966E+00
         21   -1    0    0  502  501  0.00000000000E+00  0.00000000000E+00  0.13162691678E+04  0.13162691678E+04  0.00000000000E+00 0.  1.
         21   -1    0    0  501  502 -0.00000000000E+00 -0.00000000000E+00 -0.95231337296E+02  0.95231337296E+02  0.00000000000E+00 0.  1.
         25    1    1    2    0    0 -0.15750922616E+03 -0.22392041732E+03  0.53439933529E+03  0.61331652446E+03  0.12500000000E+03 0.  0.
         25    1    1    2    0    0  0.15849841850E+03  0.82097125732E+02  0.36539862852E+03  0.42544429065E+03  0.12500000000E+03 0.  0.
         25    1    1    2    0    0 -0.98919234257E+00  0.14182329158E+03  0.32123986666E+03  0.37273968996E+03  0.12500000000E+03 0.  0.
</event>
<event>
 5    0  0.5930130E-005  0.6250156E+03  0.7546771E-02  0.9854824E-01
         21   -1    0    0  502  501  0.00000000000E+00  0.00000000000E+00  0.84881464246E+03  0.84881464246E+03  0.00000000000E+00 0.  1.
         21   -1    0    0  501  502 -0.00000000000E+00 -0.00000000000E+00 -0.46022360703E+03  0.46022360703E+03  0.00000000000E+00 0.  1.
         25    1    1    2    0    0  0.12880325467E+03  0.20126828926E+03 -0.71788750896E+02  0.27906599118E+03  0.12500000000E+03 0.  0.
         25    1    1    2    0    0 -0.44132791394E+03  0.18142694444E+01  0.49551934065E+02  0.46136104448E+03  0.12500000000E+03 0.  0.
         25    1    1    2    0    0  0.31252465927E+03 -0.20308255871E+03  0.41082785226E+03  0.56861121383E+03  0.12500000000E+03 0.  0.
</event>
<event>
 5    0  0.5568866E-005  0.2318271E+03  0.7546771E-02  0.1125360E+00
         21   -1    0    0  502  501  0.00000000000E+00  0.00000000000E+00  0.15211756912E+04  0.15211756912E+04  0.00000000000E+00 0. -1.
         21   -1    0    0  501  502 -0.00000000000E+00 -0.00000000000E+00 -0.35330447834E+02  0.35330447834E+02  0.00000000000E+00 0. -1.
         25    1    1    2    0    0  0.81327325144E+01 -0.41490693001E+02  0.95238391020E+03  0.96148204942E+03  0.12500000000E+03 0.  0.
         25    1    1    2    0    0 -0.72135221075E+01 -0.11439512001E+02  0.29412238009E+03  0.31986852269E+03  0.12500000000E+03 0.  0.
         25    1    1    2    0    0 -0.91921040696E+00  0.52930205002E+02  0.23933895302E+03  0.27515556687E+03  0.12500000000E+03 0.  0.
</event>
<event>
 5    0  0.5568866E-005  0.2709791E+03  0.7546771E-02  0.1100721E+00
         21   -1    0    0  502  501  0.00000000000E+00  0.00000000000E+00  0.23835673793E+03  0.23835673793E+03  0.00000000000E+00 0.  1.
         21   -1    0    0  501  502 -0.00000000000E+00 -0.00000000000E+00 -0.30806634640E+03  0.30806634640E+03  0.00000000000E+00 0.  1.
         25    1    1    2    0    0 -0.10810294630E+03  0.82158638990E+02 -0.24569340329E+02  0.18618523422E+03  0.12500000000E+03 0.  0.
         25    1    1    2    0    0  0.14625408684E+03  0.35594277499E+00  0.18091529771E+02  0.19324256276E+03  0.12500000000E+03 0.  0.
         25    1    1    2    0    0 -0.38151140540E+02 -0.82514581765E+02 -0.63231797911E+02  0.16699528734E+03  0.12500000000E+03 0.  0.
</event>
<event>
 5    0  0.5568866E-005  0.2725375E+03  0.7546771E-02  0.1099836E+00
         21   -1    0    0  502  501  0.00000000000E+00  0.00000000000E+00  0.81841566283E+02  0.81841566283E+02  0.00000000000E+00 0. -1.
         21   -1    0    0  501  502 -0.00000000000E+00 -0.00000000000E+00 -0.90756675968E+03  0.90756675968E+03  0.00000000000E+00 0. -1.
         25    1    1    2    0    0  0.92324562612E+02 -0.83961144559E+00 -0.12880723763E+03  0.20184358864E+03  0.12500000000E+03 0.  0.
         25    1    1    2    0    0  0.66927439695E+02  0.34367053458E+02 -0.40709385503E+03  0.43244743420E+03  0.12500000000E+03 0.  0.
         25    1    1    2    0    0 -0.15925200231E+03 -0.33527442013E+02 -0.28982410075E+03  0.35511730313E+03  0.12500000000E+03 0.  0.
</event>
<event>
 5    0  0.5568866E-005  0.2354867E+03  0.7546771E-02  0.1122837E+00
         21   -1    0    0  502  501  0.00000000000E+00  0.00000000000E+00  0.20366684826E+04  0.20366684826E+04  0.00000000000E+00 0. -1.
         21   -1    0    0  501  502 -0.00000000000E+00 -0.00000000000E+00 -0.27227783681E+02  0.27227783681E+02  0.00000000000E+00 0. -1.
         25    1    1    2    0    0 -0.11982249060E+02 -0.28860845741E+02  0.97629481881E+03  0.98476042566E+03  0.12500000000E+03 0.  0.
         25    1    1    2    0    0  0.57579361671E+02 -0.41627179885E+02  0.32860652687E+03  0.35868573222E+03  0.12500000000E+03 0.  0.
         25    1    1    2    0    0 -0.45597112612E+02  0.70488025626E+02  0.70453935324E+03  0.72045010840E+03  0.12500000000E+03 0.  0.
</event>
<event>
 5    0  0.5568866E-005  0.2932638E+03  0.7546771E-02  0.1088657E+00
         21   -1    0    0  502  501  0.00000000000E+00  0.00000000000E+00  0.24380719636E+03  0.24380719636E+03  0.00000000000E+00 0. -1.
         21   -1    0    0  501  502 -0.00000000000E+00 -0.00000000000E+00 -0.35275269697E+03  0.35275269697E+03  0.00000000000E+00 0. -1.
         25    1    1    2    0    0 -0.71451290414E+02  0.68955775738E+02  0.12745237175E+03  0.20427749013E+03  0.12500000000E+03 0.  0.
         25    1    1    2    0    0  0.16812752074E+02 -0.92102892485E+02 -0.19085711624E+03  0.24661113165E+03  0.12500000000E+03 0.  0.
         25    1    1    2    0    0  0.54638538340E+02  0.23147116747E+02 -0.45540756122E+02  0.14567127155E+03  0.12500000000E+03 0.  0.
</event>
<event>
 5    0  0.5568866E-005  0.3469988E+03  0.7546771E-02  0.1063854E+00
         21   -1    0    0  502  501  0.00000000000E+00  0.00000000000E+00  0.12059744344E+04  0.12059744344E+04  0.00000000000E+00 0.  1.
         21   -1    0    0  501  502 -0.00000000000E+00 -0.00000000000E+00 -0.99843061265E+02  0.99843061265E+02  0.00000000000E+00 0.  1.
         25    1    1    2    0    0 -0.17023521197E+03  0.53379398820E+02  0.12166106560E+03  0.24951112700E+03  0.12500000000E+03 0.  0.
         25    1    1    2    0    0  0.16762238830E+03  0.38897321296E+02  0.41922229090E+03  0.47008785971E+03  0.12500000000E+03 0.  0.
         25    1    1    2    0    0  0.26128236742E+01 -0.92276720117E+02  0.56524801661E+03  0.58621850892E+03  0.12500000000E+03 0.  0.
</event>
<event>
 5    0  0.5568866E-005  0.3053808E+03  0.7546771E-02  0.1082581E+00
         21   -1    0    0  502  501  0.00000000000E+00  0.00000000000E+00  0.15081202508E+03  0.15081202508E+03  0.00000000000E+00 0. -1.
         21   -1    0    0  501  502 -0.00000000000E+00 -0.00000000000E+00 -0.61836885911E+03  0.61836885911E+03  0.00000000000E+00 0. -1.
         25    1    1    2    0    0 -0.46752866198E+02 -0.10595665926E+03 -0.33970262726E+03  0.38004673279E+03  0.12500000000E+03 0.  0.
         25    1    1    2    0    0  0.13906405864E+03  0.26732947794E+02 -0.37030867593E+02  0.19248311110E+03  0.12500000000E+03 0.  0.
         25    1    1    2    0    0 -0.92311192446E+02  0.79223711470E+02 -0.90823339179E+02  0.19665104030E+03  0.12500000000E+03 0.  0.
</event>
<event>
 5    0  0.5568866E-005  0.2844063E+03  0.7546771E-02  0.1093306E+00
         21   -1    0    0  502  501  0.00000000000E+00  0.00000000000E+00  0.11687187066E+03  0.11687187066E+03  0.00000000000E+00 0. -1.
         21   -1    0    0  501  502 -0.00000000000E+00 -0.00000000000E+00 -0.69209942183E+03  0.69209942183E+03  0.00000000000E+00 0. -1.
         25    1    1    2    0    0  0.84333585879E+02 -0.76290324530E+02 -0.10684150112E+03  0.19993117237E+03  0.12500000000E+03 0.  0.
         25    1    1    2    0    0 -0.25965474375E+02  0.95377868663E+02 -0.48376698787E+02  0.16654263321E+03  0.12500000000E+03 0.  0.
         25    1    1    2    0    0 -0.58368111504E+02 -0.19087544132E+02 -0.42000935126E+03  0.44249748692E+03  0.12500000000E+03 0.  0.
</event>
<event>
 5    0  0.5568866E-005  0.2918661E+03  0.7546771E-02  0.1089379E+00
         21   -1    0    0  502  501  0.00000000000E+00  0.00000000000E+00  0.20852342497E+03  0.20852342497E+03  0.00000000000E+00 0. -1.
         21   -1    0    0  501  502 -0.00000000000E+00 -0.00000000000E+00 -0.40851917781E+03  0.40851917781E+03  0.00000000000E+00 0. -1.
         25    1    1    2    0    0 -0.16909751546E+03 -0.82453986102E+02 -0.70454288427E+02  0.23660396513E+03  0.12500000000E+03 0.  0.
         25    1    1    2    0    0  0.10966374035E+03  0.99557672264E+02 -0.56500495122E+01  0.19389375729E+03  0.12500000000E+03 0.  0.
         25    1    1    2    0    0  0.59433775104E+02 -0.17103686162E+02 -0.12389141491E+03  0.18654488037E+03  0.12500000000E+03 0.  0.
</event>
<event>
 5    0  0.5568866E-005  0.3476104E+03  0.7546771E-02  0.1063600E+00
         21   -1    0    0  502  501  0.00000000000E+00  0.00000000000E+00  0.79777187957E+02  0.79777187957E+02  0.00000000000E+00 0. -1.
         21   -1    0    0  501  502 -0.00000000000E+00 -0.00000000000E+00 -0.15146307461E+04  0.15146307461E+04  0.00000000000E+00 0. -1.
         25    1    1    2    0    0  0.11777748774E+03  0.68278035327E+02 -0.76477858997E+03  0.78679394914E+03  0.12500000000E+03 0.  0.
         25    1    1    2    0    0  0.88855980942E+01  0.11812089303E+03 -0.15511557179E+03  0.23177001497E+03  0.12500000000E+03 0.  0.
         25    1    1    2    0    0 -0.12666308584E+03 -0.18639892836E+03 -0.51495939638E+03  0.57584396995E+03  0.12500000000E+03 0.  0.
</event>
<event>
 5    0  0.5568866E-005  0.5799069E+03  0.7546771E-02  0.9947993E-01
         21   -1    0    0  502  501  0.00000000000E+00  0.00000000000E+00  0.60252616675E+03  0.60252616675E+03  0.00000000000E+00 0.  1.
         21   -1    0    0  501  502 -0.00000000000E+00 -0.00000000000E+00 -0.55813673233E+03  0.55813673233E+03  0.00000000000E+00 0.  1.
         25    1    1    2    0    0 -0.63396426577E+02 -0.26895667612E+03  0.37012798313E+03  0.47851491557E+03  0.12500000000E+03 0.  0.
         25    1    1    2    0    0  0.47722623387E+02  0.34242445227E+03 -0.37793791643E+03  0.52725138499E+03  0.12500000000E+03 0.  0.
         25    1    1    2    0    0  0.15673803189E+02 -0.73467776151E+02  0.52199367722E+02  0.15489659851E+03  0.12500000000E+03 0.  0.
</event>
<event>
 5    0  0.6562675E-005  0.3496799E+03  0.7546771E-02  0.1062746E+00
         21   -1    0    0  502  501  0.00000000000E+00  0.00000000000E+00  0.51916244480E+03  0.51916244480E+03  0.00000000000E+00 0.  1.
         21   -1    0    0  501  502 -0.00000000000E+00 -0.00000000000E+00 -0.23552562655E+03  0.23552562655E+03  0.00000000000E+00 0.  1.
         25    1    1    2    0    0  0.24722652860E+01 -0.12202347625E+03  0.15459293513E+03  0.23328055308E+03  0.12500000000E+03 0.  0.
         25    1    1    2    0    0 -0.15460082481E+03 -0.84298623179E+02  0.88359539801E+02  0.23332398328E+03  0.12500000000E+03 0.  0.
         25    1    1    2    0    0  0.15212855952E+03  0.20632209943E+03  0.40684343314E+02  0.28808353498E+03  0.12500000000E+03 0.  0.
</event>
<event>
 5    0  0.5568866E-005  0.3671802E+03  0.7546771E-02  0.1055776E+00
         21   -1    0    0  502  501  0.00000000000E+00  0.00000000000E+00  0.18740306108E+03  0.18740306108E+03  0.00000000000E+00 0. -1.
         21   -1    0    0  501  502 -0.00000000000E+00 -0.00000000000E+00 -0.71941896180E+03  0.71941896180E+03  0.00000000000E+00 0. -1.
         25    1    1    2    0    0  0.36514437787E+02 -0.15320933619E+03 -0.34765046641E+03  0.40161206613E+03  0.12500000000E+03 0.  0.
         25    1    1    2    0    0 -0.76054637528E+02  0.25757119304E+03 -0.76583166936E+02  0.30596929394E+03  0.12500000000E+03 0.  0.
         25    1    1    2    0    0  0.39540199741E+02 -0.10436185685E+03 -0.10778226737E+03  0.19924066282E+03  0.12500000000E+03 0.  0.
</event>
<event>
 5    0  0.5568866E-005  0.3314233E+03  0.7546771E-02  0.1070509E+00
         21   -1    0    0  502  501  0.00000000000E+00  0.00000000000E+00  0.56825026357E+03  0.56825026357E+03  0.00000000000E+00 0.  1.
         21   -1    0    0  501  502 -0.00000000000E+00 -0.00000000000E+00 -0.19329763583E+03  0.19329763583E+03  0.00000000000E+00 0.  1.
         25    1    1    2    0    0  0.14994563415E+03 -0.17478744283E+02 -0.23391202661E+02  0.19738629148E+03  0.12500000000E+03 0.  0.
         25    1    1    2    0    0 -0.36838863535E+02  0.74406222377E+02  0.27110504593E+02  0.15249054808E+03  0.12500000000E+03 0.  0.
         25    1    1    2    0    0 -0.11310677061E+03 -0.56927478094E+02  0.37123332581E+03  0.41167105984E+03  0.12500000000E+03 0.  0.
</event>
<event>
 5    0  0.5568866E-005  0.3753639E+03  0.7546771E-02  0.1052661E+00
         21   -1    0    0  502  501  0.00000000000E+00  0.00000000000E+00  0.15075434757E+03  0.15075434757E+03  0.00000000000E+00 0.  1.
         21   -1    0    0  501  502 -0.00000000000E+00 -0.00000000000E+00 -0.93462003498E+03  0.93462003498E+03  0.00000000000E+00 0.  1.
         25    1    1    2    0    0 -0.23983374967E+03  0.64227473312E+02 -0.56261057791E+03  0.62753570272E+03  0.12500000000E+03 0.  0.
         25    1    1    2    0    0  0.11585018118E+03  0.40978005816E+02 -0.30845843702E+02  0.17798013236E+03  0.12500000000E+03 0.  0.
         25    1    1    2    0    0  0.12398356849E+03 -0.10520547913E+03 -0.19040926580E+03  0.27985854748E+03  0.12500000000E+03 0.  0.
</event>
<event>
 5    0  0.5568866E-005  0.2498856E+03  0.7546771E-02  0.1113377E+00
         21   -1    0    0  502  501  0.00000000000E+00  0.00000000000E+00  0.35495520007E+02  0.35495520007E+02  0.00000000000E+00 0. -1.
         21   -1    0    0  501  502 -0.00000000000E+00 -0.00000000000E+00 -0.17591748959E+04  0.17591748959E+04  0.00000000000E+00 0. -1.
         25    1    1    2    0    0 -0.44507247323E+02  0.77121697290E+02 -0.11089643218E+04  0.11195336165E+04  0.12500000000E+03 0.  0.
         25    1    1    2    0    0  0.40673991569E+02  0.10871439594E+01 -0.30286339336E+03  0.33016176416E+03  0.12500000000E+03 0.  0.
         25    1    1    2    0    0  0.38332557542E+01 -0.78208841249E+02 -0.31185166066E+03  0.34497503526E+03  0.12500000000E+03 0.  0.
</event>
<event>
 5    0  0.5568866E-005  0.3156256E+03  0.7546771E-02  0.1077680E+00
         21   -1    0    0  502  501  0.00000000000E+00  0.00000000000E+00  0.13622158069E+03  0.13622158069E+03  0.00000000000E+00 0. -1.
         21   -1    0    0  501  502 -0.00000000000E+00 -0.00000000000E+00 -0.73130509052E+03  0.73130509052E+03  0.00000000000E+00 0. -1.
         25    1    1    2    0    0 -0.26995068952E+02  0.27288915188E+02 -0.13301716597E+01  0.13076768713E+03  0.12500000000E+03 0.  0.
         25    1    1    2    0    0 -0.50118136655E+02  0.87070238179E+02 -0.59574264643E+02  0.17107643615E+03  0.12500000000E+03 0.  0.
         25    1    1    2    0    0  0.77113205607E+02 -0.11435915337E+03 -0.53417907353E+03  0.56568254793E+03  0.12500000000E+03 0.  0.
</event>
<event>
 5    0  0.5568866E-005  0.4332709E+03  0.7546771E-02  0.1032832E+00
         21   -1    0    0  502  501  0.00000000000E+00  0.00000000000E+00  0.54017034286E+03  0.54017034286E+03  0.00000000000E+00 0. -1.
         21   -1    0    0  501  502 -0.00000000000E+00 -0.00000000000E+00 -0.34752675123E+03  0.34752675123E+03  0.00000000000E+00 0. -1.
         25    1    1    2    0    0 -0.12061879957E+02 -0.74839303283E+02  0.46952396567E+02  0.15354457922E+03  0.12500000000E+03 0.  0.
         25    1    1    2    0    0  0.27106868950E+03  0.23884446942E+03  0.12589422193E+03  0.40249132924E+03  0.12500000000E+03 0.  0.
         25    1    1    2    0    0 -0.25900680954E+03 -0.16400516613E+03  0.19796973123E+02  0.33166118563E+03  0.12500000000E+03 0.  0.
</event>
<event>
 5    0  0.5568866E-005  0.6450169E+03  0.7546771E-02  0.9816175E-01
         21   -1    0    0  502  501  0.00000000000E+00  0.00000000000E+00  0.64164808384E+03  0.64164808384E+03  0.00000000000E+00 0.  1.
         21   -1    0    0  501  502 -0.00000000000E+00 -0.00000000000E+00 -0.64840339219E+03  0.64840339219E+03  0.00000000000E+00 0.  1.
         25    1    1    2    0    0  0.24375569957E+03  0.25137924489E+03  0.44032212008E+03  0.57629587476E+03  0.12500000000E+03 0.  0.
         25    1    1    2    0    0 -0.11002986953E+03 -0.11165467619E+03  0.11268455150E+02  0.20081164554E+03  0.12500000000E+03 0.  0.
         25    1    1    2    0    0 -0.13372583004E+03 -0.13972456871E+03 -0.45834588358E+03  0.51294395573E+03  0.12500000000E+03 0.  0.
</event>
<event>
 5    0  0.5568866E-005  0.3471114E+03  0.7546771E-02  0.1063807E+00
         21   -1    0    0  502  501  0.00000000000E+00  0.00000000000E+00  0.16992237201E+03  0.16992237201E+03  0.00000000000E+00 0. -1.
         21   -1    0    0  501  502 -0.00000000000E+00 -0.00000000000E+00 -0.70906667752E+03  0.70906667752E+03  0.00000000000E+00 0. -1.
         25    1    1    2    0    0 -0.10719651913E+03  0.12545929051E+03 -0.81372556105E+02  0.22243565401E+03  0.12500000000E+03 0.  0.
         25    1    1    2    0    0  0.19748781871E+03  0.39879488444E+02 -0.29235868684E+03  0.37641787140E+03  0.12500000000E+03 0.  0.
         25    1    1    2    0    0 -0.90291299576E+02 -0.16533877895E+03 -0.16541306258E+03  0.28013552412E+03  0.12500000000E+03 0.  0.
</event>
<event>
 5    0  0.5568866E-005  0.3808081E+03  0.7546771E-02  0.1050635E+00
         21   -1    0    0  502  501  0.00000000000E+00  0.00000000000E+00  0.79515347374E+02  0.79515347374E+02  0.00000000000E+00 0. -1.
         21   -1    0    0  501  502 -0.00000000000E+00 -0.00000000000E+00 -0.18237336466E+04  0.18237336466E+04  0.00000000000E+00 0. -1.
         25    1    1    2    0    0 -0.10532410079E+03 -0.14628181752E+03 -0.53375859037E+03  0.57707431856E+03  0.12500000000E+03 0.  0.
         25    1    1    2    0    0 -0.41672440275E+02 -0.68376275327E+00 -0.50474481217E+02  0.14110185351E+03  0.12500000000E+03 0.  0.
         25    1    1    2    0    0  0.14699654107E+03  0.14696558028E+03 -0.11599852276E+04  0.11850728219E+04  0.12500000000E+03 0.  0.
</event>
<event>
 5    0  0.6449187E-005  0.3182032E+03  0.7546771E-02  0.1076479E+00
         21   -1    0    0  502  501  0.00000000000E+00  0.00000000000E+00  0.48792315749E+03  0.48792315749E+03  0.00000000000E+00 0.  1.
         21   -1    0    0  501  502 -0.00000000000E+00 -0.00000000000E+00 -0.20751895776E+03  0.20751895776E+03  0.00000000000E+00 0.  1.
         25    1    1    2    0    0 -0.13903541974E+03  0.19210718123E+02  0.76661117482E+02  0.20298233068E+03  0.12500000000E+03 0.  0.
         25    1    1    2    0    0  0.18140674138E+03  0.64235485507E+02 -0.77008222505E+01  0.22960598006E+03  0.12500000000E+03 0.  0.
         25    1    1    2    0    0 -0.42371321635E+02 -0.83446203631E+02  0.21144390450E+03  0.26285380451E+03  0.12500000000E+03 0.  0.
</event>
<event>
 5    0  0.7669994E-005  0.3047780E+03  0.7546771E-02  0.1082876E+00
         21   -1    0    0  502  501  0.00000000000E+00  0.00000000000E+00  0.17157748999E+03  0.17157748999E+03  0.00000000000E+00 0. -1.
         21   -1    0    0  501  502 -0.00000000000E+00 -0.00000000000E+00 -0.54138589435E+03  0.54138589435E+03  0.00000000000E+00 0. -1.
         25    1    1    2    0    0  0.11292145469E+03  0.26724063517E+01 -0.13784036378E+03  0.21767719810E+03  0.12500000000E+03 0.  0.
         25    1    1    2    0    0  0.58054511457E+02  0.79366353708E+02  0.15008417553E+02  0.15974854303E+03  0.12500000000E+03 0.  0.
         25    1    1    2    0    0 -0.17097596614E+03 -0.82038760059E+02 -0.24697645813E+03  0.33553764323E+03  0.12500000000E+03 0.  0.
</event>
<event>
 5    0  0.6830883E-005  0.2865770E+03  0.7546771E-02  0.1092150E+00
         21   -1    0    0  502  501  0.00000000000E+00  0.00000000000E+00  0.42047686929E+03  0.42047686929E+03  0.00000000000E+00 0. -1.
         21   -1    0    0  501  502 -0.00000000000E+00 -0.00000000000E+00 -0.19531722997E+03  0.19531722997E+03  0.00000000000E+00 0. -1.
         25    1    1    2    0    0  0.41180505472E+02  0.18151134172E+02 -0.18771233445E+02  0.13417397999E+03  0.12500000000E+03 0.  0.
         25    1    1    2    0    0 -0.74157921345E+02  0.75680358892E+02  0.27382082735E+03  0.31910775532E+03  0.12500000000E+03 0.  0.
         25    1    1    2    0    0  0.32977415873E+02 -0.93831493064E+02 -0.29889954575E+02  0.16251236394E+03  0.12500000000E+03 0.  0.
</event>
<event>
 5    0  0.5568866E-005  0.2659339E+03  0.7546771E-02  0.1103630E+00
         21   -1    0    0  502  501  0.00000000000E+00  0.00000000000E+00  0.12972321855E+03  0.12972321855E+03  0.00000000000E+00 0. -1.
         21   -1    0    0  501  502 -0.00000000000E+00 -0.00000000000E+00 -0.54516707498E+03  0.54516707498E+03  0.00000000000E+00 0. -1.
         25    1    1    2    0    0  0.16175054251E+03  0.41226330906E+02 -0.15375307624E+03  0.25909044138E+03  0.12500000000E+03 0.  0.
         25    1    1    2    0    0 -0.10213740479E+03 -0.33722447932E+02 -0.69882305509E+02  0.17910273470E+03  0.12500000000E+03 0.  0.
         25    1    1    2    0    0 -0.59613137714E+02 -0.75038829743E+01 -0.19180847468E+03  0.23669711745E+03  0.12500000000E+03 0.  0.
</event>
<event>
 5    0  0.5568866E-005  0.2611147E+03  0.7546771E-02  0.1106475E+00
         21   -1    0    0  502  501  0.00000000000E+00  0.00000000000E+00  0.33155277651E+02  0.33155277651E+02  0.00000000000E+00 0.  1.
         21   -1    0    0  501  502 -0.00000000000E+00 -0.00000000000E+00 -0.20564117258E+04  0.20564117258E+04  0.00000000000E+00 0.  1.
         25    1    1    2    0    0 -0.35882120119E+02 -0.10654527775E+03 -0.56086804872E+03  0.58552317702E+03  0.12500000000E+03 0.  0.
         25    1    1    2    0    0  0.28685136919E+02  0.62327840670E+02 -0.12144006767E+04  0.12227434728E+04  0.12500000000E+03 0.  0.
         25    1    1    2    0    0  0.71969831997E+01  0.44217437078E+02 -0.24798772279E+03  0.28130035365E+03  0.12500000000E+03 0.  0.
</event>
<event>
 5    0  0.5568866E-005  0.2945379E+03  0.7546771E-02  0.1088003E+00
         21   -1    0    0  502  501  0.00000000000E+00  0.00000000000E+00  0.82827696139E+03  0.82827696139E+03  0.00000000000E+00 0. -1.
         21   -1    0    0  501  502 -0.00000000000E+00 -0.00000000000E+00 -0.10473863374E+03  0.10473863374E+03  0.00000000000E+00 0. -1.
         25    1    1    2    0    0  0.18896446353E+03 -0.42054502171E+02  0.17481136240E+03  0.28924066459E+03  0.12500000000E+03 0.  0.
         25    1    1    2    0    0 -0.11289491911E+03  0.56255051387E+02  0.38345197065E+03  0.42257580073E+03  0.12500000000E+03 0.  0.
         25    1    1    2    0    0 -0.76069544422E+02 -0.14200549216E+02  0.16527499460E+03  0.22119912980E+03  0.12500000000E+03 0.  0.
</event>
<event>
 5    0  0.5568866E-005  0.3030548E+03  0.7546771E-02  0.1083723E+00
         21   -1    0    0  502  501  0.00000000000E+00  0.00000000000E+00  0.48810573855E+03  0.48810573855E+03  0.00000000000E+00 0.  1.
         21   -1    0    0  501  502 -0.00000000000E+00 -0.00000000000E+00 -0.18816042395E+03  0.18816042395E+03  0.00000000000E+00 0.  1.
         25    1    1    2    0    0  0.92296927193E+02 -0.72014946568E+02  0.15505229867E+03  0.23102184014E+03  0.12500000000E+03 0.  0.
         25    1    1    2    0    0 -0.19946617631E+03  0.38726356738E+02  0.27140029630E+02  0.24010011955E+03  0.12500000000E+03 0.  0.
         25    1    1    2    0    0  0.10716924912E+03  0.33288589829E+02  0.11775298630E+03  0.20514420282E+03  0.12500000000E+03 0.  0.
</event>
<event>
 5    0  0.5568866E-005  0.3424843E+03  0.7546771E-02  0.1065743E+00
         21   -1    0    0  502  501  0.00000000000E+00  0.00000000000E+00  0.10559379063E+03  0.10559379063E+03  0.00000000000E+00 0. -1.
         21   -1    0    0  501  502 -0.00000000000E+00 -0.00000000000E+00 -0.11108180423E+04  0.11108180423E+04  0.00000000000E+00 0. -1.
         25    1    1    2    0    0 -0.63868424459E+02 -0.22164753342E+03 -0.54216288887E+03  0.60230590466E+03  0.12500000000E+03 0.  0.
         25    1    1    2    0    0  0.83648781100E+02  0.56341697956E+01 -0.14154687030E+03  0.20661408214E+03  0.12500000000E+03 0.  0.
         25    1    1    2    0    0 -0.19780356641E+02  0.21601336362E+03 -0.32151449244E+03  0.40749184608E+03  0.12500000000E+03 0.  0.
</event>
<event>
 5    0  0.5568866E-005  0.3097565E+03  0.7546771E-02  0.1080463E+00
         21   -1    0    0  502  501  0.00000000000E+00  0.00000000000E+00  0.82477404758E+02  0.82477404758E+02  0.00000000000E+00 0.  1.
         21   -1    0    0  501  502 -0.00000000000E+00 -0.00000000000E+00 -0.11633375984E+04  0.11633375984E+04  0.00000000000E+00 0.  1.
         25    1    1    2    0    0  0.18177314176E+02 -0.59837343496E+02 -0.32285853147E+03  0.35181465826E+03  0.12500000000E+03 0.  0.
         25    1    1    2    0    0  0.63365994494E+02  0.14377344921E+03 -0.67401340521E+03  0.70328168209E+03  0.12500000000E+03 0.  0.
         25    1    1    2    0    0 -0.81543308670E+02 -0.83936105717E+02 -0.83988256948E+02  0.19071866279E+03  0.12500000000E+03 0.  0.
</event>
<event>
 5    0  0.5869167E-005  0.3245493E+03  0.7546771E-02  0.1073574E+00
         21   -1    0    0  502  501  0.00000000000E+00  0.00000000000E+00  0.29799864551E+03  0.29799864551E+03  0.00000000000E+00 0.  1.
         21   -1    0    0  501  502 -0.00000000000E+00 -0.00000000000E+00 -0.35346558736E+03  0.35346558736E+03  0.00000000000E+00 0.  1.
         25    1    1    2    0    0  0.11146258562E+03  0.11098419627E+02  0.10488645822E+03  0.19792233838E+03  0.12500000000E+03 0.  0.
         25    1    1    2    0    0 -0.13513487259E+03 -0.11580469542E+03 -0.18676747266E+03  0.28666923469E+03  0.12500000000E+03 0.  0.
         25    1    1    2    0    0  0.23672286972E+02  0.10470627579E+03  0.26414072598E+02  0.16687265981E+03  0.12500000000E+03 0.  0.
</event>
<event>
 5    0  0.5568866E-005  0.4293457E+03  0.7546771E-02  0.1034067E+00
         21   -1    0    0  502  501  0.00000000000E+00  0.00000000000E+00  0.14712329313E+03  0.14712329313E+03  0.00000000000E+00 0.  1.
         21   -1    0    0  501  502 -0.00000000000E+00 -0.00000000000E+00 -0.12529471073E+04  0.12529471073E+04  0.00000000000E+00 0.  1.
         25    1    1    2    0    0  0.25409682873E+03  0.17472198000E+03 -0.35035756801E+03  0.48318567252E+03  0.12500000000E+03 0.  0.
         25    1    1    2    0    0 -0.35266212886E+02  0.64784397963E+02 -0.37179972915E+03  0.39912499619E+03  0.12500000000E+03 0.  0.
         25    1    1    2    0    0 -0.21883061585E+03 -0.23950637796E+03 -0.38366651705E+03  0.51775973175E+03  0.12500000000E+03 0.  0.
</event>
<event>
 5    0  0.5568866E-005  0.2679122E+03  0.7546771E-02  0.1102480E+00
         21   -1    0    0  502  501  0.00000000000E+00  0.00000000000E+00  0.86758905385E+03  0.86758905385E+03  0.00000000000E+00 0. -1.
         21   -1    0    0  501  502 -0.00000000000E+00 -0.00000000000E+00 -0.82731517154E+02  0.82731517154E+02  0.00000000000E+00 0. -1.
         25    1    1    2    0    0  0.85715511095E+02  0.28832909387E+02  0.38934422839E+03  0.41879877470E+03  0.12500000000E+03 0.  0.
         25    1    1    2    0    0 -0.52460269107E+02  0.33458817059E+02  0.35696109223E+02  0.14412072886E+03  0.12500000000E+03 0.  0.
         25    1    1    2    0    0 -0.33255241988E+02 -0.62291726446E+02  0.35981719908E+03  0.38740106744E+03  0.12500000000E+03 0.  0.
</event>
<event>
 5    0  0.5837547E-005  0.2852873E+03  0.7546771E-02  0.1092836E+00
         21   -1    0    0  502  501  0.00000000000E+00  0.00000000000E+00  0.56836980725E+03  0.56836980725E+03  0.00000000000E+00 0.  1.
         21   -1    0    0  501  502 -0.00000000000E+00 -0.00000000000E+00 -0.14319697113E+03  0.14319697113E+03  0.00000000000E+00 0.  1.
         25    1    1    2    0    0  0.52584581212E+02 -0.93778113366E+02  0.54330433959E+01  0.16496663508E+03  0.12500000000E+03 0.  0.
         25    1    1    2    0    0  0.74608267738E+02  0.14866709208E+01  0.13774011684E+03  0.20041442960E+03  0.12500000000E+03 0.  0.
         25    1    1    2    0    0 -0.12719284895E+03  0.92291442446E+02  0.28199967589E+03  0.34618571370E+03  0.12500000000E+03 0.  0.
</event>
<event>
 5    0  0.5568866E-005  0.2395923E+03  0.7546771E-02  0.1120065E+00
         21   -1    0    0  502  501  0.00000000000E+00  0.00000000000E+00  0.53196730049E+02  0.53196730049E+02  0.00000000000E+00 0. -1.
         21   -1    0    0  501  502 -0.00000000000E+00 -0.00000000000E+00 -0.10790977520E+04  0.10790977520E+04  0.00000000000E+00 0. -1.
         25    1    1    2    0    0 -0.10329371263E+03  0.31756250090E+01 -0.43504699044E+03  0.46429576733E+03  0.12500000000E+03 0.  0.
         25    1    1    2    0    0  0.23140468649E+02  0.53085644867E+02 -0.37885066656E+03  0.40312081878E+03  0.12500000000E+03 0.  0.
         25    1    1    2    0    0  0.80153243978E+02 -0.56261269876E+02 -0.21200336492E+03  0.26487789592E+03  0.12500000000E+03 0.  0.
</event>
<event>
 5    0  0.5568866E-005  0.4858916E+03  0.7546771E-02  0.1017528E+00
         21   -1    0    0  502  501  0.00000000000E+00  0.00000000000E+00  0.11743055256E+04  0.11743055256E+04  0.00000000000E+00 0. -1.
         21   -1    0    0  501  502 -0.00000000000E+00 -0.00000000000E+00 -0.20104699781E+03  0.20104699781E+03  0.00000000000E+00 0. -1.
         25    1    1    2    0    0  0.14183740159E+03 -0.23183377415E+02  0.41524232629E+03  0.45684407298E+03  0.12500000000E+03 0.  0.
         25    1    1    2    0    0  0.18194393578E+03 -0.22058091008E+02  0.52134662103E+03  0.56658402237E+03  0.12500000000E+03 0.  0.
         25    1    1    2    0    0 -0.32378133737E+03  0.45241468423E+02  0.36669580421E+02  0.35192442800E+03  0.12500000000E+03 0.  0.
</event>
<event>
 5    0  0.5568866E-005  0.2521369E+03  0.7546771E-02  0.1111962E+00
         21   -1    0    0  502  501  0.00000000000E+00  0.00000000000E+00  0.69104441323E+02  0.69104441323E+02  0.00000000000E+00 0.  1.
         21   -1    0    0  501  502 -0.00000000000E+00 -0.00000000000E+00 -0.91995537533E+03  0.91995537533E+03  0.00000000000E+00 0.  1.
         25    1    1    2    0    0 -0.15146823109E+03  0.20146087171E+01 -0.28084146179E+03  0.34270046737E+03  0.12500000000E+03 0.  0.
         25    1    1    2    0    0  0.89094087573E+02  0.21043265073E+02 -0.22267018738E+03  0.27127032236E+03  0.12500000000E+03 0.  0.
         25    1    1    2    0    0  0.62374143520E+02 -0.23057873790E+02 -0.34733928484E+03  0.37508902693E+03  0.12500000000E+03 0.  0.
</event>
<event>
 5    0  0.5568866E-005  0.2139323E+03  0.7546771E-02  0.1138489E+00
         21   -1    0    0  502  501  0.00000000000E+00  0.00000000000E+00  0.74924188072E+03  0.74924188072E+03  0.00000000000E+00 0. -1.
         21   -1    0    0  501  502 -0.00000000000E+00 -0.00000000000E+00 -0.61084468765E+02  0.61084468765E+02  0.00000000000E+00 0. -1.
         25    1    1    2    0    0  0.39165454078E+02  0.23520420116E+02  0.18334279267E+03  0.22655401692E+03  0.12500000000E+03 0.  0.
         25    1    1    2    0    0  0.84683247387E+01  0.46567425770E+02  0.16825290059E+03  0.21488200535E+03  0.12500000000E+03 0.  0.
         25    1    1    2    0    0 -0.47633778817E+02 -0.70087845886E+02  0.33656171869E+03  0.36889032722E+03  0.12500000000E+03 0.  0.
</event>
<event>
 5    0  0.5568866E-005  0.2443346E+03  0.7546771E-02  0.1116938E+00
         21   -1    0    0  502  501  0.00000000000E+00  0.00000000000E+00  0.47755301829E+03  0.47755301829E+03  0.00000000000E+00 0. -1.
         21   -1    0    0  501  502 -0.00000000000E+00 -0.00000000000E+00 -0.12501108510E+03  0.12501108510E+03  0.00000000000E+00 0. -1.
         25    1    1    2    0    0 -0.24735338949E+02 -0.76176078749E+02  0.22837799392E+03  0.27238968423E+03  0.12500000000E+03 0.  0.
         25    1    1    2    0    0 -0.42182369641E+02  0.69183977368E+02  0.11450536770E+03  0.18788894131E+03  0.12500000000E+03 0.  0.
         25    1    1    2    0    0  0.66917708590E+02  0.69921013818E+01  0.96585715674E+01  0.14228547786E+03  0.12500000000E+03 0.  0.
</event>
<event>
 5    0  0.5568866E-005  0.4184756E+03  0.7546771E-02  0.1037564E+00
         21   -1    0    0  502  501  0.00000000000E+00  0.00000000000E+00  0.46364587345E+03  0.46364587345E+03  0.00000000000E+00 0.  1.
         21   -1    0    0  501  502 -0.00000000000E+00 -0.00000000000E+00 -0.37770602194E+03  0.37770602194E+03  0.00000000000E+00 0.  1.
         25    1    1    2    0    0  0.15678151681E+02 -0.73571070696E+02  0.11458367781E+03  0.18550721308E+03  0.12500000000E+03 0.  0.
         25    1    1    2    0    0  0.42017949559E+02 -0.10628949327E+03  0.24673856903E+03  0.29927894331E+03  0.12500000000E+03 0.  0.
         25    1    1    2    0    0 -0.57696101240E+02  0.17986056397E+03 -0.27538239532E+03  0.35656573899E+03  0.12500000000E+03 0.  0.
</event>
<event>
 5    0  0.5568866E-005  0.2065533E+03  0.7546771E-02  0.1144325E+00
         21   -1    0    0  502  501  0.00000000000E+00  0.00000000000E+00  0.21884904960E+04  0.21884904960E+04  0.00000000000E+00 0. -1.
         21   -1    0    0  501  502 -0.00000000000E+00 -0.00000000000E+00 -0.19494842382E+02  0.19494842382E+02  0.00000000000E+00 0. -1.
         25    1    1    2    0    0  0.43760256814E+01  0.56156294096E+02  0.61923340066E+03  0.63422999256E+03  0.12500000000E+03 0.  0.
         25    1    1    2    0    0  0.39747530656E+02 -0.50563916064E+02  0.84491057459E+03  0.85652522137E+03  0.12500000000E+03 0.  0.
         25    1    1    2    0    0 -0.44123556337E+02 -0.55923780318E+01  0.70485167840E+03  0.71723012448E+03  0.12500000000E+03 0.  0.
</event>
<event>
 5    0  0.5568866E-005  0.3126608E+03  0.7546771E-02  0.1079077E+00
         21   -1    0    0  502  501  0.00000000000E+00  0.00000000000E+00  0.23552939335E+03  0.23552939335E+03  0.00000000000E+00 0. -1.
         21   -1    0    0  501  502 -0.00000000000E+00 -0.00000000000E+00 -0.41505120155E+03  0.41505120155E+03  0.00000000000E+00 0. -1.
         25    1    1    2    0    0 -0.19340529565E+03 -0.13449928997E+03 -0.12159021118E+03  0.29309528629E+03  0.12500000000E+03 0.  0.
         25    1    1    2    0    0  0.13024496529E+03  0.10751421154E+03 -0.36319785783E+02  0.21323035315E+03  0.12500000000E+03 0.  0.
         25    1    1    2    0    0  0.63160330365E+02  0.26985078434E+02 -0.21611811235E+02  0.14425495546E+03  0.12500000000E+03 0.  0.
</event>
<event>
 5    0  0.5568866E-005  0.4111148E+03  0.7546771E-02  0.1039998E+00
         21   -1    0    0  502  501  0.00000000000E+00  0.00000000000E+00  0.47667771057E+03  0.47667771057E+03  0.00000000000E+00 0.  1.
         21   -1    0    0  501  502 -0.00000000000E+00 -0.00000000000E+00 -0.35456950743E+03  0.35456950743E+03  0.00000000000E+00 0.  1.
         25    1    1    2    0    0 -0.81476372645E+02 -0.26530432577E+03  0.38977583229E+02  0.30686973876E+03  0.12500000000E+03 0.  0.
         25    1    1    2    0    0  0.91288204137E+02 -0.51048946139E+02  0.85549259432E+02  0.18407391696E+03  0.12500000000E+03 0.  0.
         25    1    1    2    0    0 -0.98118314920E+01  0.31635327191E+03 -0.24186395203E+01  0.34030356228E+03  0.12500000000E+03 0.  0.
</event>
<event>
 5    0  0.5568866E-005  0.3171447E+03  0.7546771E-02  0.1076971E+00
         21   -1    0    0  502  501  0.00000000000E+00  0.00000000000E+00  0.38397393844E+03  0.38397393844E+03  0.00000000000E+00 0. -1.
         21   -1    0    0  501  502 -0.00000000000E+00 -0.00000000000E+00 -0.26194681726E+03  0.26194681726E+03  0.00000000000E+00 0. -1.
         25    1    1    2    0    0 -0.72220239747E+02  0.88810496025E+01  0.14041701009E+03  0.20158515023E+03  0.12500000000E+03 0.  0.
         25    1    1    2    0    0  0.83700717093E+01 -0.92213456861E+02  0.14551636212E+03  0.21301030814E+03  0.12500000000E+03 0.  0.
         25    1    1    2    0    0  0.63850168038E+02  0.83332407258E+02 -0.16390625104E+03  0.23132529733E+03  0.12500000000E+03 0.  0.
</event>
<event>
 5    0  0.5568866E-005  0.2618219E+03  0.7546771E-02  0.1106054E+00
         21   -1    0    0  502  501  0.00000000000E+00  0.00000000000E+00  0.67300820127E+02  0.67300820127E+02  0.00000000000E+00 0.  1.
         21   -1    0    0  501  502 -0.00000000000E+00 -0.00000000000E+00 -0.10185714971E+04  0.10185714971E+04  0.00000000000E+00 0.  1.
         25    1    1    2    0    0 -0.32971010081E+02 -0.53946672794E+02 -0.42421143559E+03  0.44674117014E+03  0.12500000000E+03 0.  0.
         25    1    1    2    0    0  0.38990631450E+01 -0.13984208960E+02 -0.46410940622E+03  0.48086723920E+03  0.12500000000E+03 0.  0.
         25    1    1    2    0    0  0.29071946936E+02  0.67930881753E+02 -0.62949835170E+02  0.15826390790E+03  0.12500000000E+03 0.  0.
</event>
<event>
 5    0  0.5568866E-005  0.3196191E+03  0.7546771E-02  0.1075825E+00
         21   -1    0    0  502  501  0.00000000000E+00  0.00000000000E+00  0.34471287816E+03  0.34471287816E+03  0.00000000000E+00 0.  1.
         21   -1    0    0  501  502 -0.00000000000E+00 -0.00000000000E+00 -0.29635212934E+03  0.29635212934E+03  0.00000000000E+00 0.  1.
         25    1    1    2    0    0 -0.76376116728E+02 -0.91526218528E+02  0.12466894515E+03  0.21302043510E+03  0.12500000000E+03 0.  0.
         25    1    1    2    0    0  0.34069565642E+02  0.20627869677E+03 -0.68283015027E+02  0.25298064390E+03  0.12500000000E+03 0.  0.
         25    1    1    2    0    0  0.42306551087E+02 -0.11475247825E+03 -0.80251813110E+01  0.17506392851E+03  0.12500000000E+03 0.  0.
</event>
<event>
 5    0  0.5568866E-005  0.2679607E+03  0.7546771E-02  0.1102452E+00
         21   -1    0    0  502  501  0.00000000000E+00  0.00000000000E+00  0.46728084618E+03  0.46728084618E+03  0.00000000000E+00 0.  1.
         21   -1    0    0  501  502 -0.00000000000E+00 -0.00000000000E+00 -0.15366119504E+03  0.15366119504E+03  0.00000000000E+00 0.  1.
         25    1    1    2    0    0 -0.18208656557E+02 -0.12667699136E+02  0.20641899952E+03  0.24233412706E+03  0.12500000000E+03 0.  0.
         25    1    1    2    0    0  0.12627840871E+03  0.19529894024E+02 -0.48890030776E+01  0.17881989716E+03  0.12500000000E+03 0.  0.
         25    1    1    2    0    0 -0.10806975216E+03 -0.68621948883E+01  0.11208965470E+03  0.19978801701E+03  0.12500000000E+03 0.  0.
</event>
<event>
 5    0  0.5568866E-005  0.2878150E+03  0.7546771E-02  0.1091495E+00
         21   -1    0    0  502  501  0.00000000000E+00  0.00000000000E+00  0.12040965911E+04  0.12040965911E+04  0.00000000000E+00 0.  1.
         21   -1    0    0  501  502 -0.00000000000E+00 -0.00000000000E+00 -0.68796382374E+02  0.68796382374E+02  0.00000000000E+00 0.  1.
         25    1    1    2    0    0 -0.56546345710E+02  0.11061555363E+03  0.65591149622E+03  0.67917463203E+03  0.12500000000E+03 0.  0.
         25    1    1    2    0    0  0.66187961671E+02  0.41528960679E+02  0.15336861793E+03  0.21272619446E+03  0.12500000000E+03 0.  0.
         25    1    1    2    0    0 -0.96416159610E+01 -0.15214451431E+03  0.32602009458E+03  0.38099214699E+03  0.12500000000E+03 0.  0.
</event>
<event>
 5    0  0.5568866E-005  0.3425730E+03  0.7546771E-02  0.1065705E+00
         21   -1    0    0  502  501  0.00000000000E+00  0.00000000000E+00  0.47089689712E+03  0.47089689712E+03  0.00000000000E+00 0.  1.
         21   -1    0    0  501  502 -0.00000000000E+00 -0.00000000000E+00 -0.24921855607E+03  0.24921855607E+03  0.00000000000E+00 0.  1.
         25    1    1    2    0    0 -0.55501998639E+02 -0.64720813486E+02 -0.66758506462E+02  0.16538123756E+03  0.12500000000E+03 0.  0.
         25    1    1    2    0    0  0.90643897560E+02  0.13424402153E+03  0.34156560496E+03  0.39815805401E+03  0.12500000000E+03 0.  0.
         25    1    1    2    0    0 -0.35141898922E+02 -0.69523208048E+02 -0.53128757457E+02  0.15657616161E+03  0.12500000000E+03 0.  0.
</event>
<event>
 5    0  0.5568866E-005  0.3104769E+03  0.7546771E-02  0.1080118E+00
         21   -1    0    0  502  501  0.00000000000E+00  0.00000000000E+00  0.30578504506E+03  0.30578504506E+03  0.00000000000E+00 0. -1.
         21   -1    0    0  501  502 -0.00000000000E+00 -0.00000000000E+00 -0.31524079024E+03  0.31524079024E+03  0.00000000000E+00 0. -1.
         25    1    1    2    0    0 -0.12209034372E+03 -0.70793982211E+02 -0.52591911350E+02  0.19572620950E+03  0.12500000000E+03 0.  0.
         25    1    1    2    0    0  0.58392115545E-01  0.16323950338E+03 -0.42420893006E+02  0.20993253925E+03  0.12500000000E+03 0.  0.
         25    1    1    2    0    0  0.12203195160E+03 -0.92445521167E+02  0.85557059172E+02  0.21536708655E+03  0.12500000000E+03 0.  0.
</event>
<event>
 5    0  0.5568866E-005  0.3516588E+03  0.7546771E-02  0.1061936E+00
         21   -1    0    0  502  501  0.00000000000E+00  0.00000000000E+00  0.20910046418E+03  0.20910046418E+03  0.00000000000E+00 0. -1.
         21   -1    0    0  501  502 -0.00000000000E+00 -0.00000000000E+00 -0.59140898088E+03  0.59140898088E+03  0.00000000000E+00 0. -1.
         25    1    1    2    0    0  0.38424882805E+02  0.10890518451E+03 -0.31627124767E+03  0.35915082199E+03  0.12500000000E+03 0.  0.
         25    1    1    2    0    0 -0.53465447591E+02 -0.16260348120E+03  0.93063713263E+02  0.23148283070E+03  0.12500000000E+03 0.  0.
         25    1    1    2    0    0  0.15040564786E+02  0.53698296686E+02 -0.15910098229E+03  0.20987579237E+03  0.12500000000E+03 0.  0.
</event>
<event>
 5    0  0.5568866E-005  0.3190084E+03  0.7546771E-02  0.1076107E+00
         21   -1    0    0  502  501  0.00000000000E+00  0.00000000000E+00  0.33838246538E+02  0.33838246538E+02  0.00000000000E+00 0.  1.
         21   -1    0    0  501  502 -0.00000000000E+00 -0.00000000000E+00 -0.30074353366E+04  0.30074353366E+04  0.00000000000E+00 0.  1.
         25    1    1    2    0    0  0.19327694412E+03 -0.15147403359E+03 -0.15155988200E+04  0.15404431645E+04  0.12500000000E+03 0.  0.
         25    1    1    2    0    0 -0.95736243780E+02  0.41429023195E+02 -0.69140421948E+03  0.71031442830E+03  0.12500000000E+03 0.  0.
         25    1    1    2    0    0 -0.97540700341E+02  0.11004501040E+03 -0.76659405064E+03  0.79051599035E+03  0.12500000000E+03 0.  0.
</event>
<event>
 5    0  0.5568866E-005  0.4145328E+03  0.7546771E-02  0.1038861E+00
         21   -1    0    0  502  501  0.00000000000E+00  0.00000000000E+00  0.21095201272E+04  0.21095201272E+04  0.00000000000E+00 0.  1.
         21   -1    0    0  501  502 -0.00000000000E+00 -0.00000000000E+00 -0.81458082813E+02  0.81458082813E+02  0.00000000000E+00 0.  1.
         25    1    1    2    0    0  0.26437092201E+03  0.81152162947E+02  0.38973060486E+03  0.49395607327E+03  0.12500000000E+03 0.  0.
         25    1    1    2    0    0 -0.87231431228E+02 -0.12601385745E+03  0.10489153805E+04  0.10673974379E+04  0.12500000000E+03 0.  0.
         25    1    1    2    0    0 -0.17713949078E+03  0.44861694504E+02  0.58941605899E+03  0.62962469887E+03  0.12500000000E+03 0.  0.
</event>
<event>
 5    0  0.5568866E-005  0.2421742E+03  0.7546771E-02  0.1118353E+00
         21   -1    0    0  502  501  0.00000000000E+00  0.00000000000E+00  0.19248959553E+03  0.19248959553E+03  0.00000000000E+00 0. -1.
         21   -1    0    0  501  502 -0.00000000000E+00 -0.00000000000E+00 -0.30468311469E+03  0.30468311469E+03  0.00000000000E+00 0. -1.
         25    1    1    2    0    0  0.34593813431E+02 -0.16776753847E+02 -0.21154221149E+02  0.13247902653E+03  0.12500000000E+03 0.  0.
         25    1    1    2    0    0 -0.18649902119E+02 -0.10897549378E+03 -0.83267744631E+02  0.18649931472E+03  0.12500000000E+03 0.  0.
         25    1    1    2    0    0 -0.15943911312E+02  0.12575224763E+03 -0.77715533758E+01  0.17819436897E+03  0.12500000000E+03 0.  0.
</event>
<event>
 5    0  0.5568866E-005  0.3289895E+03  0.7546771E-02  0.1071585E+00
         21   -1    0    0  502  501  0.00000000000E+00  0.00000000000E+00  0.13616319027E+04  0.13616319027E+04  0.00000000000E+00 0. -1.
         21   -1    0    0  501  502 -0.00000000000E+00 -0.00000000000E+00 -0.79488527057E+02  0.79488527057E+02  0.00000000000E+00 0. -1.
         25    1    1    2    0    0  0.17851847630E+03 -0.33898591173E+02  0.46845331640E+03  0.51777550204E+03  0.12500000000E+03 0.  0.
         25    1    1    2    0    0 -0.10999031908E+03  0.37738930665E+02  0.74637463340E+03  0.76565148114E+03  0.12500000000E+03 0.  0.
         25    1    1    2    0    0 -0.68528157219E+02 -0.38403394920E+01  0.67315425844E+02  0.15769344658E+03  0.12500000000E+03 0.  0.
</event>
<event>
 5    0  0.5568866E-005  0.2823696E+03  0.7546771E-02  0.1094402E+00
         21   -1    0    0  502  501  0.00000000000E+00  0.00000000000E+00  0.15439969675E+03  0.15439969675E+03  0.00000000000E+00 0. -1.
         21   -1    0    0  501  502 -0.00000000000E+00 -0.00000000000E+00 -0.51640363400E+03  0.51640363400E+03  0.00000000000E+00 0. -1.
         25    1    1    2    0    0 -0.12287816662E+03  0.49511283490E+02 -0.20269413141E+03  0.27250747133E+03  0.12500000000E+03 0.  0.
         25    1    1    2    0    0  0.14966724622E+03  0.31878521650E+02 -0.31575242340E+02  0.20009627848E+03  0.12500000000E+03 0.  0.
         25    1    1    2    0    0 -0.26789079598E+02 -0.81389805140E+02 -0.12773456350E+03  0.19819958093E+03  0.12500000000E+03 0.  0.
</event>
<event>
 5    0  0.5568866E-005  0.2657998E+03  0.7546771E-02  0.1103708E+00
         21   -1    0    0  502  501  0.00000000000E+00  0.00000000000E+00  0.13375224823E+04  0.13375224823E+04  0.00000000000E+00 0.  1.
         21   -1    0    0  501  502 -0.00000000000E+00 -0.00000000000E+00 -0.52821181230E+02  0.52821181230E+02  0.00000000000E+00 0.  1.
         25    1    1    2    0    0 -0.22792709244E+02  0.14473630427E+03  0.76168442609E+03  0.78565658549E+03  0.12500000000E+03 0.  0.
         25    1    1    2    0    0  0.25220672453E+02 -0.87064376221E+02  0.19345120490E+03  0.24751698246E+03  0.12500000000E+03 0.  0.
         25    1    1    2    0    0 -0.24279632091E+01 -0.57671928046E+02  0.32956567008E+03  0.35717009559E+03  0.12500000000E+03 0.  0.
</event>
<event>
 5    0  0.5568866E-005  0.2119913E+03  0.7546771E-02  0.1139999E+00
         21   -1    0    0  502  501  0.00000000000E+00  0.00000000000E+00  0.69968985644E+02  0.69968985644E+02  0.00000000000E+00 0. -1.
         21   -1    0    0  501  502 -0.00000000000E+00 -0.00000000000E+00 -0.64228918376E+03  0.64228918376E+03  0.00000000000E+00 0. -1.
         25    1    1    2    0    0  0.36436486787E+02 -0.23898311726E+02 -0.15623847761E+03  0.20477843822E+03  0.12500000000E+03 0.  0.
         25    1    1    2    0    0 -0.78567976107E+02  0.45377144498E+02 -0.25550357832E+03  0.29856170325E+03  0.12500000000E+03 0.  0.
         25    1    1    2    0    0  0.42131489320E+02 -0.21478832772E+02 -0.16057814218E+03  0.20891802793E+03  0.12500000000E+03 0.  0.
</event>
<event>
 5    0  0.5568866E-005  0.4514697E+03  0.7546771E-02  0.1027285E+00
         21   -1    0    0  502  501  0.00000000000E+00  0.00000000000E+00  0.32564051922E+03  0.32564051922E+03  0.00000000000E+00 0. -1.
         21   -1    0    0  501  502 -0.00000000000E+00 -0.00000000000E+00 -0.62591981055E+03  0.62591981055E+03  0.00000000000E+00 0. -1.
         25    1    1    2    0    0 -0.83986360720E+02 -0.25392002570E+03 -0.41178577430E+03  0.50667702944E+03  0.12500000000E+03 0.  0.
         25    1    1    2    0    0 -0.71236021751E+02  0.74851521228E+02  0.30930809427E+02  0.16510310717E+03  0.12500000000E+03 0.  0.
         25    1    1    2    0    0  0.15522238247E+03  0.17906850448E+03  0.80575673546E+02  0.27978019316E+03  0.12500000000E+03 0.  0.
</event>
<event>
 5    0  0.5568866E-005  0.4127504E+03  0.7546771E-02  0.1039452E+00
         21   -1    0    0  502  501  0.00000000000E+00  0.00000000000E+00  0.77757728042E+03  0.77757728042E+03  0.00000000000E+00 0. -1.
         21   -1    0    0  501  502 -0.00000000000E+00 -0.00000000000E+00 -0.21909451557E+03  0.21909451557E+03  0.00000000000E+00 0. -1.
         25    1    1    2    0    0 -0.33308691253E+02 -0.12037665227E+03 -0.59499677088E+02  0.18645433462E+03  0.12500000000E+03 0.  0.
         25    1    1    2    0    0  0.90621392810E+02  0.26152914675E+03  0.48583266516E+03  0.57294686488E+03  0.12500000000E+03 0.  0.
         25    1    1    2    0    0 -0.57312701557E+02 -0.14115249448E+03  0.13214977678E+03  0.23727059649E+03  0.12500000000E+03 0.  0.
</event>
<event>
 5    0  0.6623994E-005  0.2836379E+03  0.7546771E-02  0.1093718E+00
         21   -1    0    0  502  501  0.00000000000E+00  0.00000000000E+00  0.16938765549E+03  0.16938765549E+03  0.00000000000E+00 0. -1.
         21   -1    0    0  501  502 -0.00000000000E+00 -0.00000000000E+00 -0.47494874993E+03  0.47494874993E+03  0.00000000000E+00 0. -1.
         25    1    1    2    0    0 -0.14740998416E+03 -0.47932119590E+02 -0.16088395472E+03  0.25599968438E+03  0.12500000000E+03 0.  0.
         25    1    1    2    0    0 -0.25983127893E+02 -0.32076396755E+02 -0.62874147984E+02  0.14588412062E+03  0.12500000000E+03 0.  0.
         25    1    1    2    0    0  0.17339311205E+03  0.80008516345E+02 -0.81802991736E+02  0.24245260042E+03  0.12500000000E+03 0.  0.
</event>
<event>
 5    0  0.5568866E-005  0.2618192E+03  0.7546771E-02  0.1106055E+00
         21   -1    0    0  502  501  0.00000000000E+00  0.00000000000E+00  0.78185918966E+02  0.78185918966E+02  0.00000000000E+00 0.  1.
         21   -1    0    0  501  502 -0.00000000000E+00 -0.00000000000E+00 -0.87674745461E+03  0.87674745461E+03  0.00000000000E+00 0.  1.
         25    1    1    2    0    0 -0.77108267966E+02 -0.10424289946E+03 -0.20183970420E+03  0.27051161392E+03  0.12500000000E+03 0.  0.
         25    1    1    2    0    0  0.11015618620E+03  0.67652787297E+02 -0.45440411379E+03  0.48869150147E+03  0.12500000000E+03 0.  0.
         25    1    1    2    0    0 -0.33047918233E+02  0.36590112159E+02 -0.14231771766E+03  0.19573025818E+03  0.12500000000E+03 0.  0.
</event>
<event>
 5    0  0.5568866E-005  0.2863765E+03  0.7546771E-02  0.1092256E+00
         21   -1    0    0  502  501  0.00000000000E+00  0.00000000000E+00  0.69889583477E+02  0.69889583477E+02  0.00000000000E+00 0. -1.
         21   -1    0    0  501  502 -0.00000000000E+00 -0.00000000000E+00 -0.11734442056E+04  0.11734442056E+04  0.00000000000E+00 0. -1.
         25    1    1    2    0    0  0.10652013442E+03 -0.11186190847E+03 -0.54948932893E+03  0.58431425467E+03  0.12500000000E+03 0.  0.
         25    1    1    2    0    0 -0.18740783169E+02  0.56218492351E+02 -0.43786411041E+03  0.45919681513E+03  0.12500000000E+03 0.  0.
         25    1    1    2    0    0 -0.87779351252E+02  0.55643416118E+02 -0.11620118280E+03  0.19982271930E+03  0.12500000000E+03 0.  0.
</event>
<event>
 5    0  0.5568866E-005  0.3327172E+03  0.7546771E-02  0.1069941E+00
         21   -1    0    0  502  501  0.00000000000E+00  0.00000000000E+00  0.27723334061E+03  0.27723334061E+03  0.00000000000E+00 0.  1.
         21   -1    0    0  501  502 -0.00000000000E+00 -0.00000000000E+00 -0.39930524783E+03  0.39930524783E+03  0.00000000000E+00 0.  1.
         25    1    1    2    0    0 -0.10114807898E+03  0.79673948065E+02 -0.79244985998E+02  0.19617247434E+03  0.12500000000E+03 0.  0.
         25    1    1    2    0    0  0.10565485892E+03  0.14592804930E+03 -0.36760856608E+02  0.22233826788E+03  0.12500000000E+03 0.  0.
         25    1    1    2    0    0 -0.45067799378E+01 -0.22560199737E+03 -0.60660646148E+01  0.25802784621E+03  0.12500000000E+03 0.  0.
</event>
<event>
 5    0  0.5568866E-005  0.2788066E+03  0.7546771E-02  0.1096343E+00
         21   -1    0    0  502  501  0.00000000000E+00  0.00000000000E+00  0.69388807268E+02  0.69388807268E+02  0.00000000000E+00 0.  1.
         21   -1    0    0  501  502 -0.00000000000E+00 -0.00000000000E+00 -0.11202547159E+04  0.11202547159E+04  0.00000000000E+00 0.  1.
         25    1    1    2    0    0 -0.18261705453E+02 -0.12131509299E+03 -0.15069184378E+03  0.23104950434E+03  0.12500000000E+03 0.  0.
         25    1    1    2    0    0  0.69102326946E+02 -0.38987043856E+01 -0.33509782355E+03  0.36428818652E+03  0.12500000000E+03 0.  0.
         25    1    1    2    0    0 -0.50840621493E+02  0.12521379737E+03 -0.56507624133E+03  0.59430583234E+03  0.12500000000E+03 0.  0.
</event>
<event>
 5    0  0.5568866E-005  0.4680657E+03  0.7546771E-02  0.1022468E+00
         21   -1    0    0  502  501  0.00000000000E+00  0.00000000000E+00  0.22159582498E+04  0.22159582498E+04  0.00000000000E+00 0. -1.
         21   -1    0    0  501  502 -0.00000000000E+00 -0.00000000000E+00 -0.98867168941E+02  0.98867168941E+02  0.00000000000E+00 0. -1.
         25    1    1    2    0    0 -0.22323126778E+03 -0.16513814949E+02  0.40538428048E+03  0.47965229058E+03  0.12500000000E+03 0.  0.
         25    1    1    2    0    0  0.65969576420E+02  0.28003868830E+03  0.10383744109E+04  0.10847211942E+04  0.12500000000E+03 0.  0.
         25    1    1    2    0    0  0.15726169136E+03 -0.26352487335E+03  0.67333238948E+03  0.75045193395E+03  0.12500000000E+03 0.  0.
</event>
<event>
 5    0  0.5568866E-005  0.3948823E+03  0.7546771E-02  0.1045566E+00
         21   -1    0    0  502  501  0.00000000000E+00  0.00000000000E+00  0.83341551775E+03  0.83341551775E+03  0.00000000000E+00 0. -1.
         21   -1    0    0  501  502 -0.00000000000E+00 -0.00000000000E+00 -0.18709995233E+03  0.18709995233E+03  0.00000000000E+00 0. -1.
         25    1    1    2    0    0  0.98550523225E+02 -0.14679160791E+03  0.55864192226E+03  0.59913752936E+03  0.12500000000E+03 0.  0.
         25    1    1    2    0    0 -0.50551581271E+02  0.75575615643E+01  0.16507450437E+03  0.21327721655E+03  0.12500000000E+03 0.  0.
         25    1    1    2    0    0 -0.47998941954E+02  0.13923404635E+03 -0.77400861199E+02  0.20810072418E+03  0.12500000000E+03 0.  0.
</event>
<event>
 5    0  0.5568866E-005  0.2795926E+03  0.7546771E-02  0.1095912E+00
         21   -1    0    0  502  501  0.00000000000E+00  0.00000000000E+00  0.18281185041E+03  0.18281185041E+03  0.00000000000E+00 0. -1.
         21   -1    0    0  501  502 -0.00000000000E+00 -0.00000000000E+00 -0.42760929575E+03  0.42760929575E+03  0.00000000000E+00 0. -1.
         25    1    1    2    0    0 -0.31724968427E+02 -0.90648187911E+02  0.30433757885E+02  0.16054526219E+03  0.12500000000E+03 0.  0.
         25    1    1    2    0    0  0.96216217289E+02  0.28031548402E+02 -0.24536800313E+03  0.29304229240E+03  0.12500000000E+03 0.  0.
         25    1    1    2    0    0 -0.64491248862E+02  0.62616639509E+02 -0.29863200092E+02  0.15683359156E+03  0.12500000000E+03 0.  0.
</event>
<event>
 5    0  0.5568866E-005  0.2497472E+03  0.7546771E-02  0.1113465E+00
         21   -1    0    0  502  501  0.00000000000E+00  0.00000000000E+00  0.42053824092E+02  0.42053824092E+02  0.00000000000E+00 0.  1.
         21   -1    0    0  501  502 -0.00000000000E+00 -0.00000000000E+00 -0.14831865925E+04  0.14831865925E+04  0.00000000000E+00 0.  1.
         25    1    1    2    0    0  0.63405328552E+02  0.13905989926E+03 -0.59278055217E+03  0.62479730658E+03  0.12500000000E+03 0.  0.
         25    1    1    2    0    0 -0.68887355671E+02 -0.76161984807E+02 -0.45171414448E+03  0.47980911207E+03  0.12500000000E+03 0.  0.
         25    1    1    2    0    0  0.54820271185E+01 -0.62897914456E+02 -0.39663807179E+03  0.42063399798E+03  0.12500000000E+03 0.  0.
</event>
<event>
 5    0  0.5568866E-005  0.3346951E+03  0.7546771E-02  0.1069078E+00
         21   -1    0    0  502  501  0.00000000000E+00  0.00000000000E+00  0.14345913052E+04  0.14345913052E+04  0.00000000000E+00 0.  1.
         21   -1    0    0  501  502 -0.00000000000E+00 -0.00000000000E+00 -0.78085528373E+02  0.78085528373E+02  0.00000000000E+00 0.  1.
         25    1    1    2    0    0 -0.40682330700E+02 -0.60205806877E+02  0.99154817748E+03  0.10020342207E+04  0.12500000000E+03 0.  0.
         25    1    1    2    0    0  0.49778026789E+02  0.14060812202E+03  0.13561965104E+03  0.23720494446E+03  0.12500000000E+03 0.  0.
         25    1    1    2    0    0 -0.90956960889E+01 -0.80402315139E+02  0.22933794830E+03  0.27343766840E+03  0.12500000000E+03 0.  0.
</event>
<event>
 5    0  0.5568866E-005  0.3439173E+03  0.7546771E-02  0.1065140E+00
         21   -1    0    0  502  501  0.00000000000E+00  0.00000000000E+00  0.13547115451E+04  0.13547115451E+04  0.00000000000E+00 0. -1.
         21   -1    0    0  501  502 -0.00000000000E+00 -0.00000000000E+00 -0.87309419733E+02  0.87309419733E+02  0.00000000000E+00 0. -1.
         25    1    1    2    0    0  0.22207678302E+03 -0.11327084700E+03  0.37012011126E+03  0.46342451284E+03  0.12500000000E+03 0.  0.
         25    1    1    2    0    0 -0.53369948445E+02 -0.46060755380E+01  0.20844506714E+03  0.24888534176E+03  0.12500000000E+03 0.  0.
         25    1    1    2    0    0 -0.16870683458E+03  0.11787692253E+03  0.68883694701E+03  0.72971111028E+03  0.12500000000E+03 0.  0.
</event>
<event>
 5    0  0.5568866E-005  0.2606619E+03  0.7546771E-02  0.1106746E+00
         21   -1    0    0  502  501  0.00000000000E+00  0.00000000000E+00  0.32193438279E+03  0.32193438279E+03  0.00000000000E+00 0. -1.
         21   -1    0    0  501  502 -0.00000000000E+00 -0.00000000000E+00 -0.21105118063E+03  0.21105118063E+03  0.00000000000E+00 0. -1.
         25    1    1    2    0    0 -0.33279903675E+02  0.12175475520E+03  0.53074397920E+02  0.18540135954E+03  0.12500000000E+03 0.  0.
         25    1    1    2    0    0  0.91652239346E+01 -0.11966537107E+03  0.11503302734E+03  0.20799374929E+03  0.12500000000E+03 0.  0.
         25    1    1    2    0    0  0.24114679740E+02 -0.20893841274E+01 -0.57224223095E+02  0.13959045459E+03  0.12500000000E+03 0.  0.
</event>
<event>
 5    0  0.5568866E-005  0.3296417E+03  0.7546771E-02  0.1071296E+00
         21   -1    0    0  502  501  0.00000000000E+00  0.00000000000E+00  0.70371163937E+03  0.70371163937E+03  0.00000000000E+00 0. -1.
         21   -1    0    0  501  502 -0.00000000000E+00 -0.00000000000E+00 -0.15441502691E+03  0.15441502691E+03  0.00000000000E+00 0. -1.
         25    1    1    2    0    0  0.63245249746E+02  0.15231962001E+03  0.25759732252E+03  0.33042791774E+03  0.12500000000E+03 0.  0.
         25    1    1    2    0    0 -0.83953945109E+02 -0.19196325608E+03  0.45779795491E+02  0.24823163832E+03  0.12500000000E+03 0.  0.
         25    1    1    2    0    0  0.20708695363E+02  0.39643636073E+02  0.24591949445E+03  0.27946711022E+03  0.12500000000E+03 0.  0.
</event>
<event>
 5    0  0.5568866E-005  0.3937781E+03  0.7546771E-02  0.1045956E+00
         21   -1    0    0  502  501  0.00000000000E+00  0.00000000000E+00  0.67256228300E+03  0.67256228300E+03  0.00000000000E+00 0. -1.
         21   -1    0    0  501  502 -0.00000000000E+00 -0.00000000000E+00 -0.23055295837E+03  0.23055295837E+03  0.00000000000E+00 0. -1.
         25    1    1    2    0    0  0.12463593094E+02 -0.41952119328E+02 -0.10460081208E+02  0.13285230434E+03  0.12500000000E+03 0.  0.
         25    1    1    2    0    0  0.12847547834E+03  0.36448799443E+02  0.53434093379E+03  0.56478287602E+03  0.12500000000E+03 0.  0.
         25    1    1    2    0    0 -0.14093907144E+03  0.55033198852E+01 -0.81871527951E+02  0.20548006102E+03  0.12500000000E+03 0.  0.
</event>
<event>
 5    0  0.5568866E-005  0.3054698E+03  0.7546771E-02  0.1082538E+00
         21   -1    0    0  502  501  0.00000000000E+00  0.00000000000E+00  0.81452276739E+03  0.81452276739E+03  0.00000000000E+00 0.  1.
         21   -1    0    0  501  502 -0.00000000000E+00 -0.00000000000E+00 -0.11456006022E+03  0.11456006022E+03  0.00000000000E+00 0.  1.
         25    1    1    2    0    0 -0.11483979646E+03 -0.75845470794E+02  0.11347422900E+03  0.21781210925E+03  0.12500000000E+03 0.  0.
         25    1    1    2    0    0  0.10523945692E+03 -0.45784300082E+02  0.47412283332E+03  0.50357621717E+03  0.12500000000E+03 0.  0.
         25    1    1    2    0    0  0.96003395344E+01  0.12162977088E+03  0.11236564486E+03  0.20769450120E+03  0.12500000000E+03 0.  0.
</event>
<event>
 5    0  0.5568866E-005  0.5557393E+03  0.7546771E-02  0.1000174E+00
         21   -1    0    0  502  501  0.00000000000E+00  0.00000000000E+00  0.80040977936E+03  0.80040977936E+03  0.00000000000E+00 0.  1.
         21   -1    0    0  501  502 -0.00000000000E+00 -0.00000000000E+00 -0.38586007231E+03  0.38586007231E+03  0.00000000000E+00 0.  1.
         25    1    1    2    0    0 -0.24051569754E+03  0.88497883531E+02  0.31903067060E+03  0.42788461638E+03  0.12500000000E+03 0.  0.
         25    1    1    2    0    0  0.46474629153E+03 -0.75299878104E+02  0.11526693634E+03  0.50057032847E+03  0.12500000000E+03 0.  0.
         25    1    1    2    0    0 -0.22423059399E+03 -0.13198005427E+02 -0.19747899896E+02  0.25781490682E+03  0.12500000000E+03 0.  0.
</event>
<event>
 5    0  0.5568866E-005  0.3063254E+03  0.7546771E-02  0.1082121E+00
         21   -1    0    0  502  501  0.00000000000E+00  0.00000000000E+00  0.78845727457E+03  0.78845727457E+03  0.00000000000E+00 0. -1.
         21   -1    0    0  501  502 -0.00000000000E+00 -0.00000000000E+00 -0.11901121265E+03  0.11901121265E+03  0.00000000000E+00 0. -1.
         25    1    1    2    0    0 -0.97462231239E+02  0.12482130441E+02  0.58250979656E+03  0.60381897386E+03  0.12500000000E+03 0.  0.
         25    1    1    2    0    0 -0.70192022666E+01  0.10645076168E+02  0.48403401604E+02  0.13464945649E+03  0.12500000000E+03 0.  0.
         25    1    1    2    0    0  0.10448143351E+03 -0.23127206609E+02  0.38532863756E+02  0.16900005687E+03  0.12500000000E+03 0.  0.
</event>
<event>
 5    0  0.5568866E-005  0.3960089E+03  0.7546771E-02  0.1045170E+00
         21   -1    0    0  502  501  0.00000000000E+00  0.00000000000E+00  0.67180891977E+03  0.67180891977E+03  0.00000000000E+00 0. -1.
         21   -1    0    0  501  502 -0.00000000000E+00 -0.00000000000E+00 -0.23343397739E+03  0.23343397739E+03  0.00000000000E+00 0. -1.
         25    1    1    2    0    0  0.11070420271E+03  0.17267286680E+03  0.23577626038E+03  0.33658102203E+03  0.12500000000E+03 0.  0.
         25    1    1    2    0    0 -0.20749654820E+03 -0.25225821287E+03  0.98574698763E+02  0.36336069505E+03  0.12500000000E+03 0.  0.
         25    1    1    2    0    0  0.96792345482E+02  0.79585346067E+02  0.10402398324E+03  0.20530118008E+03  0.12500000000E+03 0.  0.
</event>
<event>
 5    0  0.5568866E-005  0.2901729E+03  0.7546771E-02  0.1090259E+00
         21   -1    0    0  502  501  0.00000000000E+00  0.00000000000E+00  0.11174145874E+03  0.11174145874E+03  0.00000000000E+00 0. -1.
         21   -1    0    0  501  502 -0.00000000000E+00 -0.00000000000E+00 -0.75352813555E+03  0.75352813555E+03  0.00000000000E+00 0. -1.
         25    1    1    2    0    0 -0.30922883775E+02  0.40167332809E+02 -0.25798120614E+03  0.29111671557E+03  0.12500000000E+03 0.  0.
         25    1    1    2    0    0 -0.84244571575E+01  0.14398455866E+03 -0.11450357504E+03  0.22257266972E+03  0.12500000000E+03 0.  0.
         25    1    1    2    0    0  0.39347340933E+02 -0.18415189147E+03 -0.26930189563E+03  0.35158020900E+03  0.12500000000E+03 0.  0.
</event>
<event>
 5    0  0.5568866E-005  0.2277105E+03  0.7546771E-02  0.1128262E+00
         21   -1    0    0  502  501  0.00000000000E+00  0.00000000000E+00  0.80258811984E+03  0.80258811984E+03  0.00000000000E+00 0.  1.
         21   -1    0    0  501  502 -0.00000000000E+00 -0.00000000000E+00 -0.64606056623E+02  0.64606056623E+02  0.00000000000E+00 0.  1.
         25    1    1    2    0    0 -0.10105470718E+02 -0.30120524527E+01  0.34575514814E+03  0.36780812316E+03  0.12500000000E+03 0.  0.
         25    1    1    2    0    0  0.36387430638E+01 -0.88316230347E+02  0.21564230346E+03  0.26446096127E+03  0.12500000000E+03 0.  0.
         25    1    1    2    0    0  0.64667276545E+01  0.91328282799E+02  0.17658461161E+03  0.23492509203E+03  0.12500000000E+03 0.  0.
</event>
<event>
 5    0  0.8649869E-005  0.3392698E+03  0.7546771E-02  0.1067107E+00
         21   -1    0    0  502  501  0.00000000000E+00  0.00000000000E+00  0.56846714873E+03  0.56846714873E+03  0.00000000000E+00 0. -1.
         21   -1    0    0  501  502 -0.00000000000E+00 -0.00000000000E+00 -0.20248131768E+03  0.20248131768E+03  0.00000000000E+00 0. -1.
         25    1    1    2    0    0  0.23351717515E+02 -0.36217113617E+02 -0.12108941854E+03  0.17928923367E+03  0.12500000000E+03 0.  0.
         25    1    1    2    0    0  0.59407764680E+02 -0.64562384461E+02  0.25954305349E+03  0.30113980243E+03  0.12500000000E+03 0.  0.
         25    1    1    2    0    0 -0.82759482195E+02  0.10077949808E+03  0.22753219609E+03  0.29051943031E+03  0.12500000000E+03 0.  0.
</event>
<event>
 5    0  0.5568866E-005  0.3357998E+03  0.7546771E-02  0.1068599E+00
         21   -1    0    0  502  501  0.00000000000E+00  0.00000000000E+00  0.11059726718E+04  0.11059726718E+04  0.00000000000E+00 0.  1.
         21   -1    0    0  501  502 -0.00000000000E+00 -0.00000000000E+00 -0.10195684368E+03  0.10195684368E+03  0.00000000000E+00 0.  1.
         25    1    1    2    0    0  0.68065673336E+01  0.82565286443E+01  0.23216160676E+03  0.26389109738E+03  0.12500000000E+03 0.  0.
         25    1    1    2    0    0  0.39945948763E+02 -0.24091064176E+03  0.41896281279E+03  0.50078783395E+03  0.12500000000E+03 0.  0.
         25    1    1    2    0    0 -0.46752516097E+02  0.23265411311E+03  0.35289140858E+03  0.44325058416E+03  0.12500000000E+03 0.  0.
</event>
<event>
 5    0  0.5568866E-005  0.2847148E+03  0.7546771E-02  0.1093141E+00
         21   -1    0    0  502  501  0.00000000000E+00  0.00000000000E+00  0.90742039173E+03  0.90742039173E+03  0.00000000000E+00 0.  1.
         21   -1    0    0  501  502 -0.00000000000E+00 -0.00000000000E+00 -0.89332932431E+02  0.89332932431E+02  0.00000000000E+00 0.  1.
         25    1    1    2    0    0  0.11543098734E+03 -0.94039383449E+02  0.13608870314E+03  0.23730329454E+03  0.12500000000E+03 0.  0.
         25    1    1    2    0    0 -0.44745447758E+02  0.15394827662E+02  0.14126871313E+03  0.19447623280E+03  0.12500000000E+03 0.  0.
         25    1    1    2    0    0 -0.70685539583E+02  0.78644555787E+02  0.54073004303E+03  0.56497379682E+03  0.12500000000E+03 0.  0.
</event>
<event>
 5    0  0.5568866E-005  0.4593816E+03  0.7546771E-02  0.1024961E+00
         21   -1    0    0  502  501  0.00000000000E+00  0.00000000000E+00  0.15112291708E+03  0.15112291708E+03  0.00000000000E+00 0.  1.
         21   -1    0    0  501  502 -0.00000000000E+00 -0.00000000000E+00 -0.13964224746E+04  0.13964224746E+04  0.00000000000E+00 0.  1.
         25    1    1    2    0    0  0.28139923450E+03 -0.11554464160E+03 -0.87041200642E+03  0.93047200619E+03  0.12500000000E+03 0.  0.
         25    1    1    2    0    0 -0.28279370081E+03 -0.13271807523E+02 -0.25755428406E+03  0.40262591487E+03  0.12500000000E+03 0.  0.
         25    1    1    2    0    0  0.13944663047E+01  0.12881644913E+03 -0.11733326704E+03  0.21444747062E+03  0.12500000000E+03 0.  0.
</event>
<event>
 5    0  0.5568866E-005  0.3548667E+03  0.7546771E-02  0.1060635E+00
         21   -1    0    0  502  501  0.00000000000E+00  0.00000000000E+00  0.72156765263E+03  0.72156765263E+03  0.00000000000E+00 0.  1.
         21   -1    0    0  501  502 -0.00000000000E+00 -0.00000000000E+00 -0.17452334310E+03  0.17452334310E+03  0.00000000000E+00 0.  1.
         25    1    1    2    0    0  0.17173371485E+00  0.14270860120E+03  0.24098461420E+03  0.30669913372E+03  0.12500000000E+03 0.  0.
         25    1    1    2    0    0 -0.16271183972E+03 -0.58463380711E+01  0.27163930628E+03  0.34047354547E+03  0.12500000000E+03 0.  0.
         25    1    1    2    0    0  0.16254010600E+03 -0.13686226312E+03  0.34420389055E+02  0.24891831654E+03  0.12500000000E+03 0.  0.
</event>
<event>
 5    0  0.5568866E-005  0.2818975E+03  0.7546771E-02  0.1094657E+00
         21   -1    0    0  502  501  0.00000000000E+00  0.00000000000E+00  0.98765228588E+02  0.98765228588E+02  0.00000000000E+00 0.  1.
         21   -1    0    0  501  502 -0.00000000000E+00 -0.00000000000E+00 -0.80459705694E+03  0.80459705694E+03  0.00000000000E+00 0.  1.
         25    1    1    2    0    0  0.62140143046E+02  0.53120860728E+02 -0.54534003281E+03  0.56542371245E+03  0.12500000000E+03 0.  0.
         25    1    1    2    0    0 -0.88015421270E+02 -0.70721044744E+02 -0.86674682292E+02  0.18943516332E+03  0.12500000000E+03 0.  0.
         25    1    1    2    0    0  0.25875278224E+02  0.17600184016E+02 -0.73817113256E+02  0.14850340976E+03  0.12500000000E+03 0.  0.
</event>
<event>
 5    0  0.5568866E-005  0.4619371E+03  0.7546771E-02  0.1024221E+00
         21   -1    0    0  502  501  0.00000000000E+00  0.00000000000E+00  0.30499761468E+03  0.30499761468E+03  0.00000000000E+00 0. -1.
         21   -1    0    0  501  502 -0.00000000000E+00 -0.00000000000E+00 -0.69963124090E+03  0.69963124090E+03  0.00000000000E+00 0. -1.
         25    1    1    2    0    0  0.49968017980E+02  0.77412457992E+02 -0.38671012453E+03  0.41672438360E+03  0.12500000000E+03 0.  0.
         25    1    1    2    0    0 -0.24472879213E+03 -0.77915423645E+02  0.13497089166E+03  0.31591950958E+03  0.12500000000E+03 0.  0.
         25    1    1    2    0    0  0.19476077415E+03  0.50296565273E+00 -0.14289439335E+03  0.27198496240E+03  0.12500000000E+03 0.  0.
</event>
<event>
 5    0  0.5568866E-005  0.3237406E+03  0.7546771E-02  0.1073941E+00
         21   -1    0    0  502  501  0.00000000000E+00  0.00000000000E+00  0.56390441820E+03  0.56390441820E+03  0.00000000000E+00 0. -1.
         21   -1    0    0  501  502 -0.00000000000E+00 -0.00000000000E+00 -0.18586120118E+03  0.18586120118E+03  0.00000000000E+00 0. -1.
         25    1    1    2    0    0  0.24482893998E+02 -0.20788012523E+03  0.24709185118E+03  0.34712093207E+03  0.12500000000E+03 0.  0.
         25    1    1    2    0    0 -0.10466562426E+03  0.14776877851E+03  0.86023142534E+02  0.23625301237E+03  0.12500000000E+03 0.  0.
         25    1    1    2    0    0  0.80182730262E+02  0.60111346721E+02  0.44928223309E+02  0.16639167493E+03  0.12500000000E+03 0.  0.
</event>
<event>
 5    0  0.5568866E-005  0.3738462E+03  0.7546771E-02  0.1053232E+00
         21   -1    0    0  502  501  0.00000000000E+00  0.00000000000E+00  0.89574247419E+02  0.89574247419E+02  0.00000000000E+00 0.  1.
         21   -1    0    0  501  502 -0.00000000000E+00 -0.00000000000E+00 -0.15602807674E+04  0.15602807674E+04  0.00000000000E+00 0.  1.
         25    1    1    2    0    0 -0.11292505672E+03  0.80755540038E+02 -0.85037741936E+03  0.87065508730E+03  0.12500000000E+03 0.  0.
         25    1    1    2    0    0  0.14269641183E+03 -0.16328211203E+03 -0.56290676072E+03  0.61604572502E+03  0.12500000000E+03 0.  0.
         25    1    1    2    0    0 -0.29771355101E+02  0.82526571991E+02 -0.57422339886E+02  0.16315420248E+03  0.12500000000E+03 0.  0.
</event>
<event>
 5    0  0.5568866E-005  0.3813863E+03  0.7546771E-02  0.1050423E+00
         21   -1    0    0  502  501  0.00000000000E+00  0.00000000000E+00  0.26501891502E+03  0.26501891502E+03  0.00000000000E+00 0.  1.
         21   -1    0    0  501  502 -0.00000000000E+00 -0.00000000000E+00 -0.54884939719E+03  0.54884939719E+03  0.00000000000E+00 0.  1.
         25    1    1    2    0    0  0.39859164291E+02  0.25050977217E+03  0.70320146708E+02  0.29139976315E+03  0.12500000000E+03 0.  0.
         25    1    1    2    0    0 -0.29534498655E+02 -0.10737033862E+03 -0.72239957166E+02  0.18233016108E+03  0.12500000000E+03 0.  0.
         25    1    1    2    0    0 -0.10324665636E+02 -0.14313943355E+03 -0.28191067171E+03  0.34013838799E+03  0.12500000000E+03 0.  0.
</event>
<event>
 5    0  0.6295715E-005  0.4607986E+03  0.7546771E-02  0.1024550E+00
         21   -1    0    0  502  501  0.00000000000E+00  0.00000000000E+00  0.18069925882E+04  0.18069925882E+04  0.00000000000E+00 0. -1.
         21   -1    0    0  501  502 -0.00000000000E+00 -0.00000000000E+00 -0.11750757761E+03  0.11750757761E+03  0.00000000000E+00 0. -1.
         25    1    1    2    0    0 -0.39213323592E+02  0.25904855275E+03  0.29179250116E+03  0.41159652715E+03  0.12500000000E+03 0.  0.
         25    1    1    2    0    0  0.62625716685E+02 -0.25332804860E+03  0.33519371623E+03  0.44280572264E+03  0.12500000000E+03 0.  0.
         25    1    1    2    0    0 -0.23412393094E+02 -0.57205041488E+01  0.10624987932E+04  0.10700979161E+04  0.12500000000E+03 0.  0.
</event>
<event>
 5    0  0.5568866E-005  0.2542404E+03  0.7546771E-02  0.1110654E+00
         21   -1    0    0  502  501  0.00000000000E+00  0.00000000000E+00  0.12652202763E+04  0.12652202763E+04  0.00000000000E+00 0.  1.
         21   -1    0    0  501  502 -0.00000000000E+00 -0.00000000000E+00 -0.51088481743E+02  0.51088481743E+02  0.00000000000E+00 0.  1.
         25    1    1    2    0    0  0.92150759663E+02 -0.80540253488E+02  0.70451354374E+03  0.72590827812E+03  0.12500000000E+03 0.  0.
         25    1    1    2    0    0 -0.21596882354E+02 -0.10603490128E+02  0.23940515563E+03  0.27114329767E+03  0.12500000000E+03 0.  0.
         25    1    1    2    0    0 -0.70553877309E+02  0.91143743615E+02  0.27021309518E+03  0.31925718224E+03  0.12500000000E+03 0.  0.
</event>
<event>
 5    0  0.6164111E-005  0.4293253E+03  0.7546771E-02  0.1034073E+00
         21   -1    0    0  502  501  0.00000000000E+00  0.00000000000E+00  0.18546561842E+03  0.18546561842E+03  0.00000000000E+00 0. -1.
         21   -1    0    0  501  502 -0.00000000000E+00 -0.00000000000E+00 -0.99382431926E+03  0.99382431926E+03  0.00000000000E+00 0. -1.
         25    1    1    2    0    0 -0.47265568886E+02 -0.23531995105E+03 -0.10353017566E+03  0.28974645923E+03  0.12500000000E+03 0.  0.
         25    1    1    2    0    0  0.51072038039E+01  0.21010505983E+03 -0.90555727138E+02  0.26075958164E+03  0.12500000000E+03 0.  0.
         25    1    1    2    0    0  0.42158365082E+02  0.25214891215E+02 -0.61427279804E+03  0.62878389681E+03  0.12500000000E+03 0.  0.
</event>
<event>
 5    0  0.5568866E-005  0.5864653E+03  0.7546771E-02  0.9933891E-01
         21   -1    0    0  502  501  0.00000000000E+00  0.00000000000E+00  0.13711754310E+04  0.13711754310E+04  0.00000000000E+00 0.  1.
         21   -1    0    0  501  502 -0.00000000000E+00 -0.00000000000E+00 -0.25083702251E+03  0.25083702251E+03  0.00000000000E+00 0.  1.
         25    1    1    2    0    0 -0.25779537017E+03 -0.21643241686E+03  0.70306767340E+03  0.78944955338E+03  0.12500000000E+03 0.  0.
         25    1    1    2    0    0  0.39276811260E+03  0.23650680519E+02  0.38433899746E+03  0.56406348041E+03  0.12500000000E+03 0.  0.
         25    1    1    2    0    0 -0.13497274244E+03  0.19278173634E+03  0.32931737678E+02  0.26849941977E+03  0.12500000000E+03 0.  0.
</event>
<event>
 5    0  0.5568866E-005  0.3373538E+03  0.7546771E-02  0.1067929E+00
         21   -1    0    0  502  501  0.00000000000E+00  0.00000000000E+00  0.11249704700E+03  0.11249704700E+03  0.00000000000E+00 0.  1.
         21   -1    0    0  501  502 -0.00000000000E+00 -0.00000000000E+00 -0.10116497689E+04  0.10116497689E+04  0.00000000000E+00 0.  1.
         25    1    1    2    0    0  0.16542748785E+03 -0.14562208850E+03 -0.40458679884E+03  0.47737566359E+03  0.12500000000E+03 0.  0.
         25    1    1    2    0    0 -0.30327498019E+01  0.16907497207E+03 -0.23873836658E+03  0.31814548784E+03  0.12500000000E+03 0.  0.
         25    1    1    2    0    0 -0.16239473804E+03 -0.23452883577E+02 -0.25582755648E+03  0.32862566447E+03  0.12500000000E+03 0.  0.
</event>
<event>
 5    0  0.5568866E-005  0.2558260E+03  0.7546771E-02  0.1109677E+00
         21   -1    0    0  502  501  0.00000000000E+00  0.00000000000E+00  0.11538486789E+03  0.11538486789E+03  0.00000000000E+00 0.  1.
         21   -1    0    0  501  502 -0.00000000000E+00 -0.00000000000E+00 -0.56720558833E+03  0.56720558833E+03  0.00000000000E+00 0.  1.
         25    1    1    2    0    0  0.88719638818E+02 -0.51942669982E+02 -0.84106153280E+02  0.18239534067E+03  0.12500000000E+03 0.  0.
         25    1    1    2    0    0 -0.11665805835E+03 -0.45536257242E+02 -0.21340600382E+03  0.27721792108E+03  0.12500000000E+03 0.  0.
         25    1    1    2    0    0  0.27938419530E+02  0.97478927225E+02 -0.15430856333E+03  0.22297719448E+03  0.12500000000E+03 0.  0.
</event>
<event>
 5    0  0.5568866E-005  0.3788087E+03  0.7546771E-02  0.1051375E+00
         21   -1    0    0  502  501  0.00000000000E+00  0.00000000000E+00  0.25425285054E+03  0.25425285054E+03  0.00000000000E+00 0.  1.
         21   -1    0    0  501  502 -0.00000000000E+00 -0.00000000000E+00 -0.56438330473E+03  0.56438330473E+03  0.00000000000E+00 0.  1.
         25    1    1    2    0    0  0.68223573897E+01 -0.46819294075E+02  0.74124667598E+02  0.15283342960E+03  0.12500000000E+03 0.  0.
         25    1    1    2    0    0 -0.17098259433E+03 -0.11494741083E+03 -0.59128361731E+02  0.24813125152E+03  0.12500000000E+03 0.  0.
         25    1    1    2    0    0  0.16416023694E+03  0.16176670490E+03 -0.32512676006E+03  0.41767147415E+03  0.12500000000E+03 0.  0.
</event>
<event>
 5    0  0.5568866E-005  0.3381061E+03  0.7546771E-02  0.1067605E+00
         21   -1    0    0  502  501  0.00000000000E+00  0.00000000000E+00  0.92971180725E+03  0.92971180725E+03  0.00000000000E+00 0. -1.
         21   -1    0    0  501  502 -0.00000000000E+00 -0.00000000000E+00 -0.12295827015E+03  0.12295827015E+03  0.00000000000E+00 0. -1.
         25    1    1    2    0    0 -0.37991810097E+02  0.15338979995E+02  0.43493638365E+03  0.45439335357E+03  0.12500000000E+03 0.  0.
         25    1    1    2    0    0  0.18450574988E+03  0.12923604171E+02  0.60799011690E+02  0.23136748066E+03  0.12500000000E+03 0.  0.
         25    1    1    2    0    0 -0.14651393979E+03 -0.28262584166E+02  0.31101814176E+03  0.36690924316E+03  0.12500000000E+03 0.  0.
</event>
<event>
 5    0  0.5568866E-005  0.3334285E+03  0.7546771E-02  0.1069630E+00
         21   -1    0    0  502  501  0.00000000000E+00  0.00000000000E+00  0.28768042792E+03  0.28768042792E+03  0.00000000000E+00 0.  1.
         21   -1    0    0  501  502 -0.00000000000E+00 -0.00000000000E+00 -0.38645162317E+03  0.38645162317E+03  0.00000000000E+00 0.  1.
         25    1    1    2    0    0 -0.15159569625E+03  0.92070763435E+02  0.65997116803E+02  0.22680145508E+03  0.12500000000E+03 0.  0.
         25    1    1    2    0    0 -0.43348881521E+02 -0.12484878882E+03 -0.76532121291E+02  0.19735377166E+03  0.12500000000E+03 0.  0.
         25    1    1    2    0    0  0.19494457777E+03  0.32778025390E+02 -0.88236190756E+02  0.24997682434E+03  0.12500000000E+03 0.  0.
</event>
<event>
 5    0  0.5568866E-005  0.2507215E+03  0.7546771E-02  0.1112850E+00
         21   -1    0    0  502  501  0.00000000000E+00  0.00000000000E+00  0.97977909066E+02  0.97977909066E+02  0.00000000000E+00 0.  1.
         21   -1    0    0  501  502 -0.00000000000E+00 -0.00000000000E+00 -0.64158627606E+03  0.64158627606E+03  0.00000000000E+00 0.  1.
         25    1    1    2    0    0 -0.10934685636E+03 -0.49532005994E+02 -0.16960014872E+03  0.24248580383E+03  0.12500000000E+03 0.  0.
         25    1    1    2    0    0  0.80755321971E+02  0.10111029011E+03 -0.26846030027E+03  0.32317277982E+03  0.12500000000E+03 0.  0.
         25    1    1    2    0    0  0.28591534387E+02 -0.51578284115E+02 -0.10554791800E+03  0.17390560148E+03  0.12500000000E+03 0.  0.
</event>
<event>
 5    0  0.5568866E-005  0.3840156E+03  0.7546771E-02  0.1049459E+00
         21   -1    0    0  502  501  0.00000000000E+00  0.00000000000E+00  0.39013463630E+03  0.39013463630E+03  0.00000000000E+00 0.  1.
         21   -1    0    0  501  502 -0.00000000000E+00 -0.00000000000E+00 -0.37799250826E+03  0.37799250826E+03  0.00000000000E+00 0.  1.
         25    1    1    2    0    0  0.13428501818E+02 -0.14056631568E+01  0.31339295751E+03  0.33767209889E+03  0.12500000000E+03 0.  0.
         25    1    1    2    0    0  0.63833156781E+02 -0.46318500695E+02 -0.10811634138E+03  0.18312350664E+03  0.12500000000E+03 0.  0.
         25    1    1    2    0    0 -0.77261658599E+02  0.47724163852E+02 -0.19313448810E+03  0.24733153903E+03  0.12500000000E+03 0.  0.
</event>
<event>
 5    0  0.5568866E-005  0.4276394E+03  0.7546771E-02  0.1034608E+00
         21   -1    0    0  502  501  0.00000000000E+00  0.00000000000E+00  0.52246826676E+03  0.52246826676E+03  0.00000000000E+00 0. -1.
         21   -1    0    0  501  502 -0.00000000000E+00 -0.00000000000E+00 -0.35002208718E+03  0.35002208718E+03  0.00000000000E+00 0. -1.
         25    1    1    2    0    0  0.76327822770E+02 -0.10884324423E+03  0.18950942177E+03  0.26308099377E+03  0.12500000000E+03 0.  0.
         25    1    1    2    0    0 -0.13294785094E+03  0.23948472953E+03 -0.18738875290E+03  0.35463729564E+03  0.12500000000E+03 0.  0.
         25    1    1    2    0    0  0.56620028171E+02 -0.13064148530E+03  0.17032551071E+03  0.25477206454E+03  0.12500000000E+03 0.  0.
</event>
<event>
 5    0  0.5568866E-005  0.2484209E+03  0.7546771E-02  0.1114307E+00
         21   -1    0    0  502  501  0.00000000000E+00  0.00000000000E+00  0.11806244693E+04  0.11806244693E+04  0.00000000000E+00 0. -1.
         21   -1    0    0  501  502 -0.00000000000E+00 -0.00000000000E+00 -0.52271434838E+02  0.52271434838E+02  0.00000000000E+00 0. -1.
         25    1    1    2    0    0 -0.80071024335E+02 -0.21368027488E+02  0.22548947407E+03  0.27081075395E+03  0.12500000000E+03 0.  0.
         25    1    1    2    0    0  0.51259503075E+02 -0.84243000398E+02  0.34429146367E+03  0.37932312311E+03  0.12500000000E+03 0.  0.
         25    1    1    2    0    0  0.28811521260E+02  0.10561102789E+03  0.55857209672E+03  0.58276202708E+03  0.12500000000E+03 0.  0.
</event>
<event>
 5    0  0.6745701E-005  0.2840484E+03  0.7546771E-02  0.1093498E+00
         21   -1    0    0  502  501  0.00000000000E+00  0.00000000000E+00  0.39622334035E+03  0.39622334035E+03  0.00000000000E+00 0. -1.
         21   -1    0    0  501  502 -0.00000000000E+00 -0.00000000000E+00 -0.20363132418E+03  0.20363132418E+03  0.00000000000E+00 0. -1.
         25    1    1    2    0    0 -0.11400644042E+03  0.11556076904E+02  0.30974136956E+02  0.17238157828E+03  0.12500000000E+03 0.  0.
         25    1    1    2    0    0  0.81910765107E+01 -0.16952415808E+02 -0.69425929258E+02  0.14422010189E+03  0.12500000000E+03 0.  0.
         25    1    1    2    0    0  0.10581536391E+03  0.53963389043E+01  0.23104380847E+03  0.28325298435E+03  0.12500000000E+03 0.  0.
</event>
<event>
 5    0  0.5581725E-005  0.3381924E+03  0.7546771E-02  0.1067568E+00
         21   -1    0    0  502  501  0.00000000000E+00  0.00000000000E+00  0.60483087548E+03  0.60483087548E+03  0.00000000000E+00 0.  1.
         21   -1    0    0  501  502 -0.00000000000E+00 -0.00000000000E+00 -0.18910097993E+03  0.18910097993E+03  0.00000000000E+00 0.  1.
         25    1    1    2    0    0 -0.86558619449E+02  0.11894259318E+03  0.11815134710E+03  0.22632824812E+03  0.12500000000E+03 0.  0.
         25    1    1    2    0    0  0.39969757566E+02  0.13796121974E+03  0.15168898780E+03  0.24344491922E+03  0.12500000000E+03 0.  0.
         25    1    1    2    0    0  0.46588861884E+02 -0.25690381293E+03  0.14588956064E+03  0.32415868807E+03  0.12500000000E+03 0.  0.
</event>
<event>
 5    0  0.5568866E-005  0.3146285E+03  0.7546771E-02  0.1078148E+00
         21   -1    0    0  502  501  0.00000000000E+00  0.00000000000E+00  0.11579405942E+04  0.11579405942E+04  0.00000000000E+00 0.  1.
         21   -1    0    0  501  502 -0.00000000000E+00 -0.00000000000E+00 -0.85488910344E+02  0.85488910344E+02  0.00000000000E+00 0.  1.
         25    1    1    2    0    0  0.74494068265E+02 -0.15434716109E+03  0.25087970931E+03  0.32853925319E+03  0.12500000000E+03 0.  0.
         25    1    1    2    0    0 -0.82828765165E+02  0.20732761734E+03  0.43004444217E+03  0.50040840070E+03  0.12500000000E+03 0.  0.
         25    1    1    2    0    0  0.83346969001E+01 -0.52980456254E+02  0.39152753240E+03  0.41448185068E+03  0.12500000000E+03 0.  0.
</event>
<event>
 5    0  0.5810945E-005  0.3553692E+03  0.7546771E-02  0.1060433E+00
         21   -1    0    0  502  501  0.00000000000E+00  0.00000000000E+00  0.55057065175E+03  0.55057065175E+03  0.00000000000E+00 0.  1.
         21   -1    0    0  501  502 -0.00000000000E+00 -0.00000000000E+00 -0.22937518328E+03  0.22937518328E+03  0.00000000000E+00 0.  1.
         25    1    1    2    0    0  0.28348684434E+02 -0.10593106514E+03 -0.50867090325E+01  0.16636079190E+03  0.12500000000E+03 0.  0.
         25    1    1    2    0    0  0.17505168976E+03  0.10944958953E+03  0.46521947937E+02  0.24578770998E+03  0.12500000000E+03 0.  0.
         25    1    1    2    0    0 -0.20340037419E+03 -0.35185243872E+01  0.27976022956E+03  0.36779733316E+03  0.12500000000E+03 0.  0.
</event>
<event>
 5    0  0.5568866E-005  0.2289792E+03  0.7546771E-02  0.1127360E+00
         21   -1    0    0  502  501  0.00000000000E+00  0.00000000000E+00  0.22189190314E+02  0.22189190314E+02  0.00000000000E+00 0. -1.
         21   -1    0    0  501  502 -0.00000000000E+00 -0.00000000000E+00 -0.23629278761E+04  0.23629278761E+04  0.00000000000E+00 0. -1.
         25    1    1    2    0    0  0.35871267256E+02  0.76844309137E+02 -0.11335502091E+04  0.11435702306E+04  0.12500000000E+03 0.  0.
         25    1    1    2    0    0  0.29233836859E+02 -0.14758552896E+01 -0.60822219020E+03  0.62162370291E+03  0.12500000000E+03 0.  0.
         25    1    1    2    0    0 -0.65105104115E+02 -0.75368453848E+02 -0.59896628644E+03  0.61992313290E+03  0.12500000000E+03 0.  0.
</event>
<event>
 5    0  0.5568866E-005  0.2957266E+03  0.7546771E-02  0.1087397E+00
         21   -1    0    0  502  501  0.00000000000E+00  0.00000000000E+00  0.28734317040E+03  0.28734317040E+03  0.00000000000E+00 0. -1.
         21   -1    0    0  501  502 -0.00000000000E+00 -0.00000000000E+00 -0.30435467066E+03  0.30435467066E+03  0.00000000000E+00 0. -1.
         25    1    1    2    0    0 -0.56406180835E+02 -0.20849390306E+03 -0.13900018403E+02  0.24993914332E+03  0.12500000000E+03 0.  0.
         25    1    1    2    0    0 -0.60916481248E+01  0.77169084398E+02 -0.23538430869E+02  0.14890007888E+03  0.12500000000E+03 0.  0.
         25    1    1    2    0    0  0.62497828960E+02  0.13132481866E+03  0.20426949006E+02  0.19285861886E+03  0.12500000000E+03 0.  0.
</event>
<event>
 5    0  0.5568866E-005  0.3022351E+03  0.7546771E-02  0.1084129E+00
         21   -1    0    0  502  501  0.00000000000E+00  0.00000000000E+00  0.49103819438E+03  0.49103819438E+03  0.00000000000E+00 0.  1.
         21   -1    0    0  501  502 -0.00000000000E+00 -0.00000000000E+00 -0.18602643493E+03  0.18602643493E+03  0.00000000000E+00 0.  1.
         25    1    1    2    0    0  0.95909304275E+02 -0.41519424144E+01  0.35973480142E+03  0.39274668761E+03  0.12500000000E+03 0.  0.
         25    1    1    2    0    0 -0.52901044271E+02  0.38085390772E+02 -0.12843372504E+02  0.14155906786E+03  0.12500000000E+03 0.  0.
         25    1    1    2    0    0 -0.43008260004E+02 -0.33933448358E+02 -0.41879669468E+02  0.14275887384E+03  0.12500000000E+03 0.  0.
</event>
<event>
 5    0  0.5568866E-005  0.3325787E+03  0.7546771E-02  0.1070002E+00
         21   -1    0    0  502  501  0.00000000000E+00  0.00000000000E+00  0.73307293490E+03  0.73307293490E+03  0.00000000000E+00 0.  1.
         21   -1    0    0  501  502 -0.00000000000E+00 -0.00000000000E+00 -0.15088349323E+03  0.15088349323E+03  0.00000000000E+00 0.  1.
         25    1    1    2    0    0  0.17395695033E+02 -0.85708532451E+02  0.26095983266E+03  0.30228065933E+03  0.12500000000E+03 0.  0.
         25    1    1    2    0    0  0.11746750212E+03  0.36984601570E+02  0.34783966279E+03  0.38959454029E+03  0.12500000000E+03 0.  0.
         25    1    1    2    0    0 -0.13486319716E+03  0.48723930881E+02 -0.26610053785E+02  0.19208122852E+03  0.12500000000E+03 0.  0.
</event>
<event>
 5    0  0.5568866E-005  0.4025751E+03  0.7546771E-02  0.1042892E+00
         21   -1    0    0  502  501  0.00000000000E+00  0.00000000000E+00  0.34363768745E+03  0.34363768745E+03  0.00000000000E+00 0.  1.
         21   -1    0    0  501  502 -0.00000000000E+00 -0.00000000000E+00 -0.47162099985E+03  0.47162099985E+03  0.00000000000E+00 0.  1.
         25    1    1    2    0    0  0.10912364246E+03  0.57945058493E+02 -0.37180164935E+02  0.17964677513E+03  0.12500000000E+03 0.  0.
         25    1    1    2    0    0 -0.25906106460E+03  0.96697307134E+02 -0.20025774027E+03  0.36358103215E+03  0.12500000000E+03 0.  0.
         25    1    1    2    0    0  0.14993742214E+03 -0.15464236563E+03  0.10945459280E+03  0.27203088003E+03  0.12500000000E+03 0.  0.
</event>
<event>
 5    0  0.5568866E-005  0.2647994E+03  0.7546771E-02  0.1104293E+00
         21   -1    0    0  502  501  0.00000000000E+00  0.00000000000E+00  0.16690280721E+03  0.16690280721E+03  0.00000000000E+00 0.  1.
         21   -1    0    0  501  502 -0.00000000000E+00 -0.00000000000E+00 -0.42011695609E+03  0.42011695609E+03  0.00000000000E+00 0.  1.
         25    1    1    2    0    0 -0.49198005879E+02  0.10139047407E+02  0.64388497325E+02  0.14931216512E+03  0.12500000000E+03 0.  0.
         25    1    1    2    0    0 -0.31924204421E+02 -0.59566951734E+02 -0.17671908842E+03  0.22676422288E+03  0.12500000000E+03 0.  0.
         25    1    1    2    0    0  0.81122210300E+02  0.49427904328E+02 -0.14088355779E+03  0.21094337531E+03  0.12500000000E+03 0.  0.
</event>
<event>
 5    0  0.5568866E-005  0.6372279E+03  0.7546771E-02  0.9831045E-01
         21   -1    0    0  502  501  0.00000000000E+00  0.00000000000E+00  0.14107896066E+04  0.14107896066E+04  0.00000000000E+00 0.  1.
         21   -1    0    0  501  502 -0.00000000000E+00 -0.00000000000E+00 -0.28782419175E+03  0.28782419175E+03  0.00000000000E+00 0.  1.
         25    1    1    2    0    0  0.25422377337E+01  0.38435994463E+02 -0.14225744071E+03  0.19325104936E+03  0.12500000000E+03 0.  0.
         25    1    1    2    0    0  0.18799597204E+03 -0.10270737031E+03  0.12430533469E+04  0.12675558814E+04  0.12500000000E+03 0.  0.
         25    1    1    2    0    0 -0.19053820978E+03  0.64271375843E+02  0.22169508690E+02  0.23780686755E+03  0.12500000000E+03 0.  0.
</event>
<event>
 5    0  0.5568866E-005  0.2580742E+03  0.7546771E-02  0.1108306E+00
         21   -1    0    0  502  501  0.00000000000E+00  0.00000000000E+00  0.32817012513E+03  0.32817012513E+03  0.00000000000E+00 0.  1.
         21   -1    0    0  501  502 -0.00000000000E+00 -0.00000000000E+00 -0.20295045966E+03  0.20295045966E+03  0.00000000000E+00 0.  1.
         25    1    1    2    0    0  0.40195109477E+02  0.10128562464E+03  0.89919702771E+02  0.18863980898E+03  0.12500000000E+03 0.  0.
         25    1    1    2    0    0 -0.51568690880E+01 -0.11964991115E+03 -0.56870901573E+02  0.18221414320E+03  0.12500000000E+03 0.  0.
         25    1    1    2    0    0 -0.35038240389E+02  0.18364286505E+02  0.92170864267E+02  0.16026663261E+03  0.12500000000E+03 0.  0.
</event>
<event>
 5    0  0.5568866E-005  0.2669535E+03  0.7546771E-02  0.1103036E+00
         21   -1    0    0  502  501  0.00000000000E+00  0.00000000000E+00  0.60579944097E+03  0.60579944097E+03  0.00000000000E+00 0.  1.
         21   -1    0    0  501  502 -0.00000000000E+00 -0.00000000000E+00 -0.11763656409E+03  0.11763656409E+03  0.00000000000E+00 0.  1.
         25    1    1    2    0    0  0.60501822423E+02 -0.95031029986E+02  0.24916608211E+03  0.30066609994E+03  0.12500000000E+03 0.  0.
         25    1    1    2    0    0 -0.46661478077E+02 -0.26920707367E+02  0.12865434025E+02  0.13672065467E+03  0.12500000000E+03 0.  0.
         25    1    1    2    0    0 -0.13840344346E+02  0.12195173735E+03  0.22613136074E+03  0.28604925045E+03  0.12500000000E+03 0.  0.
</event>
<event>
 5    0  0.5568866E-005  0.8285842E+03  0.7546771E-02  0.9519540E-01
         21   -1    0    0  502  501  0.00000000000E+00  0.00000000000E+00  0.51701213176E+03  0.51701213176E+03  0.00000000000E+00 0. -1.
         21   -1    0    0  501  502 -0.00000000000E+00 -0.00000000000E+00 -0.13279220433E+04  0.13279220433E+04  0.00000000000E+00 0.  1.
         25    1    1    2    0    0  0.13911891505E+03  0.20388453409E+03 -0.46853168799E+02  0.28061217933E+03  0.12500000000E+03 0.  0.
         25    1    1    2    0    0 -0.29186548663E+03 -0.68773539480E+03 -0.71130324630E+03  0.10391067047E+04  0.12500000000E+03 0.  0.
         25    1    1    2    0    0  0.15274657158E+03  0.48385086071E+03 -0.52753496430E+02  0.52521529103E+03  0.12500000000E+03 0.  0.
</event>
<event>
 5    0  0.5568866E-005  0.2862135E+03  0.7546771E-02  0.1092343E+00
         21   -1    0    0  502  501  0.00000000000E+00  0.00000000000E+00  0.11130495823E+03  0.11130495823E+03  0.00000000000E+00 0.  1.
         21   -1    0    0  501  502 -0.00000000000E+00 -0.00000000000E+00 -0.73597945074E+03  0.73597945074E+03  0.00000000000E+00 0.  1.
         25    1    1    2    0    0  0.99390565058E+02  0.35890552091E+01 -0.38730274555E+03  0.41895081150E+03  0.12500000000E+03 0.  0.
         25    1    1    2    0    0 -0.11194976752E+02 -0.10987431020E+03 -0.82527431206E+02  0.18610069438E+03  0.12500000000E+03 0.  0.
         25    1    1    2    0    0 -0.88195588306E+02  0.10628525499E+03 -0.15484431574E+03  0.24223290310E+03  0.12500000000E+03 0.  0.
</event>
<event>
 5    0  0.5568866E-005  0.2111845E+03  0.7546771E-02  0.1140631E+00
         21   -1    0    0  502  501  0.00000000000E+00  0.00000000000E+00  0.21761173661E+03  0.21761173661E+03  0.00000000000E+00 0. -1.
         21   -1    0    0  501  502 -0.00000000000E+00 -0.00000000000E+00 -0.20494706569E+03  0.20494706569E+03  0.00000000000E+00 0. -1.
         25    1    1    2    0    0 -0.20847906580E+02  0.54488261225E+02  0.33904508677E+02  0.14204971499E+03  0.12500000000E+03 0.  0.
         25    1    1    2    0    0 -0.42930729838E+02 -0.10441429295E+02 -0.12559256344E+02  0.13317209141E+03  0.12500000000E+03 0.  0.
         25    1    1    2    0    0  0.63778636417E+02 -0.44046831930E+02 -0.86805814184E+01  0.14733699590E+03  0.12500000000E+03 0.  0.
</event>
<event>
 5    0  0.5766472E-005  0.2937265E+03  0.7546771E-02  0.1088419E+00
         21   -1    0    0  502  501  0.00000000000E+00  0.00000000000E+00  0.16449425658E+03  0.16449425658E+03  0.00000000000E+00 0. -1.
         21   -1    0    0  501  502 -0.00000000000E+00 -0.00000000000E+00 -0.52448803806E+03  0.52448803806E+03  0.00000000000E+00 0. -1.
         25    1    1    2    0    0  0.31616573053E+02  0.10267931747E+03 -0.32352052749E+03  0.36308839369E+03  0.12500000000E+03 0.  0.
         25    1    1    2    0    0  0.43887862173E+02  0.90190176011E+01  0.18327370428E+02  0.13404618470E+03  0.12500000000E+03 0.  0.
         25    1    1    2    0    0 -0.75504435226E+02 -0.11169833507E+03 -0.54800624421E+02  0.19184771626E+03  0.12500000000E+03 0.  0.
</event>
<event>
 5    0  0.5568866E-005  0.4492753E+03  0.7546771E-02  0.1027938E+00
         21   -1    0    0  502  501  0.00000000000E+00  0.00000000000E+00  0.26773336954E+03  0.26773336954E+03  0.00000000000E+00 0.  1.
         21   -1    0    0  501  502 -0.00000000000E+00 -0.00000000000E+00 -0.75391546287E+03  0.75391546287E+03  0.00000000000E+00 0.  1.
         25    1    1    2    0    0 -0.77011750040E+02 -0.52104540146E+02 -0.63750776489E+03  0.65626735638E+03  0.12500000000E+03 0.  0.
         25    1    1    2    0    0 -0.18278981878E+02  0.10465559437E+03  0.51660526610E+02  0.17199047829E+03  0.12500000000E+03 0.  0.
         25    1    1    2    0    0  0.95290731917E+02 -0.52551054226E+02  0.99665144961E+02  0.19339099775E+03  0.12500000000E+03 0.  0.
</event>
<event>
 5    0  0.5568866E-005  0.2924729E+03  0.7546771E-02  0.1089065E+00
         21   -1    0    0  502  501  0.00000000000E+00  0.00000000000E+00  0.70064247333E+03  0.70064247333E+03  0.00000000000E+00 0.  1.
         21   -1    0    0  501  502 -0.00000000000E+00 -0.00000000000E+00 -0.12208848273E+03  0.12208848273E+03  0.00000000000E+00 0.  1.
         25    1    1    2    0    0 -0.11645628783E+03 -0.61200543460E+02  0.81244890161E+02  0.19882984100E+03  0.12500000000E+03 0.  0.
         25    1    1    2    0    0  0.74369477709E+02 -0.84184497406E+02  0.15150781288E+03  0.22626857091E+03  0.12500000000E+03 0.  0.
         25    1    1    2    0    0  0.42086810122E+02  0.14538504087E+03  0.34580128756E+03  0.39763254415E+03  0.12500000000E+03 0.  0.
</event>
<event>
 5    0  0.5568866E-005  0.7164700E+03  0.7546771E-02  0.9689474E-01
         21   -1    0    0  502  501  0.00000000000E+00  0.00000000000E+00  0.15724199142E+04  0.15724199142E+04  0.00000000000E+00 0.  1.
         21   -1    0    0  501  502 -0.00000000000E+00 -0.00000000000E+00 -0.32645811113E+03  0.32645811113E+03  0.00000000000E+00 0.  1.
         25    1    1    2    0    0  0.43877761236E+03  0.15026476940E+03 -0.22676751560E+02  0.48087891313E+03  0.12500000000E+03 0.  0.
         25    1    1    2    0    0 -0.32664913258E+03 -0.50801056383E+02  0.11148265787E+04  0.11695057519E+04  0.12500000000E+03 0.  0.
         25    1    1    2    0    0 -0.11212847978E+03 -0.99463713016E+02  0.15381197598E+03  0.24849336035E+03  0.12500000000E+03 0.  0.
</event>
<event>
 5    0  0.5568866E-005  0.2678534E+03  0.7546771E-02  0.1102514E+00
         21   -1    0    0  502  501  0.00000000000E+00  0.00000000000E+00  0.77750452162E+02  0.77750452162E+02  0.00000000000E+00 0.  1.
         21   -1    0    0  501  502 -0.00000000000E+00 -0.00000000000E+00 -0.92276574732E+03  0.92276574732E+03  0.00000000000E+00 0.  1.
         25    1    1    2    0    0 -0.29422054040E+00  0.11064843253E+03 -0.20944098320E+03  0.26783145378E+03  0.12500000000E+03 0.  0.
         25    1    1    2    0    0 -0.41484718248E+02  0.62506384812E+02 -0.28355571493E+03  0.31883675048E+03  0.12500000000E+03 0.  0.
         25    1    1    2    0    0  0.41778938788E+02 -0.17315481735E+03 -0.35201859703E+03  0.41384799522E+03  0.12500000000E+03 0.  0.
</event>
<event>
 5    0  0.5568866E-005  0.2976214E+03  0.7546771E-02  0.1086436E+00
         21   -1    0    0  502  501  0.00000000000E+00  0.00000000000E+00  0.30852622741E+03  0.30852622741E+03  0.00000000000E+00 0. -1.
         21   -1    0    0  501  502 -0.00000000000E+00 -0.00000000000E+00 -0.28710196810E+03  0.28710196810E+03  0.00000000000E+00 0. -1.
         25    1    1    2    0    0 -0.53204481406E+02  0.93234857381E+02  0.28531510786E+02  0.16721992280E+03  0.12500000000E+03 0.  0.
         25    1    1    2    0    0 -0.82095403222E+02  0.77509893578E+02 -0.45123646445E+02  0.17438056744E+03  0.12500000000E+03 0.  0.
         25    1    1    2    0    0  0.13529988463E+03 -0.17074475096E+03  0.38016394963E+02  0.25402770527E+03  0.12500000000E+03 0.  0.
</event>
<event>
 5    0  0.5568866E-005  0.3218750E+03  0.7546771E-02  0.1074790E+00
         21   -1    0    0  502  501  0.00000000000E+00  0.00000000000E+00  0.21681882109E+03  0.21681882109E+03  0.00000000000E+00 0. -1.
         21   -1    0    0  501  502 -0.00000000000E+00 -0.00000000000E+00 -0.47783460586E+03  0.47783460586E+03  0.00000000000E+00 0. -1.
         25    1    1    2    0    0 -0.80457595192E+02  0.76942230449E+01  0.60593813159E+02  0.16071476561E+03  0.12500000000E+03 0.  0.
         25    1    1    2    0    0 -0.10983542841E+03  0.65742242200E+02 -0.18966899687E+03  0.26073970184E+03  0.12500000000E+03 0.  0.
         25    1    1    2    0    0  0.19029302361E+03 -0.73436465245E+02 -0.13194060107E+03  0.27319895950E+03  0.12500000000E+03 0.  0.
</event>
<event>
 5    0  0.6078590E-005  0.3017393E+03  0.7546771E-02  0.1084374E+00
         21   -1    0    0  502  501  0.00000000000E+00  0.00000000000E+00  0.72395611206E+03  0.72395611206E+03  0.00000000000E+00 0. -1.
         21   -1    0    0  501  502 -0.00000000000E+00 -0.00000000000E+00 -0.12576257962E+03  0.12576257962E+03  0.00000000000E+00 0. -1.
         25    1    1    2    0    0 -0.13276563116E+03  0.11506795047E+02  0.39502073917E+03  0.43523040280E+03  0.12500000000E+03 0.  0.
         25    1    1    2    0    0  0.12184888056E+03 -0.75361782860E+02  0.19666550260E+03  0.27354865732E+03  0.12500000000E+03 0.  0.
         25    1    1    2    0    0  0.10916750600E+02  0.63854987813E+02  0.65072906848E+01  0.14093963156E+03  0.12500000000E+03 0.  0.
</event>
<event>
 5    0  0.5568866E-005  0.3761639E+03  0.7546771E-02  0.1052361E+00
         21   -1    0    0  502  501  0.00000000000E+00  0.00000000000E+00  0.14285854304E+04  0.14285854304E+04  0.00000000000E+00 0.  1.
         21   -1    0    0  501  502 -0.00000000000E+00 -0.00000000000E+00 -0.99048526071E+02  0.99048526071E+02  0.00000000000E+00 0.  1.
         25    1    1    2    0    0 -0.87378936890E+02  0.14093304068E+03  0.33716164740E+03  0.39598002102E+03  0.12500000000E+03 0.  0.
         25    1    1    2    0    0 -0.93683205412E+02 -0.19250000588E+03  0.79109759600E+03  0.82903148411E+03  0.12500000000E+03 0.  0.
         25    1    1    2    0    0  0.18106214230E+03  0.51566965192E+02  0.20127766094E+03  0.30262245136E+03  0.12500000000E+03 0.  0.
</event>
<event>
 5    0  0.5568866E-005  0.3190755E+03  0.7546771E-02  0.1076076E+00
         21   -1    0    0  502  501  0.00000000000E+00  0.00000000000E+00  0.30019546545E+03  0.30019546545E+03  0.00000000000E+00 0.  1.
         21   -1    0    0  501  502 -0.00000000000E+00 -0.00000000000E+00 -0.33914292097E+03  0.33914292097E+03  0.00000000000E+00 0.  1.
         25    1    1    2    0    0 -0.44217590731E+02 -0.40710172060E+02 -0.13941044513E+03  0.19665397441E+03  0.12500000000E+03 0.  0.
         25    1    1    2    0    0 -0.43662141684E+02  0.91452130482E+02 -0.97006547591E+02  0.18789663398E+03  0.12500000000E+03 0.  0.
         25    1    1    2    0    0  0.87879732415E+02 -0.50741958422E+02  0.19746953719E+03  0.25478777803E+03  0.12500000000E+03 0.  0.
</event>
<event>
 5    0  0.5568866E-005  0.4015842E+03  0.7546771E-02  0.1043233E+00
         21   -1    0    0  502  501  0.00000000000E+00  0.00000000000E+00  0.86356287241E+03  0.86356287241E+03  0.00000000000E+00 0.  1.
         21   -1    0    0  501  502 -0.00000000000E+00 -0.00000000000E+00 -0.18674938518E+03  0.18674938518E+03  0.00000000000E+00 0.  1.
         25    1    1    2    0    0  0.12138738074E+03 -0.22260193565E+03  0.42488967118E+03  0.51033591941E+03  0.12500000000E+03 0.  0.
         25    1    1    2    0    0 -0.86782905031E+01  0.17693362733E+01 -0.45287405156E+02  0.13324560909E+03  0.12500000000E+03 0.  0.
         25    1    1    2    0    0 -0.11270909024E+03  0.22083259938E+03  0.29721122121E+03  0.40673072908E+03  0.12500000000E+03 0.  0.
</event>
<event>
 5    0  0.5568866E-005  0.4575214E+03  0.7546771E-02  0.1025503E+00
         21   -1    0    0  502  501  0.00000000000E+00  0.00000000000E+00  0.24732768924E+03  0.24732768924E+03  0.00000000000E+00 0. -1.
         21   -1    0    0  501  502 -0.00000000000E+00 -0.00000000000E+00 -0.84635017860E+03  0.84635017860E+03  0.00000000000E+00 0. -1.
         25    1    1    2    0    0 -0.22489257209E+03  0.10737532843E+03 -0.36700809493E+03  0.46089702958E+03  0.12500000000E+03 0.  0.
         25    1    1    2    0    0  0.15987729701E+03 -0.28610507806E+03 -0.82095738526E+02  0.36025210072E+03  0.12500000000E+03 0.  0.
         25    1    1    2    0    0  0.65015275078E+02  0.17872974963E+03 -0.14991865591E+03  0.27252873754E+03  0.12500000000E+03 0.  0.
</event>
<event>
 5    0  0.5568866E-005  0.2746267E+03  0.7546771E-02  0.1098660E+00
         21   -1    0    0  502  501  0.00000000000E+00  0.00000000000E+00  0.40336842962E+03  0.40336842962E+03  0.00000000000E+00 0. -1.
         21   -1    0    0  501  502 -0.00000000000E+00 -0.00000000000E+00 -0.18697500870E+03  0.18697500870E+03  0.00000000000E+00 0. -1.
         25    1    1    2    0    0 -0.73730355508E+02  0.16724507365E+02 -0.83644028351E+02  0.16833656153E+03  0.12500000000E+03 0.  0.
         25    1    1    2    0    0 -0.30671014326E+02  0.37074361825E+01  0.98688150547E+02  0.16223072231E+03  0.12500000000E+03 0.  0.
         25    1    1    2    0    0  0.10440136983E+03 -0.20431943547E+02  0.20134929872E+03  0.25977615448E+03  0.12500000000E+03 0.  0.
</event>
<event>
 5    0  0.6531706E-005  0.2908039E+03  0.7546771E-02  0.1089930E+00
         21   -1    0    0  502  501  0.00000000000E+00  0.00000000000E+00  0.87615616035E+02  0.87615616035E+02  0.00000000000E+00 0. -1.
         21   -1    0    0  501  502 -0.00000000000E+00 -0.00000000000E+00 -0.96520387626E+03  0.96520387626E+03  0.00000000000E+00 0. -1.
         25    1    1    2    0    0  0.88824703857E+02 -0.27007335664E+02 -0.31262752695E+02  0.15881304701E+03  0.12500000000E+03 0.  0.
         25    1    1    2    0    0 -0.45433171976E+02 -0.33773188710E+02 -0.49584083390E+03  0.51447831243E+03  0.12500000000E+03 0.  0.
         25    1    1    2    0    0 -0.43391531880E+02  0.60780524374E+02 -0.35048467363E+03  0.37952813286E+03  0.12500000000E+03 0.  0.
</event>
<event>
 5    0  0.5568866E-005  0.2586882E+03  0.7546771E-02  0.1107934E+00
         21   -1    0    0  502  501  0.00000000000E+00  0.00000000000E+00  0.19941817534E+03  0.19941817534E+03  0.00000000000E+00 0.  1.
         21   -1    0    0  501  502 -0.00000000000E+00 -0.00000000000E+00 -0.33557415987E+03  0.33557415987E+03  0.00000000000E+00 0.  1.
         25    1    1    2    0    0  0.39095874460E+02  0.37558865919E+02 -0.43956964649E+02  0.14316553548E+03  0.12500000000E+03 0.  0.
         25    1    1    2    0    0  0.10398864889E+03 -0.60544841729E+02 -0.10004932106E+03  0.20028525558E+03  0.12500000000E+03 0.  0.
         25    1    1    2    0    0 -0.14308452335E+03  0.22985975810E+02  0.78503011697E+01  0.19154154415E+03  0.12500000000E+03 0.  0.
</event>
<event>
 5    0  0.5568866E-005  0.2448178E+03  0.7546771E-02  0.1116624E+00
         21   -1    0    0  502  501  0.00000000000E+00  0.00000000000E+00  0.16811745728E+03  0.16811745728E+03  0.00000000000E+00 0.  1.
         21   -1    0    0  501  502 -0.00000000000E+00 -0.00000000000E+00 -0.35651117017E+03  0.35651117017E+03  0.00000000000E+00 0.  1.
         25    1    1    2    0    0 -0.32823694406E+02  0.68956902385E+02 -0.36613848934E+02  0.15099014284E+03  0.12500000000E+03 0.  0.
         25    1    1    2    0    0  0.85050998222E+02 -0.13825389456E+02 -0.16805159386E+03  0.22647549954E+03  0.12500000000E+03 0.  0.
         25    1    1    2    0    0 -0.52227303816E+02 -0.55131512929E+02  0.16271729902E+02  0.14716298507E+03  0.12500000000E+03 0.  0.
</event>
<event>
 5    0  0.5568866E-005  0.2567450E+03  0.7546771E-02  0.1109115E+00
         21   -1    0    0  502  501  0.00000000000E+00  0.00000000000E+00  0.23956445172E+03  0.23956445172E+03  0.00000000000E+00 0. -1.
         21   -1    0    0  501  502 -0.00000000000E+00 -0.00000000000E+00 -0.27515759667E+03  0.27515759667E+03  0.00000000000E+00 0. -1.
         25    1    1    2    0    0  0.10696703247E+03  0.11312946627E+03  0.35420246797E+02  0.20278021614E+03  0.12500000000E+03 0.  0.
         25    1    1    2    0    0 -0.35192726236E+02 -0.38061448706E+02 -0.18907852633E+01  0.13533579322E+03  0.12500000000E+03 0.  0.
         25    1    1    2    0    0 -0.71774306237E+02 -0.75068017566E+02 -0.69122606483E+02  0.17660603904E+03  0.12500000000E+03 0.  0.
</event>
<event>
 5    0  0.5568866E-005  0.3269032E+03  0.7546771E-02  0.1072515E+00
         21   -1    0    0  502  501  0.00000000000E+00  0.00000000000E+00  0.54463494109E+02  0.54463494109E+02  0.00000000000E+00 0. -1.
         21   -1    0    0  501  502 -0.00000000000E+00 -0.00000000000E+00 -0.19621526448E+04  0.19621526448E+04  0.00000000000E+00 0. -1.
         25    1    1    2    0    0  0.66459198584E+02  0.29081353945E+02 -0.93607222688E+03  0.94716353612E+03  0.12500000000E+03 0.  0.
         25    1    1    2    0    0  0.86310263868E+02  0.93914637737E+02 -0.63970430538E+03  0.66416565641E+03  0.12500000000E+03 0.  0.
         25    1    1    2    0    0 -0.15276946245E+03 -0.12299599168E+03 -0.33191261841E+03  0.40528694636E+03  0.12500000000E+03 0.  0.
</event>
<event>
 5    0  0.5568866E-005  0.3594704E+03  0.7546771E-02  0.1058794E+00
         21   -1    0    0  502  501  0.00000000000E+00  0.00000000000E+00  0.68758965813E+02  0.68758965813E+02  0.00000000000E+00 0.  1.
         21   -1    0    0  501  502 -0.00000000000E+00 -0.00000000000E+00 -0.18793035071E+04  0.18793035071E+04  0.00000000000E+00 0.  1.
         25    1    1    2    0    0 -0.49697284612E+01  0.10035197172E+03 -0.61626383379E+03  0.63678986272E+03  0.12500000000E+03 0.  0.
         25    1    1    2    0    0  0.46247848792E+02 -0.24742765825E+03 -0.37543476893E+03  0.46897289400E+03  0.12500000000E+03 0.  0.
         25    1    1    2    0    0 -0.41278120331E+02  0.14707568653E+03 -0.81884593859E+03  0.84229971622E+03  0.12500000000E+03 0.  0.
</event>
<event>
 5    0  0.5568866E-005  0.3359531E+03  0.7546771E-02  0.1068533E+00
         21   -1    0    0  502  501  0.00000000000E+00  0.00000000000E+00  0.14154130894E+03  0.14154130894E+03  0.00000000000E+00 0.  1.
         21   -1    0    0  501  502 -0.00000000000E+00 -0.00000000000E+00 -0.79739631110E+03  0.79739631110E+03  0.00000000000E+00 0.  1.
         25    1    1    2    0    0  0.31705736725E+02 -0.12880290242E+03 -0.49788781011E+03  0.53020063454E+03  0.12500000000E+03 0.  0.
         25    1    1    2    0    0 -0.13940332922E+03  0.60877950841E+02 -0.63697531374E+02  0.20693426154E+03  0.12500000000E+03 0.  0.
         25    1    1    2    0    0  0.10769759249E+03  0.67924951576E+02 -0.94269660677E+02  0.20180272396E+03  0.12500000000E+03 0.  0.
</event>
<event>
 5    0  0.5568866E-005  0.3818482E+03  0.7546771E-02  0.1050253E+00
         21   -1    0    0  502  501  0.00000000000E+00  0.00000000000E+00  0.43338682494E+03  0.43338682494E+03  0.00000000000E+00 0.  1.
         21   -1    0    0  501  502 -0.00000000000E+00 -0.00000000000E+00 -0.33643856689E+03  0.33643856689E+03  0.00000000000E+00 0.  1.
         25    1    1    2    0    0 -0.46559945147E+02 -0.13734738600E+03 -0.30780136255E+02  0.19391892564E+03  0.12500000000E+03 0.  0.
         25    1    1    2    0    0  0.23210497088E+03  0.18352812734E+03  0.13236426702E+03  0.34741990475E+03  0.12500000000E+03 0.  0.
         25    1    1    2    0    0 -0.18554502573E+03 -0.46180741339E+02 -0.46358727040E+01  0.22848656144E+03  0.12500000000E+03 0.  0.
</event>
<event>
 5    0  0.5568866E-005  0.5065378E+03  0.7546771E-02  0.1012086E+00
         21   -1    0    0  502  501  0.00000000000E+00  0.00000000000E+00  0.14201858331E+04  0.14201858331E+04  0.00000000000E+00 0. -1.
         21   -1    0    0  501  502 -0.00000000000E+00 -0.00000000000E+00 -0.18066687090E+03  0.18066687090E+03  0.00000000000E+00 0. -1.
         25    1    1    2    0    0 -0.96679510962E+02 -0.32038771599E+02  0.10718180085E+04  0.10838783392E+04  0.12500000000E+03 0.  0.
         25    1    1    2    0    0  0.81987695536E+01 -0.15862464590E+03  0.18201964235E+03  0.27200211085E+03  0.12500000000E+03 0.  0.
         25    1    1    2    0    0  0.88480741409E+02  0.19066341750E+03 -0.14318688673E+02  0.24497225397E+03  0.12500000000E+03 0.  0.
</event>
<event>
 5    0  0.5568866E-005  0.2641695E+03  0.7546771E-02  0.1104664E+00
         21   -1    0    0  502  501  0.00000000000E+00  0.00000000000E+00  0.19547475515E+04  0.19547475515E+04  0.00000000000E+00 0. -1.
         21   -1    0    0  501  502 -0.00000000000E+00 -0.00000000000E+00 -0.35700532086E+02  0.35700532086E+02  0.00000000000E+00 0. -1.
         25    1    1    2    0    0 -0.11893927601E+03  0.24546270749E+02  0.47645207008E+03  0.50732696151E+03  0.12500000000E+03 0.  0.
         25    1    1    2    0    0  0.14927579438E+02 -0.30365342568E+02  0.10526818007E+04  0.10606172072E+04  0.12500000000E+03 0.  0.
         25    1    1    2    0    0  0.10401169657E+03  0.58190718189E+01  0.38991314857E+03  0.42250391483E+03  0.12500000000E+03 0.  0.
</event>
<event>
 5    0  0.5568866E-005  0.2777328E+03  0.7546771E-02  0.1096934E+00
         21   -1    0    0  502  501  0.00000000000E+00  0.00000000000E+00  0.75094148158E+02  0.75094148158E+02  0.00000000000E+00 0.  1.
         21   -1    0    0  501  502 -0.00000000000E+00 -0.00000000000E+00 -0.10271840111E+04  0.10271840111E+04  0.00000000000E+00 0.  1.
         25    1    1    2    0    0  0.37844308330E+01 -0.99649147083E+02 -0.16878093287E+03  0.23250005964E+03  0.12500000000E+03 0.  0.
         25    1    1    2    0    0 -0.11897112864E+03  0.39426094620E+02 -0.53042524330E+03  0.55918197853E+03  0.12500000000E+03 0.  0.
         25    1    1    2    0    0  0.11518669781E+03  0.60223052463E+02 -0.25288368678E+03  0.31059612109E+03  0.12500000000E+03 0.  0.
</event>
<event>
 5    0  0.5568866E-005  0.2699686E+03  0.7546771E-02  0.1101298E+00
         21   -1    0    0  502  501  0.00000000000E+00  0.00000000000E+00  0.12709537888E+03  0.12709537888E+03  0.00000000000E+00 0.  1.
         21   -1    0    0  501  502 -0.00000000000E+00 -0.00000000000E+00 -0.57345140390E+03  0.57345140390E+03  0.00000000000E+00 0.  1.
         25    1    1    2    0    0 -0.74397900110E+02 -0.10889351827E+03 -0.99184301669E+02  0.20701538967E+03  0.12500000000E+03 0.  0.
         25    1    1    2    0    0 -0.31476894306E+02 -0.28213230449E+02 -0.92581241151E+02  0.16119264084E+03  0.12500000000E+03 0.  0.
         25    1    1    2    0    0  0.10587479442E+03  0.13710674872E+03 -0.25459048220E+03  0.33233875228E+03  0.12500000000E+03 0.  0.
</event>
<event>
 5    0  0.5568866E-005  0.2226003E+03  0.7546771E-02  0.1131959E+00
         21   -1    0    0  502  501  0.00000000000E+00  0.00000000000E+00  0.24680863525E+03  0.24680863525E+03  0.00000000000E+00 0. -1.
         21   -1    0    0  501  502 -0.00000000000E+00 -0.00000000000E+00 -0.20076636927E+03  0.20076636927E+03  0.00000000000E+00 0. -1.
         25    1    1    2    0    0 -0.95603477931E+01  0.16162412492E+02 -0.74572939555E+02  0.14676085017E+03  0.12500000000E+03 0.  0.
         25    1    1    2    0    0  0.25846256905E+02  0.76996547838E+01  0.11566129877E+03  0.17242346045E+03  0.12500000000E+03 0.  0.
         25    1    1    2    0    0 -0.16285909112E+02 -0.23862067276E+02  0.49539067744E+01  0.12839069391E+03  0.12500000000E+03 0.  0.
</event>
<event>
 5    0  0.5568866E-005  0.3158826E+03  0.7546771E-02  0.1077560E+00
         21   -1    0    0  502  501  0.00000000000E+00  0.00000000000E+00  0.15993178879E+03  0.15993178879E+03  0.00000000000E+00 0. -1.
         21   -1    0    0  501  502 -0.00000000000E+00 -0.00000000000E+00 -0.62390252168E+03  0.62390252168E+03  0.00000000000E+00 0. -1.
         25    1    1    2    0    0 -0.13219115765E+02  0.12736313341E+03 -0.23867687069E+03  0.29830816512E+03  0.12500000000E+03 0.  0.
         25    1    1    2    0    0  0.15915373398E+03 -0.37810800112E+02 -0.53634171162E+02  0.21274677897E+03  0.12500000000E+03 0.  0.
         25    1    1    2    0    0 -0.14593461822E+03 -0.89552333296E+02 -0.17165969103E+03  0.27277936637E+03  0.12500000000E+03 0.  0.
</event>
<event>
 5    0  0.5568866E-005  0.3147182E+03  0.7546771E-02  0.1078106E+00
         21   -1    0    0  502  501  0.00000000000E+00  0.00000000000E+00  0.84710047468E+02  0.84710047468E+02  0.00000000000E+00 0. -1.
         21   -1    0    0  501  502 -0.00000000000E+00 -0.00000000000E+00 -0.11692538864E+04  0.11692538864E+04  0.00000000000E+00 0. -1.
         25    1    1    2    0    0 -0.79319999501E+02 -0.23255738058E+02 -0.75983981382E+02  0.16802100196E+03  0.12500000000E+03 0.  0.
         25    1    1    2    0    0  0.76927171581E+02  0.15335817312E+03 -0.66234334213E+03  0.69552873546E+03  0.12500000000E+03 0.  0.
         25    1    1    2    0    0  0.23928279202E+01 -0.13010243506E+03 -0.34621651541E+03  0.39041419643E+03  0.12500000000E+03 0.  0.
</event>
<event>
 5    0  0.5568866E-005  0.3763327E+03  0.7546771E-02  0.1052298E+00
         21   -1    0    0  502  501  0.00000000000E+00  0.00000000000E+00  0.31660393393E+03  0.31660393393E+03  0.00000000000E+00 0.  1.
         21   -1    0    0  501  502 -0.00000000000E+00 -0.00000000000E+00 -0.44732949430E+03  0.44732949430E+03  0.00000000000E+00 0.  1.
         25    1    1    2    0    0  0.53858283692E+02 -0.25612745189E+01  0.73943779909E+02  0.15491919648E+03  0.12500000000E+03 0.  0.
         25    1    1    2    0    0 -0.24645143624E+03 -0.97172600885E+02 -0.12081074018E+02  0.29317533515E+03  0.12500000000E+03 0.  0.
         25    1    1    2    0    0  0.19259315255E+03  0.99733875404E+02 -0.19258826626E+03  0.31583889661E+03  0.12500000000E+03 0.  0.
</event>
<event>
 5    0  0.5568866E-005  0.3664066E+03  0.7546771E-02  0.1056076E+00
         21   -1    0    0  502  501  0.00000000000E+00  0.00000000000E+00  0.55840326913E+03  0.55840326913E+03  0.00000000000E+00 0. -1.
         21   -1    0    0  501  502 -0.00000000000E+00 -0.00000000000E+00 -0.24042446003E+03  0.24042446003E+03  0.00000000000E+00 0. -1.
         25    1    1    2    0    0 -0.14507234312E+03 -0.50144434918E+02  0.14106590507E+03  0.24307414232E+03  0.12500000000E+03 0.  0.
         25    1    1    2    0    0 -0.15267915912E+03  0.30600318189E+02  0.36086581251E+02  0.20291512129E+03  0.12500000000E+03 0.  0.
         25    1    1    2    0    0  0.29775150224E+03  0.19544116730E+02  0.14082632277E+03  0.35283846555E+03  0.12500000000E+03 0.  0.
</event>
<event>
 5    0  0.5568866E-005  0.2737367E+03  0.7546771E-02  0.1099160E+00
         21   -1    0    0  502  501  0.00000000000E+00  0.00000000000E+00  0.41998073359E+03  0.41998073359E+03  0.00000000000E+00 0.  1.
         21   -1    0    0  501  502 -0.00000000000E+00 -0.00000000000E+00 -0.17841723391E+03  0.17841723391E+03  0.00000000000E+00 0.  1.
         25    1    1    2    0    0 -0.12490618953E+02 -0.11759210077E+03  0.15578315206E+03  0.23211485991E+03  0.12500000000E+03 0.  0.
         25    1    1    2    0    0  0.41564665894E+02 -0.12489580062E+02 -0.46981389513E+02  0.14041318322E+03  0.12500000000E+03 0.  0.
         25    1    1    2    0    0 -0.29074046941E+02  0.13008168083E+03  0.13276173713E+03  0.22586992438E+03  0.12500000000E+03 0.  0.
</event>
<event>
 5    0  0.5568866E-005  0.4290202E+03  0.7546771E-02  0.1034170E+00
         21   -1    0    0  502  501  0.00000000000E+00  0.00000000000E+00  0.90846562779E+03  0.90846562779E+03  0.00000000000E+00 0.  1.
         21   -1    0    0  501  502 -0.00000000000E+00 -0.00000000000E+00 -0.20260355497E+03  0.20260355497E+03  0.00000000000E+00 0.  1.
         25    1    1    2    0    0  0.14784710111E+03 -0.92005142583E+02  0.46896258797E+03  0.51563031377E+03  0.12500000000E+03 0.  0.
         25    1    1    2    0    0  0.14960181479E+03 -0.17138878982E+02  0.33000718581E+02  0.19846534102E+03  0.12500000000E+03 0.  0.
         25    1    1    2    0    0 -0.29744891590E+03  0.10914402156E+03  0.20389876628E+03  0.39697352796E+03  0.12500000000E+03 0.  0.
</event>
<event>
 5    0  0.5568866E-005  0.3222628E+03  0.7546771E-02  0.1074613E+00
         21   -1    0    0  502  501  0.00000000000E+00  0.00000000000E+00  0.43136895847E+02  0.43136895847E+02  0.00000000000E+00 0. -1.
         21   -1    0    0  501  502 -0.00000000000E+00 -0.00000000000E+00 -0.24075290463E+04  0.24075290463E+04  0.00000000000E+00 0. -1.
         25    1    1    2    0    0  0.13391190294E+03 -0.32831420438E+02 -0.36889232137E+03  0.41317894995E+03  0.12500000000E+03 0.  0.
         25    1    1    2    0    0 -0.90040623688E+02  0.16287619015E+03 -0.99943708814E+03  0.10242731376E+04  0.12500000000E+03 0.  0.
         25    1    1    2    0    0 -0.43871279252E+02 -0.13004476972E+03 -0.99606274093E+03  0.10132138546E+04  0.12500000000E+03 0.  0.
</event>
<event>
 5    0  0.5568866E-005  0.3789763E+03  0.7546771E-02  0.1051313E+00
         21   -1    0    0  502  501  0.00000000000E+00  0.00000000000E+00  0.32974083704E+03  0.32974083704E+03  0.00000000000E+00 0.  1.
         21   -1    0    0  501  502 -0.00000000000E+00 -0.00000000000E+00 -0.43556329598E+03  0.43556329598E+03  0.00000000000E+00 0.  1.
         25    1    1    2    0    0 -0.18822780470E+02 -0.86598944724E+02 -0.90775851161E+02  0.17809808939E+03  0.12500000000E+03 0.  0.
         25    1    1    2    0    0 -0.27150886846E+02  0.67116298979E+02 -0.26585246128E+03  0.30256288505E+03  0.12500000000E+03 0.  0.
         25    1    1    2    0    0  0.45973667316E+02  0.19482645745E+02  0.25080585350E+03  0.28464315857E+03  0.12500000000E+03 0.  0.
</event>
<event>
 5    0  0.5568866E-005  0.3785671E+03  0.7546771E-02  0.1051465E+00
         21   -1    0    0  502  501  0.00000000000E+00  0.00000000000E+00  0.14538852573E+03  0.14538852573E+03  0.00000000000E+00 0. -1.
         21   -1    0    0  501  502 -0.00000000000E+00 -0.00000000000E+00 -0.98572465804E+03  0.98572465804E+03  0.00000000000E+00 0. -1.
         25    1    1    2    0    0  0.29245267346E+02 -0.39666823881E+02 -0.41999990065E+03  0.44096900019E+03  0.12500000000E+03 0.  0.
         25    1    1    2    0    0 -0.15427481579E+03  0.13861711419E+03 -0.42312630992E+03  0.48752056088E+03  0.12500000000E+03 0.  0.
         25    1    1    2    0    0  0.12502954845E+03 -0.98950290312E+02  0.27900782700E+01  0.20262362270E+03  0.12500000000E+03 0.  0.
</event>
<event>
 5    0  0.5568866E-005  0.2551668E+03  0.7546771E-02  0.1110082E+00
         21   -1    0    0  502  501  0.00000000000E+00  0.00000000000E+00  0.13319439407E+03  0.13319439407E+03  0.00000000000E+00 0. -1.
         21   -1    0    0  501  502 -0.00000000000E+00 -0.00000000000E+00 -0.48883491504E+03  0.48883491504E+03  0.00000000000E+00 0. -1.
         25    1    1    2    0    0 -0.99223494170E+02 -0.65357929406E+02 -0.15352134910E+03  0.23089124141E+03  0.12500000000E+03 0.  0.
         25    1    1    2    0    0  0.97552004909E+02  0.11940047599E+03 -0.12626922699E+03  0.23524834752E+03  0.12500000000E+03 0.  0.
         25    1    1    2    0    0  0.16714892607E+01 -0.54042546579E+02 -0.75849944881E+02  0.15588972017E+03  0.12500000000E+03 0.  0.
</event>
<event>
 5    0  0.5568866E-005  0.2209999E+03  0.7546771E-02  0.1133140E+00
         21   -1    0    0  502  501  0.00000000000E+00  0.00000000000E+00  0.84989386069E+03  0.84989386069E+03  0.00000000000E+00 0.  1.
         21   -1    0    0  501  502 -0.00000000000E+00 -0.00000000000E+00 -0.57467145054E+02  0.57467145054E+02  0.00000000000E+00 0.  1.
         25    1    1    2    0    0  0.74626811956E+01  0.66674426639E+02  0.25371989845E+03  0.29068876422E+03  0.12500000000E+03 0.  0.
         25    1    1    2    0    0 -0.65028922093E+02  0.95049301110E+01  0.28688093063E+03  0.31975736545E+03  0.12500000000E+03 0.  0.
         25    1    1    2    0    0  0.57566240897E+02 -0.76179356750E+02  0.25182588657E+03  0.29691487607E+03  0.12500000000E+03 0.  0.
</event>
<event>
 5    0  0.5568866E-005  0.2958214E+03  0.7546771E-02  0.1087348E+00
         21   -1    0    0  502  501  0.00000000000E+00  0.00000000000E+00  0.33293652918E+03  0.33293652918E+03  0.00000000000E+00 0.  1.
         21   -1    0    0  501  502 -0.00000000000E+00 -0.00000000000E+00 -0.26284383355E+03  0.26284383355E+03  0.00000000000E+00 0.  1.
         25    1    1    2    0    0 -0.12491521476E+03 -0.54536228112E+02  0.38712538279E+02  0.18894885995E+03  0.12500000000E+03 0.  0.
         25    1    1    2    0    0  0.55951132828E+02  0.17145477825E+03  0.35318575432E+02  0.22226036988E+03  0.12500000000E+03 0.  0.
         25    1    1    2    0    0  0.68964081930E+02 -0.11691855014E+03 -0.39384180743E+01  0.18457113290E+03  0.12500000000E+03 0.  0.
</event>
<event>
 5    0  0.5568866E-005  0.3458325E+03  0.7546771E-02  0.1064339E+00
         21   -1    0    0  502  501  0.00000000000E+00  0.00000000000E+00  0.14147534280E+03  0.14147534280E+03  0.00000000000E+00 0.  1.
         21   -1    0    0  501  502 -0.00000000000E+00 -0.00000000000E+00 -0.84537801872E+03  0.84537801872E+03  0.00000000000E+00 0.  1.
         25    1    1    2    0    0 -0.51201540773E+02  0.37116315834E+02 -0.98158858872E+02  0.17105373499E+03  0.12500000000E+03 0.  0.
         25    1    1    2    0    0 -0.34137277708E+02 -0.24303552378E+03 -0.40986447667E+03  0.49380715748E+03  0.12500000000E+03 0.  0.
         25    1    1    2    0    0  0.85338818481E+02  0.20591920795E+03 -0.19587934038E+03  0.32199246906E+03  0.12500000000E+03 0.  0.
</event>
<event>
 5    0  0.5568866E-005  0.2950935E+03  0.7546771E-02  0.1087719E+00
         21   -1    0    0  502  501  0.00000000000E+00  0.00000000000E+00  0.25172657555E+03  0.25172657555E+03  0.00000000000E+00 0.  1.
         21   -1    0    0  501  502 -0.00000000000E+00 -0.00000000000E+00 -0.34593154763E+03  0.34593154763E+03  0.00000000000E+00 0.  1.
         25    1    1    2    0    0  0.19729175290E+02  0.56375151654E+02  0.19078625062E+01  0.13854976731E+03  0.12500000000E+03 0.  0.
         25    1    1    2    0    0 -0.90925933305E+01 -0.31307739686E+02  0.14004388248E+03  0.19052595319E+03  0.12500000000E+03 0.  0.
         25    1    1    2    0    0 -0.10636581960E+02 -0.25067411968E+02 -0.23615671707E+03  0.26858240269E+03  0.12500000000E+03 0.  0.
</event>
<event>
 5    0  0.5568866E-005  0.2398157E+03  0.7546771E-02  0.1119916E+00
         21   -1    0    0  502  501  0.00000000000E+00  0.00000000000E+00  0.24413801049E+03  0.24413801049E+03  0.00000000000E+00 0.  1.
         21   -1    0    0  501  502 -0.00000000000E+00 -0.00000000000E+00 -0.23556987417E+03  0.23556987417E+03  0.00000000000E+00 0.  1.
         25    1    1    2    0    0  0.32475713834E+02  0.10952000306E+03  0.54256554393E+02  0.17781472592E+03  0.12500000000E+03 0.  0.
         25    1    1    2    0    0 -0.69498492515E+02 -0.39046249867E+02 -0.40137863877E+02  0.15359263722E+03  0.12500000000E+03 0.  0.
         25    1    1    2    0    0  0.37022778680E+02 -0.70473753196E+02 -0.55505542021E+01  0.14830052152E+03  0.12500000000E+03 0.  0.
</event>
<event>
 5    0  0.5568866E-005  0.3770008E+03  0.7546771E-02  0.1052048E+00
         21   -1    0    0  502  501  0.00000000000E+00  0.00000000000E+00  0.75189343584E+03  0.75189343584E+03  0.00000000000E+00 0.  1.
         21   -1    0    0  501  502 -0.00000000000E+00 -0.00000000000E+00 -0.18902890736E+03  0.18902890736E+03  0.00000000000E+00 0.  1.
         25    1    1    2    0    0  0.11343962388E+03 -0.12445652344E+03  0.23842689425E+03  0.31753796371E+03  0.12500000000E+03 0.  0.
         25    1    1    2    0    0 -0.19665772399E+03 -0.10433895748E+03  0.12194698782E+03  0.28294336234E+03  0.12500000000E+03 0.  0.
         25    1    1    2    0    0  0.83218100110E+02  0.22879548093E+03  0.20249064641E+03  0.34044101716E+03  0.12500000000E+03 0.  0.
</event>
<event>
 5    0  0.5568866E-005  0.2447713E+03  0.7546771E-02  0.1116655E+00
         21   -1    0    0  502  501  0.00000000000E+00  0.00000000000E+00  0.89472660399E+03  0.89472660399E+03  0.00000000000E+00 0.  1.
         21   -1    0    0  501  502 -0.00000000000E+00 -0.00000000000E+00 -0.66962316922E+02  0.66962316922E+02  0.00000000000E+00 0.  1.
         25    1    1    2    0    0 -0.22818088543E+02 -0.92569617744E+02  0.17482029341E+03  0.23511047251E+03  0.12500000000E+03 0.  0.
         25    1    1    2    0    0  0.87897784558E+02  0.63358460779E+02  0.26060862878E+03  0.30867810495E+03  0.12500000000E+03 0.  0.
         25    1    1    2    0    0 -0.65079696015E+02  0.29211156965E+02  0.39233536488E+03  0.41790034345E+03  0.12500000000E+03 0.  0.
</event>
<event>
 5    0  0.5568866E-005  0.3143593E+03  0.7546771E-02  0.1078275E+00
         21   -1    0    0  502  501  0.00000000000E+00  0.00000000000E+00  0.16263705279E+04  0.16263705279E+04  0.00000000000E+00 0. -1.
         21   -1    0    0  501  502 -0.00000000000E+00 -0.00000000000E+00 -0.60762145829E+02  0.60762145829E+02  0.00000000000E+00 0. -1.
         25    1    1    2    0    0 -0.23053461584E+03  0.55816358298E+02  0.67612865912E+03  0.72734904869E+03  0.12500000000E+03 0.  0.
         25    1    1    2    0    0  0.15733409945E+03 -0.71349258041E+02  0.57267741575E+03  0.61108850258E+03  0.12500000000E+03 0.  0.
         25    1    1    2    0    0  0.73200516382E+02  0.15532899743E+02  0.31680230715E+03  0.34869512241E+03  0.12500000000E+03 0.  0.
</event>
<event>
 5    0  0.5568866E-005  0.5371686E+03  0.7546771E-02  0.1004508E+00
         21   -1    0    0  502  501  0.00000000000E+00  0.00000000000E+00  0.16441302865E+03  0.16441302865E+03  0.00000000000E+00 0. -1.
         21   -1    0    0  501  502 -0.00000000000E+00 -0.00000000000E+00 -0.17550319663E+04  0.17550319663E+04  0.00000000000E+00 0. -1.
         25    1    1    2    0    0  0.26007505994E+03  0.13390025488E+03 -0.51351310314E+03  0.60406044578E+03  0.12500000000E+03 0.  0.
         25    1    1    2    0    0 -0.38314218331E+03 -0.30833076672E+03 -0.73894005495E+03  0.89639455551E+03  0.12500000000E+03 0.  0.
         25    1    1    2    0    0  0.12306712337E+03  0.17443051184E+03 -0.33816577951E+03  0.41898999361E+03  0.12500000000E+03 0.  0.
</event>
<event>
 5    0  0.5568866E-005  0.2390314E+03  0.7546771E-02  0.1120440E+00
         21   -1    0    0  502  501  0.00000000000E+00  0.00000000000E+00  0.56882797062E+03  0.56882797062E+03  0.00000000000E+00 0.  1.
         21   -1    0    0  501  502 -0.00000000000E+00 -0.00000000000E+00 -0.10044511752E+03  0.10044511752E+03  0.00000000000E+00 0.  1.
         25    1    1    2    0    0  0.58768049277E+02 -0.40940884881E+02  0.10605351940E+03  0.17889155555E+03  0.12500000000E+03 0.  0.
         25    1    1    2    0    0 -0.16409058495E+02  0.11569459153E+03  0.13921860088E+03  0.22059309722E+03  0.12500000000E+03 0.  0.
         25    1    1    2    0    0 -0.42358990782E+02 -0.74753706648E+02  0.22311073283E+03  0.26978843538E+03  0.12500000000E+03 0.  0.
</event>
<event>
 5    0  0.5649470E-005  0.3540548E+03  0.7546771E-02  0.1060963E+00
         21   -1    0    0  502  501  0.00000000000E+00  0.00000000000E+00  0.29857775551E+03  0.29857775551E+03  0.00000000000E+00 0. -1.
         21   -1    0    0  501  502 -0.00000000000E+00 -0.00000000000E+00 -0.41983972184E+03  0.41983972184E+03  0.00000000000E+00 0. -1.
         25    1    1    2    0    0 -0.29556395163E+02  0.27209074637E+02 -0.25374710323E+03  0.28570352927E+03  0.12500000000E+03 0.  0.
         25    1    1    2    0    0 -0.24362221855E+01 -0.13059481661E+03  0.18555251250E+03  0.25906693382E+03  0.12500000000E+03 0.  0.
         25    1    1    2    0    0  0.31992617348E+02  0.10338574197E+03 -0.53067375595E+02  0.17364701425E+03  0.12500000000E+03 0.  0.
</event>
<event>
 5    0  0.5568866E-005  0.3653005E+03  0.7546771E-02  0.1056505E+00
         21   -1    0    0  502  501  0.00000000000E+00  0.00000000000E+00  0.32999639134E+03  0.32999639134E+03  0.00000000000E+00 0. -1.
         21   -1    0    0  501  502 -0.00000000000E+00 -0.00000000000E+00 -0.40438147340E+03  0.40438147340E+03  0.00000000000E+00 0. -1.
         25    1    1    2    0    0  0.60244901865E+02 -0.26993077185E+03 -0.70875833943E+02  0.31167363320E+03  0.12500000000E+03 0.  0.
         25    1    1    2    0    0 -0.88571154930E+02  0.24526268390E+03  0.20853136589E+02  0.28992841686E+03  0.12500000000E+03 0.  0.
         25    1    1    2    0    0  0.28326253065E+02  0.24668087955E+02 -0.24362384707E+02  0.13277581468E+03  0.12500000000E+03 0.  0.
</event>
<event>
 5    0  0.5568866E-005  0.4224369E+03  0.7546771E-02  0.1036276E+00
         21   -1    0    0  502  501  0.00000000000E+00  0.00000000000E+00  0.11678726384E+03  0.11678726384E+03  0.00000000000E+00 0.  1.
         21   -1    0    0  501  502 -0.00000000000E+00 -0.00000000000E+00 -0.15280171109E+04  0.15280171109E+04  0.00000000000E+00 0.  1.
         25    1    1    2    0    0  0.14508523774E+03  0.25864096436E+03 -0.94623250761E+03  0.99946277225E+03  0.12500000000E+03 0.  0.
         25    1    1    2    0    0 -0.16062028911E+03 -0.62896061701E+02 -0.19429682287E+03  0.28832455190E+03  0.12500000000E+03 0.  0.
         25    1    1    2    0    0  0.15535051378E+02 -0.19574490266E+03 -0.27070051663E+03  0.35701705063E+03  0.12500000000E+03 0.  0.
</event>
<event>
 5    0  0.5568866E-005  0.2793084E+03  0.7546771E-02  0.1096067E+00
         21   -1    0    0  502  501  0.00000000000E+00  0.00000000000E+00  0.37469499921E+03  0.37469499921E+03  0.00000000000E+00 0.  1.
         21   -1    0    0  501  502 -0.00000000000E+00 -0.00000000000E+00 -0.20820443328E+03  0.20820443328E+03  0.00000000000E+00 0.  1.
         25    1    1    2    0    0 -0.11250522453E+03  0.14760665846E+03  0.82545462238E+02  0.23850346853E+03  0.12500000000E+03 0.  0.
         25    1    1    2    0    0  0.71027080023E+02 -0.12680539583E+03  0.10075297550E+02  0.19196605463E+03  0.12500000000E+03 0.  0.
         25    1    1    2    0    0  0.41478144506E+02 -0.20801262622E+02  0.73869806142E+02  0.15242990933E+03  0.12500000000E+03 0.  0.
</event>
<event>
 5    0  0.5568866E-005  0.3272366E+03  0.7546771E-02  0.1072366E+00
         21   -1    0    0  502  501  0.00000000000E+00  0.00000000000E+00  0.13502289780E+03  0.13502289780E+03  0.00000000000E+00 0. -1.
         21   -1    0    0  501  502 -0.00000000000E+00 -0.00000000000E+00 -0.79307868226E+03  0.79307868226E+03  0.00000000000E+00 0. -1.
         25    1    1    2    0    0  0.24782321795E+02  0.25403440967E+02 -0.35157114749E+02  0.13461248458E+03  0.12500000000E+03 0.  0.
         25    1    1    2    0    0 -0.17766053282E+01 -0.69679660294E+02  0.12806812835E+02  0.14369212171E+03  0.12500000000E+03 0.  0.
         25    1    1    2    0    0 -0.23005716467E+02  0.44276219327E+02 -0.63570548255E+03  0.64979697378E+03  0.12500000000E+03 0.  0.
</event>
<event>
 5    0  0.5568866E-005  0.5029293E+03  0.7546771E-02  0.1013017E+00
         21   -1    0    0  502  501  0.00000000000E+00  0.00000000000E+00  0.16566082744E+03  0.16566082744E+03  0.00000000000E+00 0. -1.
         21   -1    0    0  501  502 -0.00000000000E+00 -0.00000000000E+00 -0.15268418760E+04  0.15268418760E+04  0.00000000000E+00 0. -1.
         25    1    1    2    0    0  0.20279434530E+03  0.51051597069E+01 -0.15018789775E+03  0.28166116838E+03  0.12500000000E+03 0.  0.
         25    1    1    2    0    0 -0.41455945769E+03 -0.11312068851E+03 -0.85331284452E+03  0.96354742735E+03  0.12500000000E+03 0.  0.
         25    1    1    2    0    0  0.21176511239E+03  0.10801552880E+03 -0.35768030633E+03  0.44729410775E+03  0.12500000000E+03 0.  0.
</event>
<event>
 5    0  0.5786213E-005  0.2551262E+03  0.7546771E-02  0.1110107E+00
         21   -1    0    0  502  501  0.00000000000E+00  0.00000000000E+00  0.50812214061E+03  0.50812214061E+03  0.00000000000E+00 0. -1.
         21   -1    0    0  501  502 -0.00000000000E+00 -0.00000000000E+00 -0.12809791203E+03  0.12809791203E+03  0.00000000000E+00 0. -1.
         25    1    1    2    0    0 -0.61742346459E+02 -0.28896468266E+02  0.24390665566E+03  0.28242269721E+03  0.12500000000E+03 0.  0.
         25    1    1    2    0    0  0.48475060521E+02 -0.44969307653E+02  0.15143725135E+03  0.20719631083E+03  0.12500000000E+03 0.  0.
         25    1    1    2    0    0  0.13267285938E+02  0.73865775919E+02 -0.15319678435E+02  0.14660104459E+03  0.12500000000E+03 0.  0.
</event>
<event>
 5    0  0.5568866E-005  0.3413269E+03  0.7546771E-02  0.1066232E+00
         21   -1    0    0  502  501  0.00000000000E+00  0.00000000000E+00  0.10541087928E+04  0.10541087928E+04  0.00000000000E+00 0. -1.
         21   -1    0    0  501  502 -0.00000000000E+00 -0.00000000000E+00 -0.11052373111E+03  0.11052373111E+03  0.00000000000E+00 0. -1.
         25    1    1    2    0    0 -0.10866910845E+02 -0.11397314338E+03  0.22633462251E+02  0.17101239949E+03  0.12500000000E+03 0.  0.
         25    1    1    2    0    0  0.21862145005E+02  0.12950537584E+03  0.23871459956E+03  0.29976533455E+03  0.12500000000E+03 0.  0.
         25    1    1    2    0    0 -0.10995234160E+02 -0.15532232458E+02  0.68223699991E+03  0.69385478990E+03  0.12500000000E+03 0.  0.
</event>
<event>
 5    0  0.5568866E-005  0.2423853E+03  0.7546771E-02  0.1118214E+00
         21   -1    0    0  502  501  0.00000000000E+00  0.00000000000E+00  0.68269826865E+02  0.68269826865E+02  0.00000000000E+00 0.  1.
         21   -1    0    0  501  502 -0.00000000000E+00 -0.00000000000E+00 -0.86056522898E+03  0.86056522898E+03  0.00000000000E+00 0.  1.
         25    1    1    2    0    0 -0.11361886220E+03  0.85695868185E+02 -0.28101675696E+03  0.33889297036E+03  0.12500000000E+03 0.  0.
         25    1    1    2    0    0  0.88128379330E+02 -0.36825584337E+02 -0.25834387766E+03  0.30247197230E+03  0.12500000000E+03 0.  0.
         25    1    1    2    0    0  0.25490482874E+02 -0.48870283848E+02 -0.25293476750E+03  0.28747011318E+03  0.12500000000E+03 0.  0.
</event>
<event>
 5    0  0.5568866E-005  0.2253094E+03  0.7546771E-02  0.1129985E+00
         21   -1    0    0  502  501  0.00000000000E+00  0.00000000000E+00  0.19520346791E+03  0.19520346791E+03  0.00000000000E+00 0. -1.
         21   -1    0    0  501  502 -0.00000000000E+00 -0.00000000000E+00 -0.26005845080E+03  0.26005845080E+03  0.00000000000E+00 0. -1.
         25    1    1    2    0    0  0.59881371419E+02  0.33073347904E+02 -0.12415424851E+01  0.14249970671E+03  0.12500000000E+03 0.  0.
         25    1    1    2    0    0  0.35474494855E+01 -0.54921931619E+02  0.33765785190E+02  0.14069161745E+03  0.12500000000E+03 0.  0.
         25    1    1    2    0    0 -0.63428820904E+02  0.21848583715E+02 -0.97379225595E+02  0.17207059455E+03  0.12500000000E+03 0.  0.
</event>
<event>
 5    0  0.5568866E-005  0.3451973E+03  0.7546771E-02  0.1064604E+00
         21   -1    0    0  502  501  0.00000000000E+00  0.00000000000E+00  0.52699345616E+03  0.52699345616E+03  0.00000000000E+00 0. -1.
         21   -1    0    0  501  502 -0.00000000000E+00 -0.00000000000E+00 -0.22611510717E+03  0.22611510717E+03  0.00000000000E+00 0. -1.
         25    1    1    2    0    0 -0.13018030363E+02  0.36067542598E+02 -0.64531508355E+02  0.14580690078E+03  0.12500000000E+03 0.  0.
         25    1    1    2    0    0  0.19308697894E+03 -0.10264507167E+03  0.15187504924E+03  0.29412518212E+03  0.12500000000E+03 0.  0.
         25    1    1    2    0    0 -0.18006894858E+03  0.66577529071E+02  0.21353480811E+03  0.31317648043E+03  0.12500000000E+03 0.  0.
</event>
<event>
 5    0  0.5568866E-005  0.2539878E+03  0.7546771E-02  0.1110810E+00
         21   -1    0    0  502  501  0.00000000000E+00  0.00000000000E+00  0.12382462117E+04  0.12382462117E+04  0.00000000000E+00 0.  1.
         21   -1    0    0  501  502 -0.00000000000E+00 -0.00000000000E+00 -0.52097709644E+02  0.52097709644E+02  0.00000000000E+00 0.  1.
         25    1    1    2    0    0  0.39500130749E+02 -0.43439780660E+02  0.12497982866E+03  0.18625850972E+03  0.12500000000E+03 0.  0.
         25    1    1    2    0    0  0.12464693234E+02  0.35073129365E+02  0.25325034831E+03  0.28486177684E+03  0.12500000000E+03 0.  0.
         25    1    1    2    0    0 -0.51964823983E+02  0.83666512946E+01  0.80791832511E+03  0.81922363482E+03  0.12500000000E+03 0.  0.
</event>
<event>
 5    0  0.5568866E-005  0.2623428E+03  0.7546771E-02  0.1105744E+00
         21   -1    0    0  502  501  0.00000000000E+00  0.00000000000E+00  0.62142201024E+02  0.62142201024E+02  0.00000000000E+00 0.  1.
         21   -1    0    0  501  502 -0.00000000000E+00 -0.00000000000E+00 -0.11075205136E+04  0.11075205136E+04  0.00000000000E+00 0.  1.
         25    1    1    2    0    0 -0.41447632872E+01 -0.10297244736E+03 -0.38146899028E+03  0.41444432018E+03  0.12500000000E+03 0.  0.
         25    1    1    2    0    0 -0.84465335161E+02  0.36896069131E+02 -0.15405902327E+03  0.21875761795E+03  0.12500000000E+03 0.  0.
         25    1    1    2    0    0  0.88610098448E+02  0.66076378233E+02 -0.50985029907E+03  0.53646077654E+03  0.12500000000E+03 0.  0.
</event>
<event>
 5    0  0.5568866E-005  0.3027762E+03  0.7546771E-02  0.1083861E+00
         21   -1    0    0  502  501  0.00000000000E+00  0.00000000000E+00  0.31792329616E+03  0.31792329616E+03  0.00000000000E+00 0.  1.
         21   -1    0    0  501  502 -0.00000000000E+00 -0.00000000000E+00 -0.28835083152E+03  0.28835083152E+03  0.00000000000E+00 0.  1.
         25    1    1    2    0    0 -0.16882801193E+03 -0.30607016259E+02  0.13172125406E+03  0.24983029406E+03  0.12500000000E+03 0.  0.
         25    1    1    2    0    0  0.38473030228E+02  0.52662229232E+02  0.12251319029E+02  0.14152236311E+03  0.12500000000E+03 0.  0.
         25    1    1    2    0    0  0.13035498170E+03 -0.22055212973E+02 -0.11440010845E+03  0.21492147051E+03  0.12500000000E+03 0.  0.
</event>
<event>
 5    0  0.5568866E-005  0.2122184E+03  0.7546771E-02  0.1139821E+00
         21   -1    0    0  502  501  0.00000000000E+00  0.00000000000E+00  0.85479470885E+02  0.85479470885E+02  0.00000000000E+00 0.  1.
         21   -1    0    0  501  502 -0.00000000000E+00 -0.00000000000E+00 -0.52687079126E+03  0.52687079126E+03  0.00000000000E+00 0.  1.
         25    1    1    2    0    0  0.20224630467E+02  0.35283298399E+02 -0.51213157739E+02  0.14107350690E+03  0.12500000000E+03 0.  0.
         25    1    1    2    0    0 -0.33366291605E+02 -0.34339034706E+02 -0.15647630777E+03  0.20591822069E+03  0.12500000000E+03 0.  0.
         25    1    1    2    0    0  0.13141661139E+02 -0.94426369339E+00 -0.23370185486E+03  0.26535853455E+03  0.12500000000E+03 0.  0.
</event>
<event>
 5    0  0.5568866E-005  0.3655837E+03  0.7546771E-02  0.1056395E+00
         21   -1    0    0  502  501  0.00000000000E+00  0.00000000000E+00  0.18255010156E+04  0.18255010156E+04  0.00000000000E+00 0. -1.
         21   -1    0    0  501  502 -0.00000000000E+00 -0.00000000000E+00 -0.73213567891E+02  0.73213567891E+02  0.00000000000E+00 0. -1.
         25    1    1    2    0    0  0.14185394399E+03 -0.14833329885E+03  0.92990698994E+03  0.96045682824E+03  0.12500000000E+03 0.  0.
         25    1    1    2    0    0 -0.33347074584E+02  0.22800797466E+03  0.40771912387E+03  0.48472626075E+03  0.12500000000E+03 0.  0.
         25    1    1    2    0    0 -0.10850686941E+03 -0.79674675806E+02  0.41466133391E+03  0.45353149451E+03  0.12500000000E+03 0.  0.
</event>
<event>
 5    0  0.5568866E-005  0.6341628E+03  0.7546771E-02  0.9836959E-01
         21   -1    0    0  502  501  0.00000000000E+00  0.00000000000E+00  0.13631817748E+04  0.13631817748E+04  0.00000000000E+00 0. -1.
         21   -1    0    0  501  502 -0.00000000000E+00 -0.00000000000E+00 -0.29501752727E+03  0.29501752727E+03  0.00000000000E+00 0. -1.
         25    1    1    2    0    0  0.13930595919E+01 -0.20034995848E+03  0.10168414962E+04  0.10439030965E+04  0.12500000000E+03 0.  0.
         25    1    1    2    0    0 -0.16905208563E+01  0.30070026249E+03  0.21100531054E+03  0.38803575454E+03  0.12500000000E+03 0.  0.
         25    1    1    2    0    0  0.29746126436E+00 -0.10035030401E+03 -0.15968255920E+03  0.22626045105E+03  0.12500000000E+03 0.  0.
</event>
<event>
 5    0  0.5568866E-005  0.2508818E+03  0.7546771E-02  0.1112749E+00
         21   -1    0    0  502  501  0.00000000000E+00  0.00000000000E+00  0.16126768410E+03  0.16126768410E+03  0.00000000000E+00 0. -1.
         21   -1    0    0  501  502 -0.00000000000E+00 -0.00000000000E+00 -0.39029305920E+03  0.39029305920E+03  0.00000000000E+00 0. -1.
         25    1    1    2    0    0 -0.15000520548E+02 -0.85308397140E+02 -0.68836475379E+02  0.16693111927E+03  0.12500000000E+03 0.  0.
         25    1    1    2    0    0  0.36903879391E+00  0.15959979567E+03 -0.10597736567E+03  0.22875408849E+03  0.12500000000E+03 0.  0.
         25    1    1    2    0    0  0.14631481754E+02 -0.74291398527E+02 -0.54211534057E+02  0.15587553553E+03  0.12500000000E+03 0.  0.
</event>
<event>
 5    0  0.5568866E-005  0.2347852E+03  0.7546771E-02  0.1123316E+00
         21   -1    0    0  502  501  0.00000000000E+00  0.00000000000E+00  0.22125518817E+03  0.22125518817E+03  0.00000000000E+00 0. -1.
         21   -1    0    0  501  502 -0.00000000000E+00 -0.00000000000E+00 -0.24914256119E+03  0.24914256119E+03  0.00000000000E+00 0. -1.
         25    1    1    2    0    0  0.65855841337E+02 -0.75311355181E+02 -0.79650558462E+02  0.17882394560E+03  0.12500000000E+03 0.  0.
         25    1    1    2    0    0 -0.13733590349E+02  0.80546927336E+02  0.44589233165E+02  0.15585127116E+03  0.12500000000E+03 0.  0.
         25    1    1    2    0    0 -0.52122250988E+02 -0.52355721542E+01  0.71739522817E+01  0.13572253260E+03  0.12500000000E+03 0.  0.
</event>
<event>
 5    0  0.5568866E-005  0.2215045E+03  0.7546771E-02  0.1132766E+00
         21   -1    0    0  502  501  0.00000000000E+00  0.00000000000E+00  0.38133083594E+02  0.38133083594E+02  0.00000000000E+00 0.  1.
         21   -1    0    0  501  502 -0.00000000000E+00 -0.00000000000E+00 -0.12866579791E+04  0.12866579791E+04  0.00000000000E+00 0.  1.
         25    1    1    2    0    0 -0.34513583925E+02 -0.74861456157E+02 -0.25650100149E+03  0.29700705187E+03  0.12500000000E+03 0.  0.
         25    1    1    2    0    0  0.42359375845E+02  0.27517499598E+02 -0.50634428526E+03  0.52398574858E+03  0.12500000000E+03 0.  0.
         25    1    1    2    0    0 -0.78457919202E+01  0.47343956559E+02 -0.48567960871E+03  0.50379826219E+03  0.12500000000E+03 0.  0.
</event>
<event>
 5    0  0.5568866E-005  0.3132793E+03  0.7546771E-02  0.1078785E+00
         21   -1    0    0  502  501  0.00000000000E+00  0.00000000000E+00  0.19875726606E+03  0.19875726606E+03  0.00000000000E+00 0.  1.
         21   -1    0    0  501  502 -0.00000000000E+00 -0.00000000000E+00 -0.49378796064E+03  0.49378796064E+03  0.00000000000E+00 0.  1.
         25    1    1    2    0    0  0.50062486610E+02 -0.15962183617E+03  0.29205209824E+02  0.21086329085E+03  0.12500000000E+03 0.  0.
         25    1    1    2    0    0  0.11688522824E+02  0.22953847413E+02 -0.34325604327E+02  0.13216182425E+03  0.12500000000E+03 0.  0.
         25    1    1    2    0    0 -0.61751009433E+02  0.13666798875E+03 -0.28991030008E+03  0.34952011160E+03  0.12500000000E+03 0.  0.
</event>
<event>
 5    0  0.5568866E-005  0.3918627E+03  0.7546771E-02  0.1046634E+00
         21   -1    0    0  502  501  0.00000000000E+00  0.00000000000E+00  0.22717489307E+03  0.22717489307E+03  0.00000000000E+00 0. -1.
         21   -1    0    0  501  502 -0.00000000000E+00 -0.00000000000E+00 -0.67593902954E+03  0.67593902954E+03  0.00000000000E+00 0. -1.
         25    1    1    2    0    0 -0.17685207793E+03 -0.13993173161E+03 -0.11145840438E+03  0.28090126893E+03  0.12500000000E+03 0.  0.
         25    1    1    2    0    0  0.23151020501E+03  0.21827381805E+03 -0.31208035740E+03  0.46288182525E+03  0.12500000000E+03 0.  0.
         25    1    1    2    0    0 -0.54658127081E+02 -0.78342086440E+02 -0.25225374684E+02  0.15933082844E+03  0.12500000000E+03 0.  0.
</event>
<event>
 5    0  0.5568866E-005  0.2921742E+03  0.7546771E-02  0.1089219E+00
         21   -1    0    0  502  501  0.00000000000E+00  0.00000000000E+00  0.97816721888E+03  0.97816721888E+03  0.00000000000E+00 0. -1.
         21   -1    0    0  501  502 -0.00000000000E+00 -0.00000000000E+00 -0.87271107752E+02  0.87271107752E+02  0.00000000000E+00 0. -1.
         25    1    1    2    0    0  0.95683527270E+01 -0.18333447720E+03  0.33862948080E+03  0.40496667662E+03  0.12500000000E+03 0.  0.
         25    1    1    2    0    0 -0.51321070018E+02 -0.10023748468E+01  0.22359147056E+03  0.26125275633E+03  0.12500000000E+03 0.  0.
         25    1    1    2    0    0  0.41752717291E+02  0.18433685205E+03  0.32867515976E+03  0.39921889368E+03  0.12500000000E+03 0.  0.
</event>
<event>
 5    0  0.5568866E-005  0.2714591E+03  0.7546771E-02  0.1100447E+00
         21   -1    0    0  502  501  0.00000000000E+00  0.00000000000E+00  0.25277553370E+03  0.25277553370E+03  0.00000000000E+00 0.  1.
         21   -1    0    0  501  502 -0.00000000000E+00 -0.00000000000E+00 -0.29152373320E+03  0.29152373320E+03  0.00000000000E+00 0.  1.
         25    1    1    2    0    0 -0.34502983179E+02  0.15005085598E+03 -0.11663525048E+03  0.23007498100E+03  0.12500000000E+03 0.  0.
         25    1    1    2    0    0  0.32471049871E+01 -0.31344424028E+02  0.40066701074E+02  0.13499391521E+03  0.12500000000E+03 0.  0.
         25    1    1    2    0    0  0.31255878191E+02 -0.11870643196E+03  0.37820349899E+02  0.17923037069E+03  0.12500000000E+03 0.  0.
</event>
<event>
 5    0  0.6483486E-005  0.3624742E+03  0.7546771E-02  0.1057608E+00
         21   -1    0    0  502  501  0.00000000000E+00  0.00000000000E+00  0.19025228789E+03  0.19025228789E+03  0.00000000000E+00 0.  1.
         21   -1    0    0  501  502 -0.00000000000E+00 -0.00000000000E+00 -0.69059653977E+03  0.69059653977E+03  0.00000000000E+00 0.  1.
         25    1    1    2    0    0 -0.28533769622E+02 -0.25525340355E+03 -0.19153874956E+03  0.34391942169E+03  0.12500000000E+03 0.  0.
         25    1    1    2    0    0 -0.11083000607E+03  0.11919089773E+03 -0.17430744003E+03  0.26925423673E+03  0.12500000000E+03 0.  0.
         25    1    1    2    0    0  0.13936377569E+03  0.13606250583E+03 -0.13449806229E+03  0.26767516923E+03  0.12500000000E+03 0.  0.
</event>
<event>
 5    0  0.5568866E-005  0.3482417E+03  0.7546771E-02  0.1063339E+00
         21   -1    0    0  502  501  0.00000000000E+00  0.00000000000E+00  0.29478232305E+04  0.29478232305E+04  0.00000000000E+00 0. -1.
         21   -1    0    0  501  502 -0.00000000000E+00 -0.00000000000E+00 -0.41139599778E+02  0.41139599778E+02  0.00000000000E+00 0. -1.
         25    1    1    2    0    0  0.13368205857E+03  0.69478626807E+02  0.40654057899E+03  0.45121881026E+03  0.12500000000E+03 0.  0.
         25    1    1    2    0    0 -0.15153222237E+02 -0.27965814622E+02  0.20489281307E+04  0.20529839726E+04  0.12500000000E+03 0.  0.
         25    1    1    2    0    0 -0.11852883634E+03 -0.41512812186E+02  0.45121492101E+03  0.48476004741E+03  0.12500000000E+03 0.  0.
</event>
<event>
 5    0  0.5568866E-005  0.2773715E+03  0.7546771E-02  0.1097133E+00
         21   -1    0    0  502  501  0.00000000000E+00  0.00000000000E+00  0.17909622366E+03  0.17909622366E+03  0.00000000000E+00 0.  1.
         21   -1    0    0  501  502 -0.00000000000E+00 -0.00000000000E+00 -0.42957319814E+03  0.42957319814E+03  0.00000000000E+00 0.  1.
         25    1    1    2    0    0 -0.17350917314E+02 -0.11765289196E+03 -0.15385642519E+03  0.23117105548E+03  0.12500000000E+03 0.  0.
         25    1    1    2    0    0 -0.97949827218E+02  0.78279622753E+02 -0.99154419758E+02  0.20292478150E+03  0.12500000000E+03 0.  0.
         25    1    1    2    0    0  0.11530074453E+03  0.39373269206E+02  0.25338704675E+01  0.17457358482E+03  0.12500000000E+03 0.  0.
</event>
<event>
 5    0  0.5568866E-005  0.2573780E+03  0.7546771E-02  0.1108729E+00
         21   -1    0    0  502  501  0.00000000000E+00  0.00000000000E+00  0.98953478694E+03  0.98953478694E+03  0.00000000000E+00 0.  1.
         21   -1    0    0  501  502 -0.00000000000E+00 -0.00000000000E+00 -0.66944031112E+02  0.66944031112E+02  0.00000000000E+00 0.  1.
         25    1    1    2    0    0  0.11153769811E+03  0.43475415986E+02  0.29727780441E+03  0.34399107967E+03  0.12500000000E+03 0.  0.
         25    1    1    2    0    0 -0.37970319051E+02 -0.54400039311E+02  0.11651719853E+03  0.18330948409E+03  0.12500000000E+03 0.  0.
         25    1    1    2    0    0 -0.73567379056E+02  0.10924623325E+02  0.50879575289E+03  0.52917825429E+03  0.12500000000E+03 0.  0.
</event>
<event>
 5    0  0.5568866E-005  0.2923063E+03  0.7546771E-02  0.1089151E+00
         21   -1    0    0  502  501  0.00000000000E+00  0.00000000000E+00  0.32690169234E+03  0.32690169234E+03  0.00000000000E+00 0.  1.
         21   -1    0    0  501  502 -0.00000000000E+00 -0.00000000000E+00 -0.26137208963E+03  0.26137208963E+03  0.00000000000E+00 0.  1.
         25    1    1    2    0    0  0.28756832043E+02 -0.31675533257E+02 -0.55441963573E+01  0.13223476438E+03  0.12500000000E+03 0.  0.
         25    1    1    2    0    0  0.54892329155E+02  0.88158255171E+02  0.19448761246E+03  0.25344718810E+03  0.12500000000E+03 0.  0.
         25    1    1    2    0    0 -0.83649161198E+02 -0.56482721914E+02 -0.12341381339E+03  0.20259182950E+03  0.12500000000E+03 0.  0.
</event>
<event>
 5    0  0.5568866E-005  0.2417382E+03  0.7546771E-02  0.1118640E+00
         21   -1    0    0  502  501  0.00000000000E+00  0.00000000000E+00  0.10274305118E+04  0.10274305118E+04  0.00000000000E+00 0. -1.
         21   -1    0    0  501  502 -0.00000000000E+00 -0.00000000000E+00 -0.56877199499E+02  0.56877199499E+02  0.00000000000E+00 0. -1.
         25    1    1    2    0    0 -0.71049726174E+02  0.50387898272E+02  0.18415730867E+03  0.23901028894E+03  0.12500000000E+03 0.  0.
         25    1    1    2    0    0  0.91392991001E+00 -0.94145514507E+02  0.33675072976E+03  0.37133578762E+03  0.12500000000E+03 0.  0.
         25    1    1    2    0    0  0.70135796264E+02  0.43757616235E+02  0.44964527387E+03  0.47396163475E+03  0.12500000000E+03 0.  0.
</event>
<event>
 5    0  0.5568866E-005  0.3280784E+03  0.7546771E-02  0.1071990E+00
         21   -1    0    0  502  501  0.00000000000E+00  0.00000000000E+00  0.40992970555E+03  0.40992970555E+03  0.00000000000E+00 0.  1.
         21   -1    0    0  501  502 -0.00000000000E+00 -0.00000000000E+00 -0.26257043790E+03  0.26257043790E+03  0.00000000000E+00 0.  1.
         25    1    1    2    0    0  0.13014953994E+02  0.20659154481E+03  0.10900856133E+02  0.24206049673E+03  0.12500000000E+03 0.  0.
         25    1    1    2    0    0  0.75156016141E+02 -0.17953177190E+03  0.12409023872E+02  0.23164426986E+03  0.12500000000E+03 0.  0.
         25    1    1    2    0    0 -0.88170970134E+02 -0.27059772908E+02  0.12404938764E+03  0.19879537685E+03  0.12500000000E+03 0.  0.
</event>
<event>
 5    0  0.5568866E-005  0.2831744E+03  0.7546771E-02  0.1093968E+00
         21   -1    0    0  502  501  0.00000000000E+00  0.00000000000E+00  0.31729653694E+03  0.31729653694E+03  0.00000000000E+00 0.  1.
         21   -1    0    0  501  502 -0.00000000000E+00 -0.00000000000E+00 -0.25272179096E+03  0.25272179096E+03  0.00000000000E+00 0.  1.
         25    1    1    2    0    0  0.37560278192E+01 -0.43807431692E+02 -0.11379422720E+03  0.17466346201E+03  0.12500000000E+03 0.  0.
         25    1    1    2    0    0  0.58872343609E+02  0.12858533661E+03  0.10683435061E+03  0.21688411676E+03  0.12500000000E+03 0.  0.
         25    1    1    2    0    0 -0.62628371428E+02 -0.84777904915E+02  0.71534622566E+02  0.17847074913E+03  0.12500000000E+03 0.  0.
</event>
<event>
 5    0  0.5568866E-005  0.2379682E+03  0.7546771E-02  0.1121154E+00
         21   -1    0    0  502  501  0.00000000000E+00  0.00000000000E+00  0.80610412392E+02  0.80610412392E+02  0.00000000000E+00 0.  1.
         21   -1    0    0  501  502 -0.00000000000E+00 -0.00000000000E+00 -0.70250057929E+03  0.70250057929E+03  0.00000000000E+00 0.  1.
         25    1    1    2    0    0  0.10412429551E+02  0.51352680980E+02 -0.17824146253E+03  0.22392082418E+03  0.12500000000E+03 0.  0.
         25    1    1    2    0    0 -0.10596048944E+03 -0.60998263820E+01 -0.29765444978E+03  0.33983526109E+03  0.12500000000E+03 0.  0.
         25    1    1    2    0    0  0.95548059889E+02 -0.45252854598E+02 -0.14599425458E+03  0.21935490641E+03  0.12500000000E+03 0.  0.
</event>
<event>
 5    0  0.5568866E-005  0.2695572E+03  0.7546771E-02  0.1101533E+00
         21   -1    0    0  502  501  0.00000000000E+00  0.00000000000E+00  0.17209728390E+04  0.17209728390E+04  0.00000000000E+00 0.  1.
         21   -1    0    0  501  502 -0.00000000000E+00 -0.00000000000E+00 -0.42220931730E+02  0.42220931730E+02  0.00000000000E+00 0.  1.
         25    1    1    2    0    0  0.13025054927E+03  0.48728582548E+02  0.53077132464E+03  0.56274583908E+03  0.12500000000E+03 0.  0.
         25    1    1    2    0    0 -0.84414288316E+02 -0.41975519280E+02  0.26763833693E+03  0.31006934012E+03  0.12500000000E+03 0.  0.
         25    1    1    2    0    0 -0.45836260956E+02 -0.67530632682E+01  0.88034224571E+03  0.89037859154E+03  0.12500000000E+03 0.  0.
</event>
<event>
 5    0  0.5568866E-005  0.3912779E+03  0.7546771E-02  0.1046842E+00
         21   -1    0    0  502  501  0.00000000000E+00  0.00000000000E+00  0.46835216082E+03  0.46835216082E+03  0.00000000000E+00 0. -1.
         21   -1    0    0  501  502 -0.00000000000E+00 -0.00000000000E+00 -0.32688728946E+03  0.32688728946E+03  0.00000000000E+00 0. -1.
         25    1    1    2    0    0 -0.56273364625E+02  0.11802082464E+03 -0.15731609904E+03  0.23972684796E+03  0.12500000000E+03 0.  0.
         25    1    1    2    0    0 -0.10218051442E+03 -0.62404840186E+02 -0.19890045788E+02  0.17422926139E+03  0.12500000000E+03 0.  0.
         25    1    1    2    0    0  0.15845387904E+03 -0.55615984454E+02  0.31867101619E+03  0.38128334093E+03  0.12500000000E+03 0.  0.
</event>
<event>
 5    0  0.5568866E-005  0.3691566E+03  0.7546771E-02  0.1055016E+00
         21   -1    0    0  502  501  0.00000000000E+00  0.00000000000E+00  0.83993236026E+03  0.83993236026E+03  0.00000000000E+00 0. -1.
         21   -1    0    0  501  502 -0.00000000000E+00 -0.00000000000E+00 -0.16224708022E+03  0.16224708022E+03  0.00000000000E+00 0.  1.
         25    1    1    2    0    0 -0.21067028123E+03  0.29955023084E+02  0.53947937008E+02  0.25261561849E+03  0.12500000000E+03 0.  0.
         25    1    1    2    0    0  0.45813830424E+02  0.95307300641E+02  0.17400766756E+03  0.23892688627E+03  0.12500000000E+03 0.  0.
         25    1    1    2    0    0  0.16485645080E+03 -0.12526232373E+03  0.44972967547E+03  0.51063693571E+03  0.12500000000E+03 0.  0.
</event>
<event>
 5    0  0.5568866E-005  0.3503889E+03  0.7546771E-02  0.1062456E+00
         21   -1    0    0  502  501  0.00000000000E+00  0.00000000000E+00  0.34010185961E+03  0.34010185961E+03  0.00000000000E+00 0.  1.
         21   -1    0    0  501  502 -0.00000000000E+00 -0.00000000000E+00 -0.36098714786E+03  0.36098714786E+03  0.00000000000E+00 0.  1.
         25    1    1    2    0    0 -0.24920617177E+02  0.20707838378E+03 -0.75383639218E+02  0.25457845009E+03  0.12500000000E+03 0.  0.
         25    1    1    2    0    0 -0.20871145080E+02 -0.17271419086E+03 -0.10278744106E+03  0.23760482836E+03  0.12500000000E+03 0.  0.
         25    1    1    2    0    0  0.45791762258E+02 -0.34364192920E+02  0.15728579202E+03  0.20890572902E+03  0.12500000000E+03 0.  0.
</event>
<event>
 5    0  0.5568866E-005  0.2022345E+03  0.7546771E-02  0.1147867E+00
         21   -1    0    0  502  501  0.00000000000E+00  0.00000000000E+00  0.16289187712E+03  0.16289187712E+03  0.00000000000E+00 0. -1.
         21   -1    0    0  501  502 -0.00000000000E+00 -0.00000000000E+00 -0.25107927865E+03  0.25107927865E+03  0.00000000000E+00 0. -1.
         25    1    1    2    0    0 -0.30612736175E+02  0.84069050695E+01 -0.70981935462E+02  0.14721158525E+03  0.12500000000E+03 0.  0.
         25    1    1    2    0    0 -0.68639521585E+01 -0.34147089829E+02 -0.29842197820E+02  0.13314914327E+03  0.12500000000E+03 0.  0.
         25    1    1    2    0    0  0.37476688333E+02  0.25740184760E+02  0.12636731758E+02  0.13361042725E+03  0.12500000000E+03 0.  0.
</event>
<event>
 5    0  0.5832881E-005  0.3085199E+03  0.7546771E-02  0.1081057E+00
         21   -1    0    0  502  501  0.00000000000E+00  0.00000000000E+00  0.24020722160E+03  0.24020722160E+03  0.00000000000E+00 0. -1.
         21   -1    0    0  501  502 -0.00000000000E+00 -0.00000000000E+00 -0.39626016223E+03  0.39626016223E+03  0.00000000000E+00 0. -1.
         25    1    1    2    0    0  0.20815351781E+02  0.74995377228E+02  0.78745339658E+02  0.16698327459E+03  0.12500000000E+03 0.  0.
         25    1    1    2    0    0  0.74265789442E+02 -0.13775803373E+03 -0.27857523370E+02  0.20222196950E+03  0.12500000000E+03 0.  0.
         25    1    1    2    0    0 -0.95081141224E+02  0.62762656500E+02 -0.20694075692E+03  0.26726213975E+03  0.12500000000E+03 0.  0.
</event>
<event>
 5    0  0.5568866E-005  0.3111381E+03  0.7546771E-02  0.1079802E+00
         21   -1    0    0  502  501  0.00000000000E+00  0.00000000000E+00  0.18615863077E+03  0.18615863077E+03  0.00000000000E+00 0. -1.
         21   -1    0    0  501  502 -0.00000000000E+00 -0.00000000000E+00 -0.52002385291E+03  0.52002385291E+03  0.00000000000E+00 0. -1.
         25    1    1    2    0    0  0.15721939217E+03  0.39219189877E+01 -0.33563187773E+03  0.39116118937E+03  0.12500000000E+03 0.  0.
         25    1    1    2    0    0 -0.57764857946E+02 -0.32783418004E+02 -0.40602425780E+02  0.14725857628E+03  0.12500000000E+03 0.  0.
         25    1    1    2    0    0 -0.99454534221E+02  0.28861499016E+02  0.42369081375E+02  0.16776271802E+03  0.12500000000E+03 0.  0.
</event>
<event>
 5    0  0.5568866E-005  0.3657198E+03  0.7546771E-02  0.1056342E+00
         21   -1    0    0  502  501  0.00000000000E+00  0.00000000000E+00  0.72384832112E+02  0.72384832112E+02  0.00000000000E+00 0. -1.
         21   -1    0    0  501  502 -0.00000000000E+00 -0.00000000000E+00 -0.18477761280E+04  0.18477761280E+04  0.00000000000E+00 0. -1.
         25    1    1    2    0    0  0.13276404361E+03 -0.14518624805E+03 -0.10879698397E+04  0.11126583977E+04  0.12500000000E+03 0.  0.
         25    1    1    2    0    0 -0.65491369327E+02  0.87851511821E+01 -0.66743690631E+02  0.15635222600E+03  0.12500000000E+03 0.  0.
         25    1    1    2    0    0 -0.67272674288E+02  0.13640109687E+03 -0.62067776554E+03  0.65115033638E+03  0.12500000000E+03 0.  0.
</event>
<event>
 5    0  0.6156415E-005  0.3415009E+03  0.7546771E-02  0.1066158E+00
         21   -1    0    0  502  501  0.00000000000E+00  0.00000000000E+00  0.78259225832E+03  0.78259225832E+03  0.00000000000E+00 0. -1.
         21   -1    0    0  501  502 -0.00000000000E+00 -0.00000000000E+00 -0.14902125324E+03  0.14902125324E+03  0.00000000000E+00 0. -1.
         25    1    1    2    0    0 -0.13990782294E+03 -0.20354092660E+02  0.20162075519E+03  0.27616012915E+03  0.12500000000E+03 0.  0.
         25    1    1    2    0    0 -0.58303344511E+02  0.15021190497E+03  0.94993288133E+02  0.22497026729E+03  0.12500000000E+03 0.  0.
         25    1    1    2    0    0  0.19821116745E+03 -0.12985781231E+03  0.33695696176E+03  0.43048311511E+03  0.12500000000E+03 0.  0.
</event>
<event>
 5    0  0.5568866E-005  0.2555768E+03  0.7546771E-02  0.1109830E+00
         21   -1    0    0  502  501  0.00000000000E+00  0.00000000000E+00  0.27717309448E+03  0.27717309448E+03  0.00000000000E+00 0. -1.
         21   -1    0    0  501  502 -0.00000000000E+00 -0.00000000000E+00 -0.23566328514E+03  0.23566328514E+03  0.00000000000E+00 0. -1.
         25    1    1    2    0    0 -0.16659065869E+02  0.65442060958E+01 -0.85016593315E+02  0.15222737023E+03  0.12500000000E+03 0.  0.
         25    1    1    2    0    0  0.91977843463E+02  0.72960269082E+02  0.63188858314E+02  0.18275928531E+03  0.12500000000E+03 0.  0.
         25    1    1    2    0    0 -0.75318777595E+02 -0.79504475178E+02  0.63337544337E+02  0.17784972408E+03  0.12500000000E+03 0.  0.
</event>
<event>
 5    0  0.5568866E-005  0.2856136E+03  0.7546771E-02  0.1092662E+00
         21   -1    0    0  502  501  0.00000000000E+00  0.00000000000E+00  0.41783581034E+03  0.41783581034E+03  0.00000000000E+00 0.  1.
         21   -1    0    0  501  502 -0.00000000000E+00 -0.00000000000E+00 -0.19523252908E+03  0.19523252908E+03  0.00000000000E+00 0.  1.
         25    1    1    2    0    0  0.13120652078E+02 -0.13726987387E+03  0.36639461795E+02  0.18969085361E+03  0.12500000000E+03 0.  0.
         25    1    1    2    0    0 -0.40427055567E+02  0.29274987988E+02  0.21479387329E+03  0.25348132031E+03  0.12500000000E+03 0.  0.
         25    1    1    2    0    0  0.27306403489E+02  0.10799488588E+03 -0.28830053830E+02  0.16989616550E+03  0.12500000000E+03 0.  0.
</event>
<event>
 5    0  0.6475945E-005  0.2588248E+03  0.7546771E-02  0.1107851E+00
         21   -1    0    0  502  501  0.00000000000E+00  0.00000000000E+00  0.11936313145E+03  0.11936313145E+03  0.00000000000E+00 0.  1.
         21   -1    0    0  501  502 -0.00000000000E+00 -0.00000000000E+00 -0.56123100101E+03  0.56123100101E+03  0.00000000000E+00 0.  1.
         25    1    1    2    0    0 -0.19794595293E+02 -0.97636456400E+02 -0.12761402263E+03  0.20453616402E+03  0.12500000000E+03 0.  0.
         25    1    1    2    0    0 -0.75738279555E+02 -0.27711264927E+02 -0.18314369002E+03  0.23594663038E+03  0.12500000000E+03 0.  0.
         25    1    1    2    0    0  0.95532874848E+02  0.12534772133E+03 -0.13111015691E+03  0.24011133806E+03  0.12500000000E+03 0.  0.
</event>
<event>
 5    0  0.5568866E-005  0.3482403E+03  0.7546771E-02  0.1063340E+00
         21   -1    0    0  502  501  0.00000000000E+00  0.00000000000E+00  0.73818138068E+02  0.73818138068E+02  0.00000000000E+00 0. -1.
         21   -1    0    0  501  502 -0.00000000000E+00 -0.00000000000E+00 -0.16428391438E+04  0.16428391438E+04  0.00000000000E+00 0. -1.
         25    1    1    2    0    0 -0.13776705582E+03  0.67166453051E+02 -0.16359559000E+03  0.25667023815E+03  0.12500000000E+03 0.  0.
         25    1    1    2    0    0 -0.38262601023E+02 -0.11441751956E+03 -0.66094896111E+03  0.68339880348E+03  0.12500000000E+03 0.  0.
         25    1    1    2    0    0  0.17602965684E+03  0.47251066505E+02 -0.74447645459E+03  0.77658824020E+03  0.12500000000E+03 0.  0.
</event>
<event>
 5    0  0.5568866E-005  0.4390860E+03  0.7546771E-02  0.1031028E+00
         21   -1    0    0  502  501  0.00000000000E+00  0.00000000000E+00  0.29378741050E+03  0.29378741050E+03  0.00000000000E+00 0. -1.
         21   -1    0    0  501  502 -0.00000000000E+00 -0.00000000000E+00 -0.65624509018E+03  0.65624509018E+03  0.00000000000E+00 0. -1.
         25    1    1    2    0    0 -0.78224289807E+02 -0.16295963793E+03  0.16283191318E+03  0.27352169029E+03  0.12500000000E+03 0.  0.
         25    1    1    2    0    0 -0.13993201757E+02  0.34188343494E+02 -0.43743853035E+03  0.45644509020E+03  0.12500000000E+03 0.  0.
         25    1    1    2    0    0  0.92217491564E+02  0.12877129443E+03 -0.87851062510E+02  0.22006572019E+03  0.12500000000E+03 0.  0.
</event>
<event>
 5    0  0.5568866E-005  0.5100101E+03  0.7546771E-02  0.1011199E+00
         21   -1    0    0  502  501  0.00000000000E+00  0.00000000000E+00  0.62632031164E+03  0.62632031164E+03  0.00000000000E+00 0.  1.
         21   -1    0    0  501  502 -0.00000000000E+00 -0.00000000000E+00 -0.41529918021E+03  0.41529918021E+03  0.00000000000E+00 0.  1.
         25    1    1    2    0    0  0.69795899398E+01  0.71609190064E+02  0.10677327296E+03  0.17944949873E+03  0.12500000000E+03 0.  0.
         25    1    1    2    0    0  0.29484891667E+03 -0.31429816314E+03  0.63038381331E+02  0.45312035547E+03  0.12500000000E+03 0.  0.
         25    1    1    2    0    0 -0.30182850661E+03  0.24268897308E+03  0.41209477149E+02  0.40904963765E+03  0.12500000000E+03 0.  0.
</event>
<event>
 5    0  0.5568866E-005  0.3501219E+03  0.7546771E-02  0.1062565E+00
         21   -1    0    0  502  501  0.00000000000E+00  0.00000000000E+00  0.15849796020E+03  0.15849796020E+03  0.00000000000E+00 0. -1.
         21   -1    0    0  501  502 -0.00000000000E+00 -0.00000000000E+00 -0.77341886049E+03  0.77341886049E+03  0.00000000000E+00 0. -1.
         25    1    1    2    0    0  0.75334625971E+02  0.16897580383E+03 -0.98748394534E+02  0.24414006958E+03  0.12500000000E+03 0.  0.
         25    1    1    2    0    0 -0.18006752740E+03 -0.76579235790E+02 -0.15002617290E+03  0.27644447242E+03  0.12500000000E+03 0.  0.
         25    1    1    2    0    0  0.10473290143E+03 -0.92396568040E+02 -0.36614633286E+03  0.41133227870E+03  0.12500000000E+03 0.  0.
</event>
<event>
 5    0  0.5568866E-005  0.2461549E+03  0.7546771E-02  0.1115759E+00
         21   -1    0    0  502  501  0.00000000000E+00  0.00000000000E+00  0.11448347731E+04  0.11448347731E+04  0.00000000000E+00 0. -1.
         21   -1    0    0  501  502 -0.00000000000E+00 -0.00000000000E+00 -0.52926629575E+02  0.52926629575E+02  0.00000000000E+00 0. -1.
         25    1    1    2    0    0 -0.74963063948E+02  0.31550483141E+02  0.21243439873E+03  0.25955397841E+03  0.12500000000E+03 0.  0.
         25    1    1    2    0    0  0.16486402945E+02  0.58006225792E+02  0.23366317392E+03  0.27177196794E+03  0.12500000000E+03 0.  0.
         25    1    1    2    0    0  0.58476661002E+02 -0.89556708933E+02  0.64581057091E+03  0.66643545636E+03  0.12500000000E+03 0.  0.
</event>
<event>
 5    0  0.5568866E-005  0.4145475E+03  0.7546771E-02  0.1038856E+00
         21   -1    0    0  502  501  0.00000000000E+00  0.00000000000E+00  0.15072718073E+03  0.15072718073E+03  0.00000000000E+00 0.  1.
         21   -1    0    0  501  502 -0.00000000000E+00 -0.00000000000E+00 -0.11401367720E+04  0.11401367720E+04  0.00000000000E+00 0.  1.
         25    1    1    2    0    0  0.34564269792E+02 -0.24703008175E+02 -0.69116665875E+02  0.14902026997E+03  0.12500000000E+03 0.  0.
         25    1    1    2    0    0  0.72338127536E+02  0.22379098945E+03 -0.10443213925E+03  0.28608789447E+03  0.12500000000E+03 0.  0.
         25    1    1    2    0    0 -0.10690239733E+03 -0.19908798127E+03 -0.81586078616E+03  0.85575578831E+03  0.12500000000E+03 0.  0.
</event>
<event>
 5    0  0.5568866E-005  0.3306661E+03  0.7546771E-02  0.1070843E+00
         21   -1    0    0  502  501  0.00000000000E+00  0.00000000000E+00  0.23361900544E+03  0.23361900544E+03  0.00000000000E+00 0.  1.
         21   -1    0    0  501  502 -0.00000000000E+00 -0.00000000000E+00 -0.46802728730E+03  0.46802728730E+03  0.00000000000E+00 0.  1.
         25    1    1    2    0    0  0.70063761513E+02  0.12088455179E+03 -0.18117587113E+03  0.26071383128E+03  0.12500000000E+03 0.  0.
         25    1    1    2    0    0 -0.94416319967E+02  0.27714295524E+02  0.10385452190E+03  0.18998232910E+03  0.12500000000E+03 0.  0.
         25    1    1    2    0    0  0.24352558454E+02 -0.14859884732E+03 -0.15708693263E+03  0.25095013236E+03  0.12500000000E+03 0.  0.
</event>
<event>
 5    0  0.5568866E-005  0.4078843E+03  0.7546771E-02  0.1041083E+00
         21   -1    0    0  502  501  0.00000000000E+00  0.00000000000E+00  0.11131750771E+04  0.11131750771E+04  0.00000000000E+00 0. -1.
         21   -1    0    0  501  502 -0.00000000000E+00 -0.00000000000E+00 -0.14945505472E+03  0.14945505472E+03  0.00000000000E+00 0. -1.
         25    1    1    2    0    0  0.21978783457E+02 -0.17853614954E+03  0.62807130227E+03  0.66517425112E+03  0.12500000000E+03 0.  0.
         25    1    1    2    0    0  0.63701959808E+02  0.13219851297E+03  0.38576592092E+03  0.43124787798E+03  0.12500000000E+03 0.  0.
         25    1    1    2    0    0 -0.85680743265E+02  0.46337636572E+02 -0.50117200862E+02  0.16620800267E+03  0.12500000000E+03 0.  0.
</event>
<event>
 5    0  0.5568866E-005  0.4687050E+03  0.7546771E-02  0.1022286E+00
         21   -1    0    0  502  501  0.00000000000E+00  0.00000000000E+00  0.21129411645E+03  0.21129411645E+03  0.00000000000E+00 0. -1.
         21   -1    0    0  501  502 -0.00000000000E+00 -0.00000000000E+00 -0.10397089688E+04  0.10397089688E+04  0.00000000000E+00 0. -1.
         25    1    1    2    0    0  0.55817623697E+01 -0.98995745701E+02  0.91209463600E+01  0.15981084256E+03  0.12500000000E+03 0.  0.
         25    1    1    2    0    0 -0.11306529157E+03  0.25784579474E+03 -0.10776283585E+03  0.32635263567E+03  0.12500000000E+03 0.  0.
         25    1    1    2    0    0  0.10748352920E+03 -0.15885004904E+03 -0.72977296287E+03  0.76483960702E+03  0.12500000000E+03 0.  0.
</event>
<event>
 5    0  0.5568866E-005  0.3317030E+03  0.7546771E-02  0.1070386E+00
         21   -1    0    0  502  501  0.00000000000E+00  0.00000000000E+00  0.99763843533E+02  0.99763843533E+02  0.00000000000E+00 0.  1.
         21   -1    0    0  501  502 -0.00000000000E+00 -0.00000000000E+00 -0.11028733565E+04  0.11028733565E+04  0.00000000000E+00 0.  1.
         25    1    1    2    0    0  0.49517734003E+02 -0.18833407418E+03 -0.30704688414E+03  0.38447954242E+03  0.12500000000E+03 0.  0.
         25    1    1    2    0    0 -0.14451172276E+03  0.12027420272E+03 -0.54494866504E+03  0.58986741678E+03  0.12500000000E+03 0.  0.
         25    1    1    2    0    0  0.94993988758E+02  0.68059871453E+02 -0.15111396376E+03  0.22829024080E+03  0.12500000000E+03 0.  0.
</event>
<event>
 5    0  0.5568866E-005  0.3619181E+03  0.7546771E-02  0.1057827E+00
         21   -1    0    0  502  501  0.00000000000E+00  0.00000000000E+00  0.45442524460E+03  0.45442524460E+03  0.00000000000E+00 0.  1.
         21   -1    0    0  501  502 -0.00000000000E+00 -0.00000000000E+00 -0.28824253976E+03  0.28824253976E+03  0.00000000000E+00 0.  1.
         25    1    1    2    0    0  0.48086546471E+02  0.99678313879E+02  0.11597709429E+03  0.20328248476E+03  0.12500000000E+03 0.  0.
         25    1    1    2    0    0 -0.10817368592E+03 -0.18543735744E+02 -0.18864962540E+03  0.25151361319E+03  0.12500000000E+03 0.  0.
         25    1    1    2    0    0  0.60087139445E+02 -0.81134578135E+02  0.23885523594E+03  0.28787168640E+03  0.12500000000E+03 0.  0.
</event>
<event>
 5    0  0.5568866E-005  0.2655438E+03  0.7546771E-02  0.1103857E+00
         21   -1    0    0  502  501  0.00000000000E+00  0.00000000000E+00  0.43309020084E+02  0.43309020084E+02  0.00000000000E+00 0.  1.
         21   -1    0    0  501  502 -0.00000000000E+00 -0.00000000000E+00 -0.16281480803E+04  0.16281480803E+04  0.00000000000E+00 0.  1.
         25    1    1    2    0    0  0.11503817050E+03 -0.97412662036E+02 -0.34681524601E+03  0.39828233988E+03  0.12500000000E+03 0.  0.
         25    1    1    2    0    0 -0.52697887651E+02  0.22634592098E+02 -0.63107254030E+03  0.64588462069E+03  0.12500000000E+03 0.  0.
         25    1    1    2    0    0 -0.62340282849E+02  0.74778069938E+02 -0.60695127389E+03  0.62729013979E+03  0.12500000000E+03 0.  0.
</event>
<event>
 5    0  0.5568866E-005  0.2342817E+03  0.7546771E-02  0.1123662E+00
         21   -1    0    0  502  501  0.00000000000E+00  0.00000000000E+00  0.87513478314E+03  0.87513478314E+03  0.00000000000E+00 0. -1.
         21   -1    0    0  501  502 -0.00000000000E+00 -0.00000000000E+00 -0.62719367703E+02  0.62719367703E+02  0.00000000000E+00 0. -1.
         25    1    1    2    0    0  0.14959079374E+02 -0.64549684198E+02  0.20967753537E+03  0.25294288807E+03  0.12500000000E+03 0.  0.
         25    1    1    2    0    0  0.35621243823E+02 -0.23833905229E+02  0.42439755734E+03  0.44449433599E+03  0.12500000000E+03 0.  0.
         25    1    1    2    0    0 -0.50580323197E+02  0.88383589427E+02  0.17834032273E+03  0.24041692678E+03  0.12500000000E+03 0.  0.
</event>
<event>
 5    0  0.5568866E-005  0.2448481E+03  0.7546771E-02  0.1116605E+00
         21   -1    0    0  502  501  0.00000000000E+00  0.00000000000E+00  0.70029479900E+02  0.70029479900E+02  0.00000000000E+00 0. -1.
         21   -1    0    0  501  502 -0.00000000000E+00 -0.00000000000E+00 -0.85607658182E+03  0.85607658182E+03  0.00000000000E+00 0. -1.
         25    1    1    2    0    0  0.12434327385E+03 -0.16102517190E+02 -0.35703028619E+03  0.39851746018E+03  0.12500000000E+03 0.  0.
         25    1    1    2    0    0 -0.31196362165E+02 -0.49186064422E+02 -0.20129311482E+03  0.24400081971E+03  0.12500000000E+03 0.  0.
         25    1    1    2    0    0 -0.93146911687E+02  0.65288581612E+02 -0.22772370091E+03  0.28358778183E+03  0.12500000000E+03 0.  0.
</event>
<event>
 5    0  0.5568866E-005  0.3520655E+03  0.7546771E-02  0.1061770E+00
         21   -1    0    0  502  501  0.00000000000E+00  0.00000000000E+00  0.51507852699E+03  0.51507852699E+03  0.00000000000E+00 0.  1.
         21   -1    0    0  501  502 -0.00000000000E+00 -0.00000000000E+00 -0.24064316793E+03  0.24064316793E+03  0.00000000000E+00 0.  1.
         25    1    1    2    0    0 -0.12607988998E+03  0.96283238498E+02  0.35904438952E+03  0.41195202914E+03  0.12500000000E+03 0.  0.
         25    1    1    2    0    0 -0.16623773208E+02 -0.56252149550E+02 -0.20695337433E+02  0.13962074042E+03  0.12500000000E+03 0.  0.
         25    1    1    2    0    0  0.14270366318E+03 -0.40031088948E+02 -0.63913693024E+02  0.20414892536E+03  0.12500000000E+03 0.  0.
</event>
<event>
 5    0  0.5568866E-005  0.2719199E+03  0.7546771E-02  0.1100186E+00
         21   -1    0    0  502  501  0.00000000000E+00  0.00000000000E+00  0.58005106850E+02  0.58005106850E+02  0.00000000000E+00 0. -1.
         21   -1    0    0  501  502 -0.00000000000E+00 -0.00000000000E+00 -0.12747227647E+04  0.12747227647E+04  0.00000000000E+00 0. -1.
         25    1    1    2    0    0 -0.70315202897E+02  0.46150262299E+02 -0.14033303972E+03  0.20589423621E+03  0.12500000000E+03 0.  0.
         25    1    1    2    0    0  0.55738017458E+02 -0.11639232863E+03 -0.72741681665E+03  0.74927573423E+03  0.12500000000E+03 0.  0.
         25    1    1    2    0    0  0.14577185440E+02  0.70242066336E+02 -0.34896780143E+03  0.37755790106E+03  0.12500000000E+03 0.  0.
</event>
<event>
 5    0  0.5568866E-005  0.2867487E+03  0.7546771E-02  0.1092059E+00
         21   -1    0    0  502  501  0.00000000000E+00  0.00000000000E+00  0.51193958862E+03  0.51193958862E+03  0.00000000000E+00 0.  1.
         21   -1    0    0  501  502 -0.00000000000E+00 -0.00000000000E+00 -0.16061429567E+03  0.16061429567E+03  0.00000000000E+00 0.  1.
         25    1    1    2    0    0  0.68381087058E+02  0.16899576139E+03  0.88872356405E+02  0.23824113030E+03  0.12500000000E+03 0.  0.
         25    1    1    2    0    0  0.19964031037E+02 -0.22562570258E+02  0.62293924814E+02  0.14287464849E+03  0.12500000000E+03 0.  0.
         25    1    1    2    0    0 -0.88345118094E+02 -0.14643319113E+03  0.20015901174E+03  0.29143810550E+03  0.12500000000E+03 0.  0.
</event>
<event>
 5    0  0.5568866E-005  0.2217109E+03  0.7546771E-02  0.1132614E+00
         21   -1    0    0  502  501  0.00000000000E+00  0.00000000000E+00  0.93729560104E+02  0.93729560104E+02  0.00000000000E+00 0. -1.
         21   -1    0    0  501  502 -0.00000000000E+00 -0.00000000000E+00 -0.52444204818E+03  0.52444204818E+03  0.00000000000E+00 0. -1.
         25    1    1    2    0    0  0.30029004742E+01 -0.94206281102E+01 -0.80768021142E+02  0.14915173108E+03  0.12500000000E+03 0.  0.
         25    1    1    2    0    0  0.42869785493E+02  0.79232166212E+02 -0.22928357550E+03  0.27624538488E+03  0.12500000000E+03 0.  0.
         25    1    1    2    0    0 -0.45872685967E+02 -0.69811538102E+02 -0.12066089143E+03  0.19277449232E+03  0.12500000000E+03 0.  0.
</event>
<event>
 5    0  0.5568866E-005  0.3233419E+03  0.7546771E-02  0.1074121E+00
         21   -1    0    0  502  501  0.00000000000E+00  0.00000000000E+00  0.39787042774E+03  0.39787042774E+03  0.00000000000E+00 0.  1.
         21   -1    0    0  501  502 -0.00000000000E+00 -0.00000000000E+00 -0.26277388102E+03  0.26277388102E+03  0.00000000000E+00 0.  1.
         25    1    1    2    0    0 -0.10859280467E+03 -0.10546484456E+03  0.80744702536E+02  0.21227326175E+03  0.12500000000E+03 0.  0.
         25    1    1    2    0    0  0.21343682705E+03  0.10089888278E+03 -0.22284246837E+02  0.26806240196E+03  0.12500000000E+03 0.  0.
         25    1    1    2    0    0 -0.10484402238E+03  0.45659617803E+01  0.76636091016E+02  0.18030864506E+03  0.12500000000E+03 0.  0.
</event>
<event>
 5    0  0.5568866E-005  0.2277628E+03  0.7546771E-02  0.1128224E+00
         21   -1    0    0  502  501  0.00000000000E+00  0.00000000000E+00  0.42452226943E+02  0.42452226943E+02  0.00000000000E+00 0.  1.
         21   -1    0    0  501  502 -0.00000000000E+00 -0.00000000000E+00 -0.12219833809E+04  0.12219833809E+04  0.00000000000E+00 0.  1.
         25    1    1    2    0    0 -0.10395899874E+03  0.25612223876E+02 -0.35332363766E+03  0.38977692641E+03  0.12500000000E+03 0.  0.
         25    1    1    2    0    0  0.74477458863E+02 -0.32349920122E+02 -0.55231421188E+03  0.57207464360E+03  0.12500000000E+03 0.  0.
         25    1    1    2    0    0  0.29481539878E+02  0.67376962456E+01 -0.27389330440E+03  0.30258403781E+03  0.12500000000E+03 0.  0.
</event>
<event>
 5    0  0.5568866E-005  0.3189737E+03  0.7546771E-02  0.1076123E+00
         21   -1    0    0  502  501  0.00000000000E+00  0.00000000000E+00  0.15130083122E+04  0.15130083122E+04  0.00000000000E+00 0.  1.
         21   -1    0    0  501  502 -0.00000000000E+00 -0.00000000000E+00 -0.67246292076E+02  0.67246292076E+02  0.00000000000E+00 0.  1.
         25    1    1    2    0    0  0.58146090178E+02  0.16557373240E+03  0.46483603786E+03  0.51234087360E+03  0.12500000000E+03 0.  0.
         25    1    1    2    0    0 -0.10060201253E+03 -0.10977207042E+03  0.21992802913E+03  0.29353706813E+03  0.12500000000E+03 0.  0.
         25    1    1    2    0    0  0.42455922355E+02 -0.55801661983E+02  0.76099795309E+03  0.77437666251E+03  0.12500000000E+03 0.  0.
</event>
<event>
 5    0  0.5568866E-005  0.3693415E+03  0.7546771E-02  0.1054945E+00
         21   -1    0    0  502  501  0.00000000000E+00  0.00000000000E+00  0.52102990269E+03  0.52102990269E+03  0.00000000000E+00 0.  1.
         21   -1    0    0  501  502 -0.00000000000E+00 -0.00000000000E+00 -0.26181444663E+03  0.26181444663E+03  0.00000000000E+00 0.  1.
         25    1    1    2    0    0 -0.82211088034E+01 -0.15117277653E+03 -0.15077519789E+03  0.24754586503E+03  0.12500000000E+03 0.  0.
         25    1    1    2    0    0  0.14094779249E+02 -0.19246023420E+02  0.20180355003E+03  0.23857649722E+03  0.12500000000E+03 0.  0.
         25    1    1    2    0    0 -0.58736704460E+01  0.17041879995E+03  0.20818710391E+03  0.29672198708E+03  0.12500000000E+03 0.  0.
</event>
<event>
 5    0  0.5568866E-005  0.3980686E+03  0.7546771E-02  0.1044451E+00
         21   -1    0    0  502  501  0.00000000000E+00  0.00000000000E+00  0.30512161801E+03  0.30512161801E+03  0.00000000000E+00 0.  1.
         21   -1    0    0  501  502 -0.00000000000E+00 -0.00000000000E+00 -0.51932927628E+03  0.51932927628E+03  0.00000000000E+00 0.  1.
         25    1    1    2    0    0 -0.88635221806E+02 -0.12020441090E+03  0.66152564270E+01  0.19486935255E+03  0.12500000000E+03 0.  0.
         25    1    1    2    0    0  0.13197287407E+03  0.30914353124E+03 -0.12445767609E+03  0.37960673800E+03  0.12500000000E+03 0.  0.
         25    1    1    2    0    0 -0.43337652263E+02 -0.18893912034E+03 -0.96365238611E+02  0.24997480375E+03  0.12500000000E+03 0.  0.
</event>
<event>
 5    0  0.5568866E-005  0.4506161E+03  0.7546771E-02  0.1027538E+00
         21   -1    0    0  502  501  0.00000000000E+00  0.00000000000E+00  0.11413669707E+04  0.11413669707E+04  0.00000000000E+00 0. -1.
         21   -1    0    0  501  502 -0.00000000000E+00 -0.00000000000E+00 -0.17790495128E+03  0.17790495128E+03  0.00000000000E+00 0. -1.
         25    1    1    2    0    0  0.15909494484E+03 -0.22728297736E+03  0.52613024146E+03  0.60778843708E+03  0.12500000000E+03 0.  0.
         25    1    1    2    0    0 -0.37938270191E+02 -0.86915369974E+02  0.15846078417E+02  0.15770127483E+03  0.12500000000E+03 0.  0.
         25    1    1    2    0    0 -0.12115667465E+03  0.31419834733E+03  0.42148569958E+03  0.55378221010E+03  0.12500000000E+03 0.  0.
</event>
<event>
 5    0  0.5568866E-005  0.3285643E+03  0.7546771E-02  0.1071774E+00
         21   -1    0    0  502  501  0.00000000000E+00  0.00000000000E+00  0.10270645878E+04  0.10270645878E+04  0.00000000000E+00 0.  1.
         21   -1    0    0  501  502 -0.00000000000E+00 -0.00000000000E+00 -0.10510973069E+03  0.10510973069E+03  0.00000000000E+00 0.  1.
         25    1    1    2    0    0  0.23394930463E+03 -0.94858507732E+02  0.50783552244E+03  0.58073430369E+03  0.12500000000E+03 0.  0.
         25    1    1    2    0    0 -0.15539412312E+03  0.31146895247E+02  0.25505072260E+03  0.32525887180E+03  0.12500000000E+03 0.  0.
         25    1    1    2    0    0 -0.78555181507E+02  0.63711612486E+02  0.15906861210E+03  0.22618114303E+03  0.12500000000E+03 0.  0.
</event>
<event>
 5    0  0.5568866E-005  0.3351784E+03  0.7546771E-02  0.1068868E+00
         21   -1    0    0  502  501  0.00000000000E+00  0.00000000000E+00  0.48795139180E+03  0.48795139180E+03  0.00000000000E+00 0.  1.
         21   -1    0    0  501  502 -0.00000000000E+00 -0.00000000000E+00 -0.23023716218E+03  0.23023716218E+03  0.00000000000E+00 0.  1.
         25    1    1    2    0    0 -0.39297503496E+02 -0.63689307217E+02  0.11536121498E+03  0.18583280538E+03  0.12500000000E+03 0.  0.
         25    1    1    2    0    0  0.74082256558E+02 -0.10814024575E+02 -0.14677031995E+03  0.20681308151E+03  0.12500000000E+03 0.  0.
         25    1    1    2    0    0 -0.34784753061E+02  0.74503331792E+02  0.28912333459E+03  0.32554266709E+03  0.12500000000E+03 0.  0.
</event>
<event>
 5    0  0.5568866E-005  0.4891103E+03  0.7546771E-02  0.1016661E+00
         21   -1    0    0  502  501  0.00000000000E+00  0.00000000000E+00  0.11664727180E+03  0.11664727180E+03  0.00000000000E+00 0. -1.
         21   -1    0    0  501  502 -0.00000000000E+00 -0.00000000000E+00 -0.20508745328E+04  0.20508745328E+04  0.00000000000E+00 0. -1.
         25    1    1    2    0    0  0.21714721807E+03 -0.12021921476E+03 -0.75306210391E+03  0.80270362292E+03  0.12500000000E+03 0.  0.
         25    1    1    2    0    0 -0.29128162669E+03  0.16720801896E+03 -0.11556797735E+04  0.12099686965E+04  0.12500000000E+03 0.  0.
         25    1    1    2    0    0  0.74134408625E+02 -0.46988804199E+02 -0.25485383533E+02  0.15484948510E+03  0.12500000000E+03 0.  0.
</event>
<event>
 5    0  0.5568866E-005  0.3016941E+03  0.7546771E-02  0.1084397E+00
         21   -1    0    0  502  501  0.00000000000E+00  0.00000000000E+00  0.81356335389E+02  0.81356335389E+02  0.00000000000E+00 0.  1.
         21   -1    0    0  501  502 -0.00000000000E+00 -0.00000000000E+00 -0.11187738167E+04  0.11187738167E+04  0.00000000000E+00 0.  1.
         25    1    1    2    0    0 -0.61862107116E+02 -0.12447599487E+02 -0.72194386489E+03  0.73539772034E+03  0.12500000000E+03 0.  0.
         25    1    1    2    0    0 -0.65867673905E+00 -0.96143010764E+02 -0.10371447431E+03  0.18874746238E+03  0.12500000000E+03 0.  0.
         25    1    1    2    0    0  0.62520783855E+02  0.10859061025E+03 -0.21175914211E+03  0.27598496936E+03  0.12500000000E+03 0.  0.
</event>
<event>
 5    0  0.5568866E-005  0.2659529E+03  0.7546771E-02  0.1103618E+00
         21   -1    0    0  502  501  0.00000000000E+00  0.00000000000E+00  0.63238882758E+03  0.63238882758E+03  0.00000000000E+00 0.  1.
         21   -1    0    0  501  502 -0.00000000000E+00 -0.00000000000E+00 -0.11184726164E+03  0.11184726164E+03  0.00000000000E+00 0.  1.
         25    1    1    2    0    0  0.35930428679E+01  0.57849579131E+02  0.28901562775E+02  0.14078275496E+03  0.12500000000E+03 0.  0.
         25    1    1    2    0    0 -0.44477067600E+02  0.73955930531E+02  0.14512443558E+03  0.21008043937E+03  0.12500000000E+03 0.  0.
         25    1    1    2    0    0  0.40884024732E+02 -0.13180550966E+03  0.34651556759E+03  0.39337289489E+03  0.12500000000E+03 0.  0.
</event>
<event>
 5    0  0.5568866E-005  0.2895027E+03  0.7546771E-02  0.1090609E+00
         21   -1    0    0  502  501  0.00000000000E+00  0.00000000000E+00  0.12975833660E+03  0.12975833660E+03  0.00000000000E+00 0.  1.
         21   -1    0    0  501  502 -0.00000000000E+00 -0.00000000000E+00 -0.64590685136E+03  0.64590685136E+03  0.00000000000E+00 0.  1.
         25    1    1    2    0    0 -0.68469675834E+02 -0.41190771660E+01 -0.20074963438E+02  0.14398981722E+03  0.12500000000E+03 0.  0.
         25    1    1    2    0    0  0.89246849434E+02 -0.10214600112E+03 -0.39984570194E+03  0.44034122114E+03  0.12500000000E+03 0.  0.
         25    1    1    2    0    0 -0.20777173600E+02  0.10626507828E+03 -0.96227849387E+02  0.19133414960E+03  0.12500000000E+03 0.  0.
</event>
<event>
 5    0  0.5568866E-005  0.2507196E+03  0.7546771E-02  0.1112851E+00
         21   -1    0    0  502  501  0.00000000000E+00  0.00000000000E+00  0.62251506112E+02  0.62251506112E+02  0.00000000000E+00 0. -1.
         21   -1    0    0  501  502 -0.00000000000E+00 -0.00000000000E+00 -0.10097797523E+04  0.10097797523E+04  0.00000000000E+00 0. -1.
         25    1    1    2    0    0 -0.22789878763E+02 -0.39071852259E+02 -0.23489816211E+03  0.26990393620E+03  0.12500000000E+03 0.  0.
         25    1    1    2    0    0 -0.81224192466E+02  0.45135898001E+02 -0.14926408835E+03  0.21572989316E+03  0.12500000000E+03 0.  0.
         25    1    1    2    0    0  0.10401407123E+03 -0.60640457428E+01 -0.56336599576E+03  0.58639742909E+03  0.12500000000E+03 0.  0.
</event>
<event>
 5    0  0.5568866E-005  0.2696162E+03  0.7546771E-02  0.1101499E+00
         21   -1    0    0  502  501  0.00000000000E+00  0.00000000000E+00  0.11808028974E+03  0.11808028974E+03  0.00000000000E+00 0. -1.
         21   -1    0    0  501  502 -0.00000000000E+00 -0.00000000000E+00 -0.61562280313E+03  0.61562280313E+03  0.00000000000E+00 0. -1.
         25    1    1    2    0    0 -0.41211743541E+02  0.44176770591E+02 -0.76333392268E+02  0.15843541789E+03  0.12500000000E+03 0.  0.
         25    1    1    2    0    0 -0.63253376742E+02  0.28771553405E+02 -0.35867761512E+03  0.38613912460E+03  0.12500000000E+03 0.  0.
         25    1    1    2    0    0  0.10446512028E+03 -0.72948323996E+02 -0.62531506003E+02  0.18912855039E+03  0.12500000000E+03 0.  0.
</event>
<event>
 5    0  0.5568866E-005  0.3100814E+03  0.7546771E-02  0.1080307E+00
         21   -1    0    0  502  501  0.00000000000E+00  0.00000000000E+00  0.38387017221E+03  0.38387017221E+03  0.00000000000E+00 0.  1.
         21   -1    0    0  501  502 -0.00000000000E+00 -0.00000000000E+00 -0.25047659074E+03  0.25047659074E+03  0.00000000000E+00 0.  1.
         25    1    1    2    0    0 -0.14072236895E+02 -0.29399910230E+02 -0.14360864992E+03  0.19316010692E+03  0.12500000000E+03 0.  0.
         25    1    1    2    0    0  0.55699425273E+02  0.80073386669E+02  0.37099013233E+02  0.16283583761E+03  0.12500000000E+03 0.  0.
         25    1    1    2    0    0 -0.41627188379E+02 -0.50673476439E+02  0.23990321816E+03  0.27835081842E+03  0.12500000000E+03 0.  0.
</event>
<event>
 5    0  0.5568866E-005  0.2439098E+03  0.7546771E-02  0.1117215E+00
         21   -1    0    0  502  501  0.00000000000E+00  0.00000000000E+00  0.75923186540E+03  0.75923186540E+03  0.00000000000E+00 0. -1.
         21   -1    0    0  501  502 -0.00000000000E+00 -0.00000000000E+00 -0.78358124459E+02  0.78358124459E+02  0.00000000000E+00 0. -1.
         25    1    1    2    0    0 -0.24384094290E+02 -0.10197644154E+03  0.31077941899E+03  0.35100231616E+03  0.12500000000E+03 0.  0.
         25    1    1    2    0    0 -0.21037307762E+02  0.10573914793E+03  0.28281906072E+03  0.32746748973E+03  0.12500000000E+03 0.  0.
         25    1    1    2    0    0  0.45421402052E+02 -0.37627063940E+01  0.87275261236E+02  0.15912018397E+03  0.12500000000E+03 0.  0.
</event>
<event>
 5    0  0.5568866E-005  0.2523029E+03  0.7546771E-02  0.1111858E+00
         21   -1    0    0  502  501  0.00000000000E+00  0.00000000000E+00  0.11640657209E+04  0.11640657209E+04  0.00000000000E+00 0. -1.
         21   -1    0    0  501  502 -0.00000000000E+00 -0.00000000000E+00 -0.54684833229E+02  0.54684833229E+02  0.00000000000E+00 0. -1.
         25    1    1    2    0    0  0.89617208917E+02 -0.20126866089E+00  0.24400172606E+03  0.28843218780E+03  0.12500000000E+03 0.  0.
         25    1    1    2    0    0 -0.12434857616E+03  0.43767709627E+02  0.31941594445E+03  0.36746391166E+03  0.12500000000E+03 0.  0.
         25    1    1    2    0    0  0.34731367241E+02 -0.43566440966E+02  0.54596321719E+03  0.56285445470E+03  0.12500000000E+03 0.  0.
</event>
<event>
 5    0  0.6522640E-005  0.2935511E+03  0.7546771E-02  0.1088510E+00
         21   -1    0    0  502  501  0.00000000000E+00  0.00000000000E+00  0.16209732678E+03  0.16209732678E+03  0.00000000000E+00 0.  1.
         21   -1    0    0  501  502 -0.00000000000E+00 -0.00000000000E+00 -0.53160816486E+03  0.53160816486E+03  0.00000000000E+00 0.  1.
         25    1    1    2    0    0  0.83682099945E+02 -0.10556625911E+03  0.90601824022E+01  0.18399460812E+03  0.12500000000E+03 0.  0.
         25    1    1    2    0    0 -0.13897938701E+03  0.50811864767E+02 -0.20351843179E+03  0.28096595469E+03  0.12500000000E+03 0.  0.
         25    1    1    2    0    0  0.55297287064E+02  0.54754394338E+02 -0.17505258869E+03  0.22874492883E+03  0.12500000000E+03 0.  0.
</event>
<event>
 5    0  0.5568866E-005  0.4432575E+03  0.7546771E-02  0.1029752E+00
         21   -1    0    0  502  501  0.00000000000E+00  0.00000000000E+00  0.50743186662E+03  0.50743186662E+03  0.00000000000E+00 0. -1.
         21   -1    0    0  501  502 -0.00000000000E+00 -0.00000000000E+00 -0.38719924717E+03  0.38719924717E+03  0.00000000000E+00 0. -1.
         25    1    1    2    0    0 -0.23202159080E+02 -0.23399506664E+01 -0.27217870964E+03  0.30041648680E+03  0.12500000000E+03 0.  0.
         25    1    1    2    0    0 -0.47524252749E+00 -0.19567859176E+02 -0.47962237863E+02  0.13530891777E+03  0.12500000000E+03 0.  0.
         25    1    1    2    0    0  0.23677401608E+02  0.21907809842E+02  0.44037356695E+03  0.45890570922E+03  0.12500000000E+03 0.  0.
</event>
<event>
 5    0  0.5568866E-005  0.2599148E+03  0.7546771E-02  0.1107194E+00
         21   -1    0    0  502  501  0.00000000000E+00  0.00000000000E+00  0.24579902807E+03  0.24579902807E+03  0.00000000000E+00 0. -1.
         21   -1    0    0  501  502 -0.00000000000E+00 -0.00000000000E+00 -0.27484113631E+03  0.27484113631E+03  0.00000000000E+00 0. -1.
         25    1    1    2    0    0 -0.35226948204E+02  0.12364967108E+03  0.40399745715E+02  0.18381327072E+03  0.12500000000E+03 0.  0.
         25    1    1    2    0    0 -0.31621108677E+02 -0.31630804405E+02  0.36095538322E+02  0.13758012279E+03  0.12500000000E+03 0.  0.
         25    1    1    2    0    0  0.66848056880E+02 -0.92018866675E+02 -0.10553739227E+03  0.19924677087E+03  0.12500000000E+03 0.  0.
</event>
<event>
 5    0  0.5568866E-005  0.3864861E+03  0.7546771E-02  0.1048562E+00
         21   -1    0    0  502  501  0.00000000000E+00  0.00000000000E+00  0.93489273885E+03  0.93489273885E+03  0.00000000000E+00 0. -1.
         21   -1    0    0  501  502 -0.00000000000E+00 -0.00000000000E+00 -0.15977395910E+03  0.15977395910E+03  0.00000000000E+00 0. -1.
         25    1    1    2    0    0 -0.15987799382E+03 -0.36165622899E+02  0.66112770180E+02  0.21648284821E+03  0.12500000000E+03 0.  0.
         25    1    1    2    0    0  0.17816234448E+03  0.18800931305E+03  0.56417430695E+03  0.63325111244E+03  0.12500000000E+03 0.  0.
         25    1    1    2    0    0 -0.18284350665E+02 -0.15184369016E+03  0.14483170262E+03  0.24493273731E+03  0.12500000000E+03 0.  0.
</event>
<event>
 5    0  0.5568866E-005  0.3777854E+03  0.7546771E-02  0.1051755E+00
         21   -1    0    0  502  501  0.00000000000E+00  0.00000000000E+00  0.28144952255E+03  0.28144952255E+03  0.00000000000E+00 0.  1.
         21   -1    0    0  501  502 -0.00000000000E+00 -0.00000000000E+00 -0.50709564896E+03  0.50709564896E+03  0.00000000000E+00 0.  1.
         25    1    1    2    0    0  0.11294200723E+03  0.22401039506E+03 -0.18404251520E+03  0.33531060451E+03  0.12500000000E+03 0.  0.
         25    1    1    2    0    0 -0.10480213831E+03 -0.22142619543E+03 -0.12564730101E+03  0.30236615629E+03  0.12500000000E+03 0.  0.
         25    1    1    2    0    0 -0.81398689234E+01 -0.25841996252E+01  0.84043689800E+02  0.15086841071E+03  0.12500000000E+03 0.  0.
</event>
<event>
 5    0  0.5568866E-005  0.2641242E+03  0.7546771E-02  0.1104690E+00
         21   -1    0    0  502  501  0.00000000000E+00  0.00000000000E+00  0.12856131363E+04  0.12856131363E+04  0.00000000000E+00 0.  1.
         21   -1    0    0  501  502 -0.00000000000E+00 -0.00000000000E+00 -0.54263302282E+02  0.54263302282E+02  0.00000000000E+00 0.  1.
         25    1    1    2    0    0 -0.41853801192E+02 -0.11482259255E+02  0.90166360396E+02  0.16012044060E+03  0.12500000000E+03 0.  0.
         25    1    1    2    0    0 -0.52146893456E+01 -0.63247369191E+02  0.42943586773E+03  0.45173840570E+03  0.12500000000E+03 0.  0.
         25    1    1    2    0    0  0.47068490537E+02  0.74729628446E+02  0.71174760591E+03  0.72801759230E+03  0.12500000000E+03 0.  0.
</event>
<event>
 5    0  0.5568866E-005  0.2873262E+03  0.7546771E-02  0.1091753E+00
         21   -1    0    0  502  501  0.00000000000E+00  0.00000000000E+00  0.73571476980E+02  0.73571476980E+02  0.00000000000E+00 0. -1.
         21   -1    0    0  501  502 -0.00000000000E+00 -0.00000000000E+00 -0.11221240220E+04  0.11221240220E+04  0.00000000000E+00 0. -1.
         25    1    1    2    0    0  0.44579303666E+02 -0.11081969024E+03 -0.48816005247E+03  0.51787407242E+03  0.12500000000E+03 0.  0.
         25    1    1    2    0    0 -0.14137569603E+03  0.51673015847E+02 -0.39847469676E+03  0.44391921782E+03  0.12500000000E+03 0.  0.
         25    1    1    2    0    0  0.96796392361E+02  0.59146674390E+02 -0.16191779584E+03  0.23390220879E+03  0.12500000000E+03 0.  0.
</event>
<event>
 5    0  0.5568866E-005  0.2580963E+03  0.7546771E-02  0.1108292E+00
         21   -1    0    0  502  501  0.00000000000E+00  0.00000000000E+00  0.46281941966E+02  0.46281941966E+02  0.00000000000E+00 0.  1.
         21   -1    0    0  501  502 -0.00000000000E+00 -0.00000000000E+00 -0.14393022893E+04  0.14393022893E+04  0.00000000000E+00 0.  1.
         25    1    1    2    0    0 -0.49562966594E+02  0.96849713865E+02 -0.77464373809E+03  0.79217061022E+03  0.12500000000E+03 0.  0.
         25    1    1    2    0    0  0.23596020380E+02  0.23132139424E+02 -0.18262817178E+03  0.22376308270E+03  0.12500000000E+03 0.  0.
         25    1    1    2    0    0  0.25966946214E+02 -0.11998185329E+03 -0.43574843744E+03  0.46965053832E+03  0.12500000000E+03 0.  0.
</event>
<event>
 5    0  0.5568866E-005  0.3159337E+03  0.7546771E-02  0.1077536E+00
         21   -1    0    0  502  501  0.00000000000E+00  0.00000000000E+00  0.51152885769E+03  0.51152885769E+03  0.00000000000E+00 0.  1.
         21   -1    0    0  501  502 -0.00000000000E+00 -0.00000000000E+00 -0.19512897696E+03  0.19512897696E+03  0.00000000000E+00 0.  1.
         25    1    1    2    0    0 -0.10677430910E+03  0.10916272298E+03  0.14319639702E+03  0.24381850072E+03  0.12500000000E+03 0.  0.
         25    1    1    2    0    0 -0.46878698616E+02  0.69126495805E+02  0.11694967276E+03  0.19046866085E+03  0.12500000000E+03 0.  0.
         25    1    1    2    0    0  0.15365300772E+03 -0.17828921878E+03  0.56253810944E+02  0.27237067309E+03  0.12500000000E+03 0.  0.
</event>
<event>
 5    0  0.5568866E-005  0.3689243E+03  0.7546771E-02  0.1055105E+00
         21   -1    0    0  502  501  0.00000000000E+00  0.00000000000E+00  0.72181262847E+03  0.72181262847E+03  0.00000000000E+00 0.  1.
         21   -1    0    0  501  502 -0.00000000000E+00 -0.00000000000E+00 -0.18856024817E+03  0.18856024817E+03  0.00000000000E+00 0.  1.
         25    1    1    2    0    0 -0.22771273751E+03 -0.10308673047E+03  0.39114302060E+03  0.48072635395E+03  0.12500000000E+03 0.  0.
         25    1    1    2    0    0  0.23137076469E+03  0.75387990930E+02  0.12373187449E+03  0.30025048991E+03  0.12500000000E+03 0.  0.
         25    1    1    2    0    0 -0.36580271848E+01  0.27698739540E+02  0.18377485214E+02  0.12939603277E+03  0.12500000000E+03 0.  0.
</event>
<event>
 5    0  0.5568866E-005  0.3454518E+03  0.7546771E-02  0.1064497E+00
         21   -1    0    0  502  501  0.00000000000E+00  0.00000000000E+00  0.11543383403E+03  0.11543383403E+03  0.00000000000E+00 0.  1.
         21   -1    0    0  501  502 -0.00000000000E+00 -0.00000000000E+00 -0.10338124776E+04  0.10338124776E+04  0.00000000000E+00 0.  1.
         25    1    1    2    0    0 -0.32427224984E+02  0.16236288499E+03 -0.34044181558E+03  0.39867136985E+03  0.12500000000E+03 0.  0.
         25    1    1    2    0    0 -0.13685875044E+03  0.36703494053E+02 -0.21561020218E+03  0.28668837321E+03  0.12500000000E+03 0.  0.
         25    1    1    2    0    0  0.16928597543E+03 -0.19906637904E+03 -0.36232662582E+03  0.46388656859E+03  0.12500000000E+03 0.  0.
</event>
<event>
 5    0  0.5568866E-005  0.3782836E+03  0.7546771E-02  0.1051570E+00
         21   -1    0    0  502  501  0.00000000000E+00  0.00000000000E+00  0.20398128759E+04  0.20398128759E+04  0.00000000000E+00 0.  1.
         21   -1    0    0  501  502 -0.00000000000E+00 -0.00000000000E+00 -0.70152747246E+02  0.70152747246E+02  0.00000000000E+00 0.  1.
         25    1    1    2    0    0  0.50634281067E+02 -0.22253002090E+03  0.48641373131E+03  0.55164006257E+03  0.12500000000E+03 0.  0.
         25    1    1    2    0    0  0.11148561025E+03  0.12499425939E+03  0.10360850338E+04  0.10569530753E+04  0.12500000000E+03 0.  0.
         25    1    1    2    0    0 -0.16211989131E+03  0.97535761501E+02  0.44716136357E+03  0.50137248528E+03  0.12500000000E+03 0.  0.
</event>
<event>
 5    0  0.5568866E-005  0.3692892E+03  0.7546771E-02  0.1054965E+00
         21   -1    0    0  502  501  0.00000000000E+00  0.00000000000E+00  0.95028630593E+02  0.95028630593E+02  0.00000000000E+00 0.  1.
         21   -1    0    0  501  502 -0.00000000000E+00 -0.00000000000E+00 -0.14350890043E+04  0.14350890043E+04  0.00000000000E+00 0.  1.
         25    1    1    2    0    0 -0.59873206956E+02  0.98456411515E+02 -0.48194550752E+03  0.51105277428E+03  0.12500000000E+03 0.  0.
         25    1    1    2    0    0  0.17086506800E+03  0.13291337211E+03 -0.51713156004E+03  0.57437869593E+03  0.12500000000E+03 0.  0.
         25    1    1    2    0    0 -0.11099186104E+03 -0.23136978362E+03 -0.34098330615E+03  0.44468616469E+03  0.12500000000E+03 0.  0.
</event>
<event>
 5    0  0.5568866E-005  0.2513822E+03  0.7546771E-02  0.1112434E+00
         21   -1    0    0  502  501  0.00000000000E+00  0.00000000000E+00  0.47463360561E+02  0.47463360561E+02  0.00000000000E+00 0.  1.
         21   -1    0    0  501  502 -0.00000000000E+00 -0.00000000000E+00 -0.13314065955E+04  0.13314065955E+04  0.00000000000E+00 0.  1.
         25    1    1    2    0    0  0.13851106513E+03  0.46918674895E+01 -0.42229314173E+03  0.46169668219E+03  0.12500000000E+03 0.  0.
         25    1    1    2    0    0 -0.10443469085E+03 -0.21625122172E+02 -0.63141612503E+03  0.65244583952E+03  0.12500000000E+03 0.  0.
         25    1    1    2    0    0 -0.34076374280E+02  0.16933254683E+02 -0.23023396817E+03  0.26472743435E+03  0.12500000000E+03 0.  0.
</event>
<event>
 5    0  0.5568866E-005  0.2498894E+03  0.7546771E-02  0.1113375E+00
         21   -1    0    0  502  501  0.00000000000E+00  0.00000000000E+00  0.18863641110E+03  0.18863641110E+03  0.00000000000E+00 0.  1.
         21   -1    0    0  501  502 -0.00000000000E+00 -0.00000000000E+00 -0.33103224102E+03  0.33103224102E+03  0.00000000000E+00 0.  1.
         25    1    1    2    0    0 -0.30240260305E+02  0.47329299857E+01 -0.24214530667E+02  0.13095120261E+03  0.12500000000E+03 0.  0.
         25    1    1    2    0    0  0.81182954719E+02 -0.83892886392E+02  0.29487605417E+02  0.17356038545E+03  0.12500000000E+03 0.  0.
         25    1    1    2    0    0 -0.50942694414E+02  0.79159956406E+02 -0.14766890467E+03  0.21515706407E+03  0.12500000000E+03 0.  0.
</event>
<event>
 5    0  0.5568866E-005  0.2767176E+03  0.7546771E-02  0.1097495E+00
         21   -1    0    0  502  501  0.00000000000E+00  0.00000000000E+00  0.84384943837E+03  0.84384943837E+03  0.00000000000E+00 0. -1.
         21   -1    0    0  501  502 -0.00000000000E+00 -0.00000000000E+00 -0.90742067554E+02  0.90742067554E+02  0.00000000000E+00 0. -1.
         25    1    1    2    0    0 -0.61594991369E+02 -0.80174858277E+02  0.13986307673E+03  0.21309301043E+03  0.12500000000E+03 0.  0.
         25    1    1    2    0    0  0.98471396971E+02  0.61674433631E+02  0.54921445553E+03  0.57511900503E+03  0.12500000000E+03 0.  0.
         25    1    1    2    0    0 -0.36876405603E+02  0.18500424646E+02  0.64029838551E+02  0.14637949046E+03  0.12500000000E+03 0.  0.
</event>
<event>
 5    0  0.5568866E-005  0.7924017E+03  0.7546771E-02  0.9571081E-01
         21   -1    0    0  502  501  0.00000000000E+00  0.00000000000E+00  0.18193355893E+04  0.18193355893E+04  0.00000000000E+00 0.  1.
         21   -1    0    0  501  502 -0.00000000000E+00 -0.00000000000E+00 -0.34512623519E+03  0.34512623519E+03  0.00000000000E+00 0.  1.
         25    1    1    2    0    0 -0.42244870287E+03 -0.90419649806E+02  0.11566826421E+04  0.12410392235E+04  0.12500000000E+03 0.  0.
         25    1    1    2    0    0  0.27203136193E+02 -0.23962883939E+03  0.28322162920E+03  0.39243022632E+03  0.12500000000E+03 0.  0.
         25    1    1    2    0    0  0.39524556668E+03  0.33004848920E+03  0.34305082727E+02  0.53099237462E+03  0.12500000000E+03 0.  0.
</event>
<event>
 5    0  0.5568866E-005  0.3137697E+03  0.7546771E-02  0.1078553E+00
         21   -1    0    0  502  501  0.00000000000E+00  0.00000000000E+00  0.43311517118E+03  0.43311517118E+03  0.00000000000E+00 0.  1.
         21   -1    0    0  501  502 -0.00000000000E+00 -0.00000000000E+00 -0.22731000347E+03  0.22731000347E+03  0.00000000000E+00 0.  1.
         25    1    1    2    0    0  0.37066410060E+01  0.10563898089E+03  0.12315439247E+03  0.20485443089E+03  0.12500000000E+03 0.  0.
         25    1    1    2    0    0  0.46244337395E+02  0.11472218070E+03 -0.21441864940E+02  0.17715662860E+03  0.12500000000E+03 0.  0.
         25    1    1    2    0    0 -0.49950978401E+02 -0.22036116159E+03  0.10409264018E+03  0.27841411516E+03  0.12500000000E+03 0.  0.
</event>
<event>
 5    0  0.5568866E-005  0.6130250E+03  0.7546771E-02  0.9878746E-01
         21   -1    0    0  502  501  0.00000000000E+00  0.00000000000E+00  0.88912395015E+03  0.88912395015E+03  0.00000000000E+00 0.  1.
         21   -1    0    0  501  502 -0.00000000000E+00 -0.00000000000E+00 -0.42266278697E+03  0.42266278697E+03  0.00000000000E+00 0.  1.
         25    1    1    2    0    0 -0.12786498561E+03  0.12337323896E+03  0.80082433304E+02  0.23153532508E+03  0.12500000000E+03 0.  0.
         25    1    1    2    0    0  0.50657530325E+03 -0.43977036308E+01  0.40971531142E+03  0.66342257579E+03  0.12500000000E+03 0.  0.
         25    1    1    2    0    0 -0.37871031764E+03 -0.11897553533E+03 -0.23336581551E+02  0.41682883625E+03  0.12500000000E+03 0.  0.
</event>
<event>
 5    0  0.5568866E-005  0.2450970E+03  0.7546771E-02  0.1116443E+00
         21   -1    0    0  502  501  0.00000000000E+00  0.00000000000E+00  0.16793981595E+03  0.16793981595E+03  0.00000000000E+00 0. -1.
         21   -1    0    0  501  502 -0.00000000000E+00 -0.00000000000E+00 -0.35770266984E+03  0.35770266984E+03  0.00000000000E+00 0. -1.
         25    1    1    2    0    0  0.42910691990E+02  0.71305711866E+01  0.30623665674E+02  0.13584911274E+03  0.12500000000E+03 0.  0.
         25    1    1    2    0    0 -0.96137912407E+02  0.16092224955E+02 -0.41294957181E+02  0.16380394194E+03  0.12500000000E+03 0.  0.
         25    1    1    2    0    0  0.53227220417E+02 -0.23222796141E+02 -0.17909156238E+03  0.22598943110E+03  0.12500000000E+03 0.  0.
</event>
<event>
 5    0  0.5568866E-005  0.2809776E+03  0.7546771E-02  0.1095156E+00
         21   -1    0    0  502  501  0.00000000000E+00  0.00000000000E+00  0.15940993831E+03  0.15940993831E+03  0.00000000000E+00 0. -1.
         21   -1    0    0  501  502 -0.00000000000E+00 -0.00000000000E+00 -0.49525387087E+03  0.49525387087E+03  0.00000000000E+00 0. -1.
         25    1    1    2    0    0  0.17701638845E+03 -0.86060995229E+02 -0.13389655880E+03  0.26887652396E+03  0.12500000000E+03 0.  0.
         25    1    1    2    0    0 -0.82129797762E+02  0.61836298956E+02 -0.59412337723E+02  0.17240608291E+03  0.12500000000E+03 0.  0.
         25    1    1    2    0    0 -0.94886590686E+02  0.24224696273E+02 -0.14253503603E+03  0.21338120231E+03  0.12500000000E+03 0.  0.
</event>
<event>
 5    0  0.5568866E-005  0.3894457E+03  0.7546771E-02  0.1047497E+00
         21   -1    0    0  502  501  0.00000000000E+00  0.00000000000E+00  0.24753480143E+03  0.24753480143E+03  0.00000000000E+00 0.  1.
         21   -1    0    0  501  502 -0.00000000000E+00 -0.00000000000E+00 -0.61271369425E+03  0.61271369425E+03  0.00000000000E+00 0.  1.
         25    1    1    2    0    0  0.21422263781E+03 -0.13273204925E+03 -0.10679455406E+03  0.30089734500E+03  0.12500000000E+03 0.  0.
         25    1    1    2    0    0  0.54743650986E+02  0.82118391282E+02 -0.19516105339E+03  0.25189905572E+03  0.12500000000E+03 0.  0.
         25    1    1    2    0    0 -0.26896628880E+03  0.50613657970E+02 -0.63223285367E+02  0.30745209496E+03  0.12500000000E+03 0.  0.
</event>
<event>
 5    0  0.5568866E-005  0.3159559E+03  0.7546771E-02  0.1077526E+00
         21   -1    0    0  502  501  0.00000000000E+00  0.00000000000E+00  0.33480355714E+04  0.33480355714E+04  0.00000000000E+00 0.  1.
         21   -1    0    0  501  502 -0.00000000000E+00 -0.00000000000E+00 -0.29816930356E+02  0.29816930356E+02  0.00000000000E+00 0.  1.
         25    1    1    2    0    0  0.87342209225E+02  0.11521556580E+03  0.79681795587E+03  0.81941878360E+03  0.12500000000E+03 0.  0.
         25    1    1    2    0    0 -0.80415005933E+02 -0.15856341130E+03  0.22012600660E+04  0.22119628855E+04  0.12500000000E+03 0.  0.
         25    1    1    2    0    0 -0.69272032915E+01  0.43347845500E+02  0.32014061925E+03  0.34647083275E+03  0.12500000000E+03 0.  0.
</event>
<event>
 5    0  0.5568866E-005  0.2468153E+03  0.7546771E-02  0.1115334E+00
         21   -1    0    0  502  501  0.00000000000E+00  0.00000000000E+00  0.20894867312E+03  0.20894867312E+03  0.00000000000E+00 0. -1.
         21   -1    0    0  501  502 -0.00000000000E+00 -0.00000000000E+00 -0.29154438612E+03  0.29154438612E+03  0.00000000000E+00 0. -1.
         25    1    1    2    0    0  0.70692070911E+02 -0.57818085768E+02 -0.28132778622E+02  0.15734278873E+03  0.12500000000E+03 0.  0.
         25    1    1    2    0    0 -0.11285829629E+03  0.48804023082E+02 -0.10174710027E+03  0.20272222405E+03  0.12500000000E+03 0.  0.
         25    1    1    2    0    0  0.42166225384E+02  0.90140626861E+01  0.47284165890E+02  0.14042804646E+03  0.12500000000E+03 0.  0.
</event>
<event>
 5    0  0.5568866E-005  0.3918197E+03  0.7546771E-02  0.1046650E+00
         21   -1    0    0  502  501  0.00000000000E+00  0.00000000000E+00  0.54838126702E+02  0.54838126702E+02  0.00000000000E+00 0.  1.
         21   -1    0    0  501  502 -0.00000000000E+00 -0.00000000000E+00 -0.27995610620E+04  0.27995610620E+04  0.00000000000E+00 0.  1.
         25    1    1    2    0    0 -0.79702917524E+02  0.20344150639E+03 -0.42668146062E+03  0.49540192816E+03  0.12500000000E+03 0.  0.
         25    1    1    2    0    0  0.10826896760E+03 -0.20546546710E+02 -0.49442139245E+03  0.52174883156E+03  0.12500000000E+03 0.  0.
         25    1    1    2    0    0 -0.28566050073E+02 -0.18289495968E+03 -0.18236200822E+04  0.18372484290E+04  0.12500000000E+03 0.  0.
</event>
<event>
 5    0  0.5568866E-005  0.2046015E+03  0.7546771E-02  0.1145914E+00
         21   -1    0    0  502  501  0.00000000000E+00  0.00000000000E+00  0.11110728712E+04  0.11110728712E+04  0.00000000000E+00 0.  1.
         21   -1    0    0  501  502 -0.00000000000E+00 -0.00000000000E+00 -0.37676875013E+02  0.37676875013E+02  0.00000000000E+00 0.  1.
         25    1    1    2    0    0 -0.14844847401E+01 -0.13454581160E+02  0.22732160522E+03  0.25977556014E+03  0.12500000000E+03 0.  0.
         25    1    1    2    0    0 -0.14392201346E+02 -0.15546143713E+02  0.26606601727E+03  0.29472859310E+03  0.12500000000E+03 0.  0.
         25    1    1    2    0    0  0.15876686086E+02  0.29000724873E+02  0.58000837369E+03  0.59424559297E+03  0.12500000000E+03 0.  0.
</event>
<event>
 5    0  0.5568866E-005  0.4413608E+03  0.7546771E-02  0.1030330E+00
         21   -1    0    0  502  501  0.00000000000E+00  0.00000000000E+00  0.28549715195E+03  0.28549715195E+03  0.00000000000E+00 0. -1.
         21   -1    0    0  501  502 -0.00000000000E+00 -0.00000000000E+00 -0.68231623954E+03  0.68231623954E+03  0.00000000000E+00 0. -1.
         25    1    1    2    0    0  0.15611437017E+02 -0.27756588763E+01 -0.89576458423E+02  0.15459742285E+03  0.12500000000E+03 0.  0.
         25    1    1    2    0    0 -0.93428682074E+02  0.26663838346E+03  0.82770973923E+02  0.31984524429E+03  0.12500000000E+03 0.  0.
         25    1    1    2    0    0  0.77817245057E+02 -0.26386272459E+03 -0.39001360309E+03  0.49337072435E+03  0.12500000000E+03 0.  0.
</event>
<event>
 5    0  0.5568866E-005  0.4456848E+03  0.7546771E-02  0.1029017E+00
         21   -1    0    0  502  501  0.00000000000E+00  0.00000000000E+00  0.22625487595E+03  0.22625487595E+03  0.00000000000E+00 0. -1.
         21   -1    0    0  501  502 -0.00000000000E+00 -0.00000000000E+00 -0.87792546363E+03  0.87792546363E+03  0.00000000000E+00 0. -1.
         25    1    1    2    0    0 -0.65821803886E+02  0.16931141199E+03 -0.61883740465E+02  0.22902720675E+03  0.12500000000E+03 0.  0.
         25    1    1    2    0    0  0.24130247604E+03  0.79675292705E+02 -0.41487715451E+03  0.50231771872E+03  0.12500000000E+03 0.  0.
         25    1    1    2    0    0 -0.17548067215E+03 -0.24898670470E+03 -0.17490969270E+03  0.37283541411E+03  0.12500000000E+03 0.  0.
</event>
<event>
 5    0  0.5568866E-005  0.5118009E+03  0.7546771E-02  0.1010744E+00
         21   -1    0    0  502  501  0.00000000000E+00  0.00000000000E+00  0.84839948959E+03  0.84839948959E+03  0.00000000000E+00 0. -1.
         21   -1    0    0  501  502 -0.00000000000E+00 -0.00000000000E+00 -0.30874627328E+03  0.30874627328E+03  0.00000000000E+00 0. -1.
         25    1    1    2    0    0  0.30997599603E+02 -0.19755417922E+03 -0.60495416373E+02  0.24346088045E+03  0.12500000000E+03 0.  0.
         25    1    1    2    0    0 -0.12653306162E+02  0.31059477092E+03  0.65482246899E+03  0.73555875617E+03  0.12500000000E+03 0.  0.
         25    1    1    2    0    0 -0.18344293441E+02 -0.11304059170E+03 -0.54673836307E+02  0.17812612624E+03  0.12500000000E+03 0.  0.
</event>
<event>
 5    0  0.5568866E-005  0.3764796E+03  0.7546771E-02  0.1052243E+00
         21   -1    0    0  502  501  0.00000000000E+00  0.00000000000E+00  0.46247863320E+03  0.46247863320E+03  0.00000000000E+00 0. -1.
         21   -1    0    0  501  502 -0.00000000000E+00 -0.00000000000E+00 -0.30647230765E+03  0.30647230765E+03  0.00000000000E+00 0. -1.
         25    1    1    2    0    0  0.87054881879E+02 -0.13518650431E+03  0.78090184423E+02  0.21812157232E+03  0.12500000000E+03 0.  0.
         25    1    1    2    0    0 -0.20269034923E+02  0.17445151571E+03 -0.16184447454E+03  0.26956038108E+03  0.12500000000E+03 0.  0.
         25    1    1    2    0    0 -0.66785846955E+02 -0.39265011396E+02  0.23976061567E+03  0.28126898745E+03  0.12500000000E+03 0.  0.
</event>
<event>
 5    0  0.5568866E-005  0.3596983E+03  0.7546771E-02  0.1058703E+00
         21   -1    0    0  502  501  0.00000000000E+00  0.00000000000E+00  0.85031334956E+03  0.85031334956E+03  0.00000000000E+00 0.  1.
         21   -1    0    0  501  502 -0.00000000000E+00 -0.00000000000E+00 -0.15215904264E+03  0.15215904264E+03  0.00000000000E+00 0.  1.
         25    1    1    2    0    0  0.21507605529E+03  0.58818918548E+02  0.45569207671E+03  0.52249176406E+03  0.12500000000E+03 0.  0.
         25    1    1    2    0    0 -0.24384013595E+03 -0.37695885121E+01  0.17292658371E+03  0.32403830800E+03  0.12500000000E+03 0.  0.
         25    1    1    2    0    0  0.28764080663E+02 -0.55049330036E+02  0.69535646513E+02  0.15594232014E+03  0.12500000000E+03 0.  0.
</event>
<event>
 5    0  0.5568866E-005  0.3006730E+03  0.7546771E-02  0.1084905E+00
         21   -1    0    0  502  501  0.00000000000E+00  0.00000000000E+00  0.13609016485E+04  0.13609016485E+04  0.00000000000E+00 0. -1.
         21   -1    0    0  501  502 -0.00000000000E+00 -0.00000000000E+00 -0.66429659077E+02  0.66429659077E+02  0.00000000000E+00 0. -1.
         25    1    1    2    0    0 -0.14781266675E+03 -0.13746380308E+03  0.51452081387E+03  0.56665822990E+03  0.12500000000E+03 0.  0.
         25    1    1    2    0    0  0.12132606203E+03  0.40237978939E+02  0.25293891750E+03  0.30974538618E+03  0.12500000000E+03 0.  0.
         25    1    1    2    0    0  0.26486604717E+02  0.97225824143E+02  0.52701225803E+03  0.55092769147E+03  0.12500000000E+03 0.  0.
</event>
<event>
 5    0  0.5568866E-005  0.2495315E+03  0.7546771E-02  0.1113601E+00
         21   -1    0    0  502  501  0.00000000000E+00  0.00000000000E+00  0.22064067160E+03  0.22064067160E+03  0.00000000000E+00 0.  1.
         21   -1    0    0  501  502 -0.00000000000E+00 -0.00000000000E+00 -0.28220537288E+03  0.28220537288E+03  0.00000000000E+00 0.  1.
         25    1    1    2    0    0 -0.55694475635E+02  0.64263045543E+02 -0.11782700192E+03  0.19167633140E+03  0.12500000000E+03 0.  0.
         25    1    1    2    0    0  0.73036861138E+02 -0.92106269178E+02  0.36223096059E+01  0.17162770474E+03  0.12500000000E+03 0.  0.
         25    1    1    2    0    0 -0.17342385503E+02  0.27843223635E+02  0.52639991034E+02  0.13954200835E+03  0.12500000000E+03 0.  0.
</event>
<event>
 5    0  0.5568866E-005  0.3681837E+03  0.7546771E-02  0.1055390E+00
         21   -1    0    0  502  501  0.00000000000E+00  0.00000000000E+00  0.53322449838E+02  0.53322449838E+02  0.00000000000E+00 0. -1.
         21   -1    0    0  501  502 -0.00000000000E+00 -0.00000000000E+00 -0.25422544873E+04  0.25422544873E+04  0.00000000000E+00 0. -1.
         25    1    1    2    0    0  0.45081591368E+02 -0.25681748281E+03 -0.75040977867E+03  0.80419363668E+03  0.12500000000E+03 0.  0.
         25    1    1    2    0    0  0.89128429009E+02  0.11073627444E+03 -0.60730624591E+03  0.63612284635E+03  0.12500000000E+03 0.  0.
         25    1    1    2    0    0 -0.13421002038E+03  0.14608120837E+03 -0.11312160129E+04  0.11552604541E+04  0.12500000000E+03 0.  0.
</event>
<event>
 5    0  0.5568866E-005  0.4267528E+03  0.7546771E-02  0.1034891E+00
         21   -1    0    0  502  501  0.00000000000E+00  0.00000000000E+00  0.13665075171E+03  0.13665075171E+03  0.00000000000E+00 0.  1.
         21   -1    0    0  501  502 -0.00000000000E+00 -0.00000000000E+00 -0.13327253088E+04  0.13327253088E+04  0.00000000000E+00 0.  1.
         25    1    1    2    0    0  0.24470237987E+03 -0.12484855885E+03 -0.77701505180E+03  0.83357291708E+03  0.12500000000E+03 0.  0.
         25    1    1    2    0    0 -0.77737818670E+02  0.15972135329E+03 -0.70958928531E+02  0.22850437345E+03  0.12500000000E+03 0.  0.
         25    1    1    2    0    0 -0.16696456120E+03 -0.34872794444E+02 -0.34810057675E+03  0.40729876998E+03  0.12500000000E+03 0.  0.
</event>
<event>
 5    0  0.6083151E-005  0.3224184E+03  0.7546771E-02  0.1074542E+00
         21   -1    0    0  502  501  0.00000000000E+00  0.00000000000E+00  0.41096043782E+03  0.41096043782E+03  0.00000000000E+00 0. -1.
         21   -1    0    0  501  502 -0.00000000000E+00 -0.00000000000E+00 -0.25295281408E+03  0.25295281408E+03  0.00000000000E+00 0. -1.
         25    1    1    2    0    0  0.15043110352E+03 -0.52395782347E+02  0.98135896913E+02  0.22501219784E+03  0.12500000000E+03 0.  0.
         25    1    1    2    0    0 -0.19074710046E+03 -0.30123623904E+02  0.13481722414E+03  0.26663190539E+03  0.12500000000E+03 0.  0.
         25    1    1    2    0    0  0.40315996934E+02  0.82519406251E+02 -0.74945497311E+02  0.17226914867E+03  0.12500000000E+03 0.  0.
</event>
<event>
 5    0  0.5568866E-005  0.2611413E+03  0.7546771E-02  0.1106459E+00
         21   -1    0    0  502  501  0.00000000000E+00  0.00000000000E+00  0.16299349321E+03  0.16299349321E+03  0.00000000000E+00 0.  1.
         21   -1    0    0  501  502 -0.00000000000E+00 -0.00000000000E+00 -0.41838944728E+03  0.41838944728E+03  0.00000000000E+00 0.  1.
         25    1    1    2    0    0 -0.85166932746E+02 -0.52413409801E+02 -0.12202363903E+03  0.20128422800E+03  0.12500000000E+03 0.  0.
         25    1    1    2    0    0  0.93111099514E+02  0.19302361383E+02 -0.18318596186E+03  0.24129723295E+03  0.12500000000E+03 0.  0.
         25    1    1    2    0    0 -0.79441667677E+01  0.33111048417E+02  0.49813646818E+02  0.13880147954E+03  0.12500000000E+03 0.  0.
</event>
<event>
 5    0  0.5568866E-005  0.2998041E+03  0.7546771E-02  0.1085339E+00
         21   -1    0    0  502  501  0.00000000000E+00  0.00000000000E+00  0.33175220422E+03  0.33175220422E+03  0.00000000000E+00 0. -1.
         21   -1    0    0  501  502 -0.00000000000E+00 -0.00000000000E+00 -0.27093258359E+03  0.27093258359E+03  0.00000000000E+00 0. -1.
         25    1    1    2    0    0 -0.18255448205E+02 -0.13097613902E+02  0.10475621141E+03  0.16463193101E+03  0.12500000000E+03 0.  0.
         25    1    1    2    0    0  0.69183379181E+02 -0.16007810452E+03 -0.41148166338E+02  0.21847084725E+03  0.12500000000E+03 0.  0.
         25    1    1    2    0    0 -0.50927930976E+02  0.17317571843E+03 -0.27884244475E+01  0.21958200955E+03  0.12500000000E+03 0.  0.
</event>
<event>
 5    0  0.5568866E-005  0.3202889E+03  0.7546771E-02  0.1075516E+00
         21   -1    0    0  502  501  0.00000000000E+00  0.00000000000E+00  0.31674161217E+03  0.31674161217E+03  0.00000000000E+00 0.  1.
         21   -1    0    0  501  502 -0.00000000000E+00 -0.00000000000E+00 -0.32387583640E+03  0.32387583640E+03  0.00000000000E+00 0.  1.
         25    1    1    2    0    0  0.78354482818E+02 -0.10105221682E+03 -0.24605701967E+02  0.18050323009E+03  0.12500000000E+03 0.  0.
         25    1    1    2    0    0  0.32638920202E+02  0.12720971168E+03 -0.13992611914E+03  0.22902386049E+03  0.12500000000E+03 0.  0.
         25    1    1    2    0    0 -0.11099340302E+03 -0.26157494854E+02  0.15739759688E+03  0.23109035799E+03  0.12500000000E+03 0.  0.
</event>
<event>
 5    0  0.5568866E-005  0.4372448E+03  0.7546771E-02  0.1031596E+00
         21   -1    0    0  502  501  0.00000000000E+00  0.00000000000E+00  0.57847671820E+03  0.57847671820E+03  0.00000000000E+00 0.  1.
         21   -1    0    0  501  502 -0.00000000000E+00 -0.00000000000E+00 -0.33049383822E+03  0.33049383822E+03  0.00000000000E+00 0.  1.
         25    1    1    2    0    0 -0.20636555524E+03  0.98059437176E+01  0.16383822096E+03  0.29180620550E+03  0.12500000000E+03 0.  0.
         25    1    1    2    0    0  0.30104242127E+03  0.15849461933E+03  0.12526392721E+03  0.38348811614E+03  0.12500000000E+03 0.  0.
         25    1    1    2    0    0 -0.94676866031E+02 -0.16830056304E+03 -0.41119268195E+02  0.23367623478E+03  0.12500000000E+03 0.  0.
</event>
<event>
 5    0  0.5568866E-005  0.2697359E+03  0.7546771E-02  0.1101431E+00
         21   -1    0    0  502  501  0.00000000000E+00  0.00000000000E+00  0.12359246884E+03  0.12359246884E+03  0.00000000000E+00 0.  1.
         21   -1    0    0  501  502 -0.00000000000E+00 -0.00000000000E+00 -0.58868860542E+03  0.58868860542E+03  0.00000000000E+00 0.  1.
         25    1    1    2    0    0  0.28601475873E+02 -0.14374799767E+03 -0.22280895908E+03  0.29453414658E+03  0.12500000000E+03 0.  0.
         25    1    1    2    0    0 -0.39126454326E+02  0.14202658727E+03 -0.21557159642E+03  0.28947978186E+03  0.12500000000E+03 0.  0.
         25    1    1    2    0    0  0.10524978454E+02  0.17214103980E+01 -0.26715581085E+02  0.12826714582E+03  0.12500000000E+03 0.  0.
</event>
<event>
 5    0  0.5568866E-005  0.3033109E+03  0.7546771E-02  0.1083597E+00
         21   -1    0    0  502  501  0.00000000000E+00  0.00000000000E+00  0.95072449815E+02  0.95072449815E+02  0.00000000000E+00 0.  1.
         21   -1    0    0  501  502 -0.00000000000E+00 -0.00000000000E+00 -0.96765697549E+03  0.96765697549E+03  0.00000000000E+00 0.  1.
         25    1    1    2    0    0  0.10099012135E+03  0.10700490950E+03 -0.10815724925E+03  0.22129628518E+03  0.12500000000E+03 0.  0.
         25    1    1    2    0    0 -0.99598490735E+02 -0.18855602301E+02 -0.20034548360E+03  0.25697997177E+03  0.12500000000E+03 0.  0.
         25    1    1    2    0    0 -0.13916306183E+01 -0.88149307199E+02 -0.56408179283E+03  0.58445316835E+03  0.12500000000E+03 0.  0.
</event>
<event>
 5    0  0.5568866E-005  0.2226913E+03  0.7546771E-02  0.1131892E+00
         21   -1    0    0  502  501  0.00000000000E+00  0.00000000000E+00  0.66451611340E+02  0.66451611340E+02  0.00000000000E+00 0. -1.
         21   -1    0    0  501  502 -0.00000000000E+00 -0.00000000000E+00 -0.74627867978E+03  0.74627867978E+03  0.00000000000E+00 0. -1.
         25    1    1    2    0    0  0.59647715687E+02 -0.61924589600E+02 -0.17497205517E+03  0.23158740224E+03  0.12500000000E+03 0.  0.
         25    1    1    2    0    0 -0.72079886257E+02  0.72381379327E+02 -0.26913613672E+03  0.31383727338E+03  0.12500000000E+03 0.  0.
         25    1    1    2    0    0  0.12432170570E+02 -0.10456789728E+02 -0.23571887654E+03  0.26730561549E+03  0.12500000000E+03 0.  0.
</event>
<event>
 5    0  0.5568866E-005  0.2335179E+03  0.7546771E-02  0.1124188E+00
         21   -1    0    0  502  501  0.00000000000E+00  0.00000000000E+00  0.33792992582E+02  0.33792992582E+02  0.00000000000E+00 0. -1.
         21   -1    0    0  501  502 -0.00000000000E+00 -0.00000000000E+00 -0.16136659868E+04  0.16136659868E+04  0.00000000000E+00 0. -1.
         25    1    1    2    0    0 -0.49754086399E+02 -0.43825342827E+02 -0.31365287066E+03  0.34409192531E+03  0.12500000000E+03 0.  0.
         25    1    1    2    0    0  0.37310697758E+02  0.34488533433E+01 -0.97444519820E+03  0.98314415375E+03  0.12500000000E+03 0.  0.
         25    1    1    2    0    0  0.12443388641E+02  0.40376489484E+02 -0.29177492532E+03  0.32022290029E+03  0.12500000000E+03 0.  0.
</event>
<event>
 5    0  0.5568866E-005  0.2371599E+03  0.7546771E-02  0.1121699E+00
         21   -1    0    0  502  501  0.00000000000E+00  0.00000000000E+00  0.74079494491E+03  0.74079494491E+03  0.00000000000E+00 0.  1.
         21   -1    0    0  501  502 -0.00000000000E+00 -0.00000000000E+00 -0.75924926496E+02  0.75924926496E+02  0.00000000000E+00 0.  1.
         25    1    1    2    0    0  0.80249076857E+01  0.73296900349E+02  0.15713800553E+03  0.21390228499E+03  0.12500000000E+03 0.  0.
         25    1    1    2    0    0 -0.45417158536E+02 -0.95938850929E+02  0.39930742290E+03  0.43166931717E+03  0.12500000000E+03 0.  0.
         25    1    1    2    0    0  0.37392250850E+02  0.22641950581E+02  0.10842458999E+03  0.17114826924E+03  0.12500000000E+03 0.  0.
</event>
<event>
 5    0  0.5568866E-005  0.3166826E+03  0.7546771E-02  0.1077186E+00
         21   -1    0    0  502  501  0.00000000000E+00  0.00000000000E+00  0.14957452115E+04  0.14957452115E+04  0.00000000000E+00 0. -1.
         21   -1    0    0  501  502 -0.00000000000E+00 -0.00000000000E+00 -0.67048746405E+02  0.67048746405E+02  0.00000000000E+00 0. -1.
         25    1    1    2    0    0 -0.11545817569E+03  0.96908305574E+02  0.21348070351E+03  0.28969090561E+03  0.12500000000E+03 0.  0.
         25    1    1    2    0    0  0.49324884210E+02 -0.29914530339E+02  0.98601054359E+03  0.99557501746E+03  0.12500000000E+03 0.  0.
         25    1    1    2    0    0  0.66133291479E+02 -0.66993775235E+02  0.22920521802E+03  0.27752803486E+03  0.12500000000E+03 0.  0.
</event>
<event>
 5    0  0.5568866E-005  0.5327898E+03  0.7546771E-02  0.1005558E+00
         21   -1    0    0  502  501  0.00000000000E+00  0.00000000000E+00  0.11191672755E+04  0.11191672755E+04  0.00000000000E+00 0.  1.
         21   -1    0    0  501  502 -0.00000000000E+00 -0.00000000000E+00 -0.25363941990E+03  0.25363941990E+03  0.00000000000E+00 0.  1.
         25    1    1    2    0    0 -0.25486070464E+03 -0.29859548692E+03  0.27627039804E+03  0.49604795777E+03  0.12500000000E+03 0.  0.
         25    1    1    2    0    0 -0.33139073156E+02  0.27899108027E+03  0.16613163878E+03  0.34951243532E+03  0.12500000000E+03 0.  0.
         25    1    1    2    0    0  0.28799977779E+03  0.19604406655E+02  0.42312581877E+03  0.52724630229E+03  0.12500000000E+03 0.  0.
</event>
<event>
 5    0  0.5568866E-005  0.3421457E+03  0.7546771E-02  0.1065886E+00
         21   -1    0    0  502  501  0.00000000000E+00  0.00000000000E+00  0.32829512825E+03  0.32829512825E+03  0.00000000000E+00 0.  1.
         21   -1    0    0  501  502 -0.00000000000E+00 -0.00000000000E+00 -0.35658055689E+03  0.35658055689E+03  0.00000000000E+00 0.  1.
         25    1    1    2    0    0 -0.68097009268E+01 -0.18383012438E+03 -0.79529413748E+02  0.23619867550E+03  0.12500000000E+03 0.  0.
         25    1    1    2    0    0 -0.58541359283E+02 -0.20909438696E+02  0.12704070971E+03  0.18875549607E+03  0.12500000000E+03 0.  0.
         25    1    1    2    0    0  0.65351060210E+02  0.20473956307E+03 -0.75796724597E+02  0.25992151357E+03  0.12500000000E+03 0.  0.
</event>
<event>
 5    0  0.5568866E-005  0.2170356E+03  0.7546771E-02  0.1136113E+00
         21   -1    0    0  502  501  0.00000000000E+00  0.00000000000E+00  0.46493877860E+02  0.46493877860E+02  0.00000000000E+00 0.  1.
         21   -1    0    0  501  502 -0.00000000000E+00 -0.00000000000E+00 -0.10131324759E+04  0.10131324759E+04  0.00000000000E+00 0.  1.
         25    1    1    2    0    0  0.17498161992E+02  0.65588143434E+02 -0.39514714889E+03  0.41996935544E+03  0.12500000000E+03 0.  0.
         25    1    1    2    0    0 -0.45203183803E+02 -0.11967988370E+02 -0.17853171178E+03  0.22290162108E+03  0.12500000000E+03 0.  0.
         25    1    1    2    0    0  0.27705021811E+02 -0.53620155064E+02 -0.39295973742E+03  0.41675537728E+03  0.12500000000E+03 0.  0.
</event>
<event>
 5    0  0.5568866E-005  0.2224641E+03  0.7546771E-02  0.1132059E+00
         21   -1    0    0  502  501  0.00000000000E+00  0.00000000000E+00  0.30966824370E+04  0.30966824370E+04  0.00000000000E+00 0.  1.
         21   -1    0    0  501  502 -0.00000000000E+00 -0.00000000000E+00 -0.15981703829E+02  0.15981703829E+02  0.00000000000E+00 0.  1.
         25    1    1    2    0    0  0.20184401514E+02 -0.52040012277E+02  0.55335641324E+03  0.57003850135E+03  0.12500000000E+03 0.  0.
         25    1    1    2    0    0  0.21736261684E+02 -0.18753036769E+02  0.10951134425E+04  0.11025981105E+04  0.12500000000E+03 0.  0.
         25    1    1    2    0    0 -0.41920663198E+02  0.70793049045E+02  0.14322308774E+04  0.14400275289E+04  0.12500000000E+03 0.  0.
</event>
<event>
 5    0  0.5568866E-005  0.3454536E+03  0.7546771E-02  0.1064497E+00
         21   -1    0    0  502  501  0.00000000000E+00  0.00000000000E+00  0.82775377747E+03  0.82775377747E+03  0.00000000000E+00 0. -1.
         21   -1    0    0  501  502 -0.00000000000E+00 -0.00000000000E+00 -0.14417115093E+03  0.14417115093E+03  0.00000000000E+00 0. -1.
         25    1    1    2    0    0  0.78038101707E+02  0.13949448907E+03  0.93867778515E+02  0.22357284639E+03  0.12500000000E+03 0.  0.
         25    1    1    2    0    0 -0.12406223354E+03 -0.32942119670E+02  0.55505014474E+02  0.18756979413E+03  0.12500000000E+03 0.  0.
         25    1    1    2    0    0  0.46024131834E+02 -0.10655236940E+03  0.53420983355E+03  0.56078228788E+03  0.12500000000E+03 0.  0.
</event>
<event>
 5    0  0.5568866E-005  0.3625478E+03  0.7546771E-02  0.1057580E+00
         21   -1    0    0  502  501  0.00000000000E+00  0.00000000000E+00  0.41917845157E+03  0.41917845157E+03  0.00000000000E+00 0. -1.
         21   -1    0    0  501  502 -0.00000000000E+00 -0.00000000000E+00 -0.31356793490E+03  0.31356793490E+03  0.00000000000E+00 0. -1.
         25    1    1    2    0    0 -0.39715737832E+02 -0.12839703375E+03 -0.17140162959E+02  0.18434186528E+03  0.12500000000E+03 0.  0.
         25    1    1    2    0    0 -0.15215744896E+03 -0.90241797886E+02  0.31385818413E+02  0.21887334456E+03  0.12500000000E+03 0.  0.
         25    1    1    2    0    0  0.19187318679E+03  0.21863883164E+03  0.91364861211E+02  0.32953117664E+03  0.12500000000E+03 0.  0.
</event>
<event>
 5    0  0.5568866E-005  0.2398755E+03  0.7546771E-02  0.1119876E+00
         21   -1    0    0  502  501  0.00000000000E+00  0.00000000000E+00  0.17962820108E+04  0.17962820108E+04  0.00000000000E+00 0. -1.
         21   -1    0    0  501  502 -0.00000000000E+00 -0.00000000000E+00 -0.32032972422E+02  0.32032972422E+02  0.00000000000E+00 0. -1.
         25    1    1    2    0    0  0.23828255259E+02  0.10967973231E+03  0.42113597655E+03  0.45340703587E+03  0.12500000000E+03 0.  0.
         25    1    1    2    0    0  0.84440356880E+01 -0.41927457959E+01  0.65496041583E+03  0.66684857888E+03  0.12500000000E+03 0.  0.
         25    1    1    2    0    0 -0.32272290947E+02 -0.10548698651E+03  0.68815264600E+03  0.70805936848E+03  0.12500000000E+03 0.  0.
</event>
<event>
 5    0  0.5568866E-005  0.3575609E+03  0.7546771E-02  0.1059554E+00
         21   -1    0    0  502  501  0.00000000000E+00  0.00000000000E+00  0.15719559432E+03  0.15719559432E+03  0.00000000000E+00 0.  1.
         21   -1    0    0  501  502 -0.00000000000E+00 -0.00000000000E+00 -0.81331662860E+03  0.81331662860E+03  0.00000000000E+00 0.  1.
         25    1    1    2    0    0  0.25465144858E+03  0.46925359336E+02 -0.35780015101E+03  0.45901557454E+03  0.12500000000E+03 0.  0.
         25    1    1    2    0    0 -0.16192481946E+03 -0.11562127779E+03 -0.11571172570E+03  0.26192008418E+03  0.12500000000E+03 0.  0.
         25    1    1    2    0    0 -0.92726629125E+02  0.68695918454E+02 -0.18260915757E+03  0.24957656419E+03  0.12500000000E+03 0.  0.
</event>
<event>
 5    0  0.5568866E-005  0.2589488E+03  0.7546771E-02  0.1107776E+00
         21   -1    0    0  502  501  0.00000000000E+00  0.00000000000E+00  0.23236399455E+03  0.23236399455E+03  0.00000000000E+00 0.  1.
         21   -1    0    0  501  502 -0.00000000000E+00 -0.00000000000E+00 -0.28857515209E+03  0.28857515209E+03  0.00000000000E+00 0.  1.
         25    1    1    2    0    0 -0.82733595527E+02 -0.66477968152E+02 -0.76616298123E+01  0.16415805996E+03  0.12500000000E+03 0.  0.
         25    1    1    2    0    0  0.11452257267E+03  0.30625385408E+02 -0.11519537418E+03  0.20723973585E+03  0.12500000000E+03 0.  0.
         25    1    1    2    0    0 -0.31788977142E+02  0.35852582744E+02  0.66645846457E+02  0.14954135083E+03  0.12500000000E+03 0.  0.
</event>
<event>
 5    0  0.5568866E-005  0.2772455E+03  0.7546771E-02  0.1097203E+00
         21   -1    0    0  502  501  0.00000000000E+00  0.00000000000E+00  0.71439398483E+03  0.71439398483E+03  0.00000000000E+00 0. -1.
         21   -1    0    0  501  502 -0.00000000000E+00 -0.00000000000E+00 -0.10759475745E+03  0.10759475745E+03  0.00000000000E+00 0. -1.
         25    1    1    2    0    0  0.13766337456E+03 -0.26480149414E+02  0.16836477105E+03  0.25223817938E+03  0.12500000000E+03 0.  0.
         25    1    1    2    0    0 -0.33337327885E+02 -0.86584153272E+02  0.26003225286E+03  0.30306759239E+03  0.12500000000E+03 0.  0.
         25    1    1    2    0    0 -0.10432604668E+03  0.11306430269E+03  0.17840220347E+03  0.26668297051E+03  0.12500000000E+03 0.  0.
</event>
<event>
 5    0  0.5568866E-005  0.2472326E+03  0.7546771E-02  0.1115066E+00
         21   -1    0    0  502  501  0.00000000000E+00  0.00000000000E+00  0.59059920944E+03  0.59059920944E+03  0.00000000000E+00 0. -1.
         21   -1    0    0  501  502 -0.00000000000E+00 -0.00000000000E+00 -0.10349484805E+03  0.10349484805E+03  0.00000000000E+00 0. -1.
         25    1    1    2    0    0  0.35625304624E+02  0.33021540126E+02 -0.61567607248E+01  0.13424786831E+03  0.12500000000E+03 0.  0.
         25    1    1    2    0    0  0.74719911149E+00 -0.14762405941E+02  0.17554908663E+03  0.21601150144E+03  0.12500000000E+03 0.  0.
         25    1    1    2    0    0 -0.36372503735E+02 -0.18259134185E+02  0.31771203549E+03  0.34383468775E+03  0.12500000000E+03 0.  0.
</event>
<event>
 5    0  0.5568866E-005  0.3082164E+03  0.7546771E-02  0.1081204E+00
         21   -1    0    0  502  501  0.00000000000E+00  0.00000000000E+00  0.21851876637E+03  0.21851876637E+03  0.00000000000E+00 0. -1.
         21   -1    0    0  501  502 -0.00000000000E+00 -0.00000000000E+00 -0.43473322789E+03  0.43473322789E+03  0.00000000000E+00 0. -1.
         25    1    1    2    0    0 -0.12657634005E+03 -0.71988706499E+02 -0.14318007634E+03  0.23943574918E+03  0.12500000000E+03 0.  0.
         25    1    1    2    0    0  0.14255537433E+03  0.10553972375E+03 -0.14869377507E+03  0.26305038830E+03  0.12500000000E+03 0.  0.
         25    1    1    2    0    0 -0.15979034279E+02 -0.33551017249E+02  0.75659389891E+02  0.15076585679E+03  0.12500000000E+03 0.  0.
</event>
<event>
 5    0  0.5730748E-005  0.3279354E+03  0.7546771E-02  0.1072054E+00
         21   -1    0    0  502  501  0.00000000000E+00  0.00000000000E+00  0.19498867729E+03  0.19498867729E+03  0.00000000000E+00 0.  1.
         21   -1    0    0  501  502 -0.00000000000E+00 -0.00000000000E+00 -0.55152745315E+03  0.55152745315E+03  0.00000000000E+00 0.  1.
         25    1    1    2    0    0  0.67257756788E+02 -0.93018362549E+02 -0.57708715638E+01  0.16980672713E+03  0.12500000000E+03 0.  0.
         25    1    1    2    0    0 -0.14193048164E+02  0.16425434912E+03 -0.14830060524E+02  0.20742676905E+03  0.12500000000E+03 0.  0.
         25    1    1    2    0    0 -0.53064708624E+02 -0.71235986576E+02 -0.33593784378E+03  0.36928263426E+03  0.12500000000E+03 0.  0.
</event>
<event>
 5    0  0.6386916E-005  0.3199505E+03  0.7546771E-02  0.1075672E+00
         21   -1    0    0  502  501  0.00000000000E+00  0.00000000000E+00  0.22437305215E+03  0.22437305215E+03  0.00000000000E+00 0. -1.
         21   -1    0    0  501  502 -0.00000000000E+00 -0.00000000000E+00 -0.45624172124E+03  0.45624172124E+03  0.00000000000E+00 0. -1.
         25    1    1    2    0    0 -0.58338419142E+02  0.17403672968E+03 -0.21244612369E+03  0.30732801678E+03  0.12500000000E+03 0.  0.
         25    1    1    2    0    0  0.54841002364E+02 -0.13768217808E+03 -0.10201296979E+03  0.21907889836E+03  0.12500000000E+03 0.  0.
         25    1    1    2    0    0  0.34974167772E+01 -0.36354551600E+02  0.82590424389E+02  0.15420785825E+03  0.12500000000E+03 0.  0.
</event>
<event>
 5    0  0.5568866E-005  0.2703635E+03  0.7546771E-02  0.1101072E+00
         21   -1    0    0  502  501  0.00000000000E+00  0.00000000000E+00  0.58850381165E+02  0.58850381165E+02  0.00000000000E+00 0. -1.
         21   -1    0    0  501  502 -0.00000000000E+00 -0.00000000000E+00 -0.12420726366E+04  0.12420726366E+04  0.00000000000E+00 0. -1.
         25    1    1    2    0    0 -0.88702873509E+02  0.82018201523E+02 -0.27500414758E+03  0.32534207588E+03  0.12500000000E+03 0.  0.
         25    1    1    2    0    0 -0.34788647695E+02  0.18783507511E+02 -0.20144465545E+03  0.24034978546E+03  0.12500000000E+03 0.  0.
         25    1    1    2    0    0  0.12349152120E+03 -0.10080170903E+03 -0.70677345238E+03  0.73523115640E+03  0.12500000000E+03 0.  0.
</event>
<event>
 5    0  0.5568866E-005  0.3557466E+03  0.7546771E-02  0.1060281E+00
         21   -1    0    0  502  501  0.00000000000E+00  0.00000000000E+00  0.11709832275E+04  0.11709832275E+04  0.00000000000E+00 0. -1.
         21   -1    0    0  501  502 -0.00000000000E+00 -0.00000000000E+00 -0.10807642311E+03  0.10807642311E+03  0.00000000000E+00 0. -1.
         25    1    1    2    0    0  0.15099302093E+03 -0.18143119002E+03  0.38468606369E+03  0.46832097612E+03  0.12500000000E+03 0.  0.
         25    1    1    2    0    0 -0.23176520218E+02  0.17198365760E+03  0.17410574128E+03  0.27577769800E+03  0.12500000000E+03 0.  0.
         25    1    1    2    0    0 -0.12781650071E+03  0.94475324281E+01  0.50411499940E+03  0.53496097647E+03  0.12500000000E+03 0.  0.
</event>
<event>
 5    0  0.5568866E-005  0.2632517E+03  0.7546771E-02  0.1105205E+00
         21   -1    0    0  502  501  0.00000000000E+00  0.00000000000E+00  0.36659321544E+03  0.36659321544E+03  0.00000000000E+00 0.  1.
         21   -1    0    0  501  502 -0.00000000000E+00 -0.00000000000E+00 -0.18904184266E+03  0.18904184266E+03  0.00000000000E+00 0.  1.
         25    1    1    2    0    0  0.32184091652E+02 -0.76304007696E+02  0.10076330273E+03  0.18065536394E+03  0.12500000000E+03 0.  0.
         25    1    1    2    0    0 -0.23854345863E+02 -0.47256880197E+02  0.13321593513E+03  0.19019392187E+03  0.12500000000E+03 0.  0.
         25    1    1    2    0    0 -0.83297457891E+01  0.12356088789E+03 -0.56427865086E+02  0.18478577229E+03  0.12500000000E+03 0.  0.
</event>
<event>
 5    0  0.5961822E-005  0.2922942E+03  0.7546771E-02  0.1089157E+00
         21   -1    0    0  502  501  0.00000000000E+00  0.00000000000E+00  0.14181411713E+03  0.14181411713E+03  0.00000000000E+00 0. -1.
         21   -1    0    0  501  502 -0.00000000000E+00 -0.00000000000E+00 -0.60245005073E+03  0.60245005073E+03  0.00000000000E+00 0. -1.
         25    1    1    2    0    0 -0.63099387487E+02  0.77718223189E+01  0.21542652155E+02  0.14188382496E+03  0.12500000000E+03 0.  0.
         25    1    1    2    0    0 -0.75934540628E+02  0.34833576289E+02 -0.11921470186E+03  0.19187646452E+03  0.12500000000E+03 0.  0.
         25    1    1    2    0    0  0.13903392812E+03 -0.42605398608E+02 -0.36296388389E+03  0.41050387838E+03  0.12500000000E+03 0.  0.
</event>
<event>
 5    0  0.5568866E-005  0.2600723E+03  0.7546771E-02  0.1107100E+00
         21   -1    0    0  502  501  0.00000000000E+00  0.00000000000E+00  0.63058562780E+03  0.63058562780E+03  0.00000000000E+00 0. -1.
         21   -1    0    0  501  502 -0.00000000000E+00 -0.00000000000E+00 -0.10726158314E+03  0.10726158314E+03  0.00000000000E+00 0. -1.
         25    1    1    2    0    0  0.36173788529E+00  0.53432338740E+02  0.40967923811E+03  0.43164478893E+03  0.12500000000E+03 0.  0.
         25    1    1    2    0    0 -0.18763280976E+02 -0.26182118395E+02 -0.71632586223E+01  0.12928215774E+03  0.12500000000E+03 0.  0.
         25    1    1    2    0    0  0.18401543090E+02 -0.27250220345E+02  0.12080806517E+03  0.17692026427E+03  0.12500000000E+03 0.  0.
</event>
<event>
 5    0  0.5568866E-005  0.2880037E+03  0.7546771E-02  0.1091396E+00
         21   -1    0    0  502  501  0.00000000000E+00  0.00000000000E+00  0.19166554896E+03  0.19166554896E+03  0.00000000000E+00 0. -1.
         21   -1    0    0  501  502 -0.00000000000E+00 -0.00000000000E+00 -0.43276497378E+03  0.43276497378E+03  0.00000000000E+00 0. -1.
         25    1    1    2    0    0  0.84549186901E+02  0.13602499495E+03 -0.91739077942E+02  0.22291797298E+03  0.12500000000E+03 0.  0.
         25    1    1    2    0    0 -0.32599367181E+02 -0.11020730170E+03  0.32958198285E+02  0.17297286181E+03  0.12500000000E+03 0.  0.
         25    1    1    2    0    0 -0.51949819720E+02 -0.25817693252E+02 -0.18231854517E+03  0.22853968795E+03  0.12500000000E+03 0.  0.
</event>
<event>
 5    0  0.5568866E-005  0.4303145E+03  0.7546771E-02  0.1033761E+00
         21   -1    0    0  502  501  0.00000000000E+00  0.00000000000E+00  0.29591079741E+03  0.29591079741E+03  0.00000000000E+00 0.  1.
         21   -1    0    0  501  502 -0.00000000000E+00 -0.00000000000E+00 -0.62576471411E+03  0.62576471411E+03  0.00000000000E+00 0.  1.
         25    1    1    2    0    0 -0.16980876425E+03 -0.13346866410E+03 -0.12905019607E+03  0.28094101483E+03  0.12500000000E+03 0.  0.
         25    1    1    2    0    0 -0.14600065414E+03 -0.77010487950E+02 -0.92239342798E+02  0.22667135377E+03  0.12500000000E+03 0.  0.
         25    1    1    2    0    0  0.31580941838E+03  0.21047915205E+03 -0.10856437784E+03  0.41406314291E+03  0.12500000000E+03 0.  0.
</event>
<event>
 5    0  0.5568866E-005  0.2404678E+03  0.7546771E-02  0.1119482E+00
         21   -1    0    0  502  501  0.00000000000E+00  0.00000000000E+00  0.22134557457E+03  0.22134557457E+03  0.00000000000E+00 0. -1.
         21   -1    0    0  501  502 -0.00000000000E+00 -0.00000000000E+00 -0.26124191871E+03  0.26124191871E+03  0.00000000000E+00 0. -1.
         25    1    1    2    0    0  0.68520203813E+02 -0.93190598014E+02  0.46230784270E+02  0.17647036948E+03  0.12500000000E+03 0.  0.
         25    1    1    2    0    0 -0.26823681691E+01  0.26589557607E+01 -0.24986109777E+02  0.12752870589E+03  0.12500000000E+03 0.  0.
         25    1    1    2    0    0 -0.65837835644E+02  0.90531642253E+02 -0.61141018634E+02  0.17858841791E+03  0.12500000000E+03 0.  0.
</event>
<event>
 5    0  0.5568866E-005  0.2331299E+03  0.7546771E-02  0.1124456E+00
         21   -1    0    0  502  501  0.00000000000E+00  0.00000000000E+00  0.11637253018E+03  0.11637253018E+03  0.00000000000E+00 0.  1.
         21   -1    0    0  501  502 -0.00000000000E+00 -0.00000000000E+00 -0.46703092941E+03  0.46703092941E+03  0.00000000000E+00 0.  1.
         25    1    1    2    0    0  0.83576793245E+02  0.74238226749E+02 -0.85443941118E+02  0.18820749654E+03  0.12500000000E+03 0.  0.
         25    1    1    2    0    0 -0.59749486014E+02 -0.89323219525E+02 -0.14882471812E+03  0.22208654923E+03  0.12500000000E+03 0.  0.
         25    1    1    2    0    0 -0.23827307231E+02  0.15084992776E+02 -0.11638973999E+03  0.17310941382E+03  0.12500000000E+03 0.  0.
</event>
<event>
 5    0  0.5568866E-005  0.4152861E+03  0.7546771E-02  0.1038612E+00
         21   -1    0    0  502  501  0.00000000000E+00  0.00000000000E+00  0.92482053072E+03  0.92482053072E+03  0.00000000000E+00 0. -1.
         21   -1    0    0  501  502 -0.00000000000E+00 -0.00000000000E+00 -0.18648216680E+03  0.18648216680E+03  0.00000000000E+00 0. -1.
         25    1    1    2    0    0 -0.47564683929E+02  0.12855197587E+03  0.67467956430E+02  0.19739537685E+03  0.12500000000E+03 0.  0.
         25    1    1    2    0    0 -0.20879311636E+03  0.72416039266E+02  0.39297433644E+03  0.46785946318E+03  0.12500000000E+03 0.  0.
         25    1    1    2    0    0  0.25635780029E+03 -0.20096801513E+03  0.27789607104E+03  0.44604785750E+03  0.12500000000E+03 0.  0.
</event>
<event>
 5    0  0.5568866E-005  0.4035967E+03  0.7546771E-02  0.1042541E+00
         21   -1    0    0  502  501  0.00000000000E+00  0.00000000000E+00  0.47442329908E+03  0.47442329908E+03  0.00000000000E+00 0.  1.
         21   -1    0    0  501  502 -0.00000000000E+00 -0.00000000000E+00 -0.34334374482E+03  0.34334374482E+03  0.00000000000E+00 0.  1.
         25    1    1    2    0    0 -0.10664285616E+03 -0.27332414883E+03 -0.42966591292E+02  0.32179172934E+03  0.12500000000E+03 0.  0.
         25    1    1    2    0    0  0.14548630999E+02  0.28180369328E+03  0.12431830068E+03  0.33272364523E+03  0.12500000000E+03 0.  0.
         25    1    1    2    0    0  0.92094225160E+02 -0.84795444531E+01  0.49727844882E+02  0.16325166933E+03  0.12500000000E+03 0.  0.
</event>
<event>
 5    0  0.5568866E-005  0.3002745E+03  0.7546771E-02  0.1085103E+00
         21   -1    0    0  502  501  0.00000000000E+00  0.00000000000E+00  0.65831337967E+03  0.65831337967E+03  0.00000000000E+00 0. -1.
         21   -1    0    0  501  502 -0.00000000000E+00 -0.00000000000E+00 -0.13696330457E+03  0.13696330457E+03  0.00000000000E+00 0. -1.
         25    1    1    2    0    0  0.87118725178E+02  0.78077057853E+02  0.47755928186E+02  0.17773949453E+03  0.12500000000E+03 0.  0.
         25    1    1    2    0    0 -0.13545775187E+03 -0.32466581129E+02  0.43070846319E+03  0.46961437552E+03  0.12500000000E+03 0.  0.
         25    1    1    2    0    0  0.48339026693E+02 -0.45610476724E+02  0.42885683719E+02  0.14792281419E+03  0.12500000000E+03 0.  0.
</event>
<event>
 5    0  0.5568866E-005  0.3149908E+03  0.7546771E-02  0.1077978E+00
         21   -1    0    0  502  501  0.00000000000E+00  0.00000000000E+00  0.37541071403E+02  0.37541071403E+02  0.00000000000E+00 0.  1.
         21   -1    0    0  501  502 -0.00000000000E+00 -0.00000000000E+00 -0.26429512355E+04  0.26429512355E+04  0.00000000000E+00 0.  1.
         25    1    1    2    0    0  0.11347643694E+03 -0.94438772792E+01 -0.64845034958E+03  0.67013352732E+03  0.12500000000E+03 0.  0.
         25    1    1    2    0    0 -0.11480745465E+03 -0.17015219206E+03 -0.10942858171E+04  0.11203655518E+04  0.12500000000E+03 0.  0.
         25    1    1    2    0    0  0.13310177154E+01  0.17959606934E+03 -0.86267399735E+03  0.88999322774E+03  0.12500000000E+03 0.  0.
</event>
<event>
 5    0  0.5568866E-005  0.3139911E+03  0.7546771E-02  0.1078448E+00
         21   -1    0    0  502  501  0.00000000000E+00  0.00000000000E+00  0.92001896881E+02  0.92001896881E+02  0.00000000000E+00 0.  1.
         21   -1    0    0  501  502 -0.00000000000E+00 -0.00000000000E+00 -0.10716130199E+04  0.10716130199E+04  0.00000000000E+00 0.  1.
         25    1    1    2    0    0 -0.84681415267E+02 -0.35802314791E+02 -0.54717163621E+03  0.56874822840E+03  0.12500000000E+03 0.  0.
         25    1    1    2    0    0 -0.68807836728E+02  0.12616693916E+03 -0.21534774968E+03  0.28749307509E+03  0.12500000000E+03 0.  0.
         25    1    1    2    0    0  0.15348925200E+03 -0.90364624366E+02 -0.21709173711E+03  0.30737361327E+03  0.12500000000E+03 0.  0.
</event>
<event>
 5    0  0.5568866E-005  0.2468287E+03  0.7546771E-02  0.1115326E+00
         21   -1    0    0  502  501  0.00000000000E+00  0.00000000000E+00  0.86404891802E+03  0.86404891802E+03  0.00000000000E+00 0.  1.
         21   -1    0    0  501  502 -0.00000000000E+00 -0.00000000000E+00 -0.70510339494E+02  0.70510339494E+02  0.00000000000E+00 0.  1.
         25    1    1    2    0    0 -0.41973229104E+02  0.64813518787E+02  0.12942542389E+03  0.19580215660E+03  0.12500000000E+03 0.  0.
         25    1    1    2    0    0 -0.58264968785E+02  0.24481130075E+02  0.27844217990E+03  0.31168763187E+03  0.12500000000E+03 0.  0.
         25    1    1    2    0    0  0.10023819789E+03 -0.89294648863E+02  0.38567097474E+03  0.42706946904E+03  0.12500000000E+03 0.  0.
</event>
<event>
 5    0  0.5568866E-005  0.3965273E+03  0.7546771E-02  0.1044989E+00
         21   -1    0    0  502  501  0.00000000000E+00  0.00000000000E+00  0.43265432553E+03  0.43265432553E+03  0.00000000000E+00 0.  1.
         21   -1    0    0  501  502 -0.00000000000E+00 -0.00000000000E+00 -0.36341694196E+03  0.36341694196E+03  0.00000000000E+00 0.  1.
         25    1    1    2    0    0  0.21910771298E+03 -0.15305240239E+03 -0.76812438489E+02  0.30489076482E+03  0.12500000000E+03 0.  0.
         25    1    1    2    0    0 -0.43357295324E+02  0.14754619441E+03  0.18597868576E+03  0.27177712579E+03  0.12500000000E+03 0.  0.
         25    1    1    2    0    0 -0.17575041765E+03  0.55062079778E+01 -0.39928863700E+02  0.21940337688E+03  0.12500000000E+03 0.  0.
</event>
<event>
 5    0  0.5568866E-005  0.4207796E+03  0.7546771E-02  0.1036813E+00
         21   -1    0    0  502  501  0.00000000000E+00  0.00000000000E+00  0.22299247941E+03  0.22299247941E+03  0.00000000000E+00 0.  1.
         21   -1    0    0  501  502 -0.00000000000E+00 -0.00000000000E+00 -0.79399733013E+03  0.79399733013E+03  0.00000000000E+00 0.  1.
         25    1    1    2    0    0 -0.22327335690E+02 -0.17622285616E+02  0.77806678098E+01  0.12843127992E+03  0.12500000000E+03 0.  0.
         25    1    1    2    0    0 -0.24411444522E+03 -0.45632105135E+02 -0.50833194517E+03  0.57939668437E+03  0.12500000000E+03 0.  0.
         25    1    1    2    0    0  0.26644178091E+03  0.63254390751E+02 -0.70453573356E+02  0.30916184525E+03  0.12500000000E+03 0.  0.
</event>
<event>
 5    0  0.5568866E-005  0.3892595E+03  0.7546771E-02  0.1047563E+00
         21   -1    0    0  502  501  0.00000000000E+00  0.00000000000E+00  0.38259471788E+03  0.38259471788E+03  0.00000000000E+00 0.  1.
         21   -1    0    0  501  502 -0.00000000000E+00 -0.00000000000E+00 -0.39604043578E+03  0.39604043578E+03  0.00000000000E+00 0.  1.
         25    1    1    2    0    0 -0.29529139651E+02 -0.17246383166E+03  0.21878553657E+03  0.30677003493E+03  0.12500000000E+03 0.  0.
         25    1    1    2    0    0 -0.22590164633E+02 -0.53322553191E+02 -0.32913076595E+02  0.14163996903E+03  0.12500000000E+03 0.  0.
         25    1    1    2    0    0  0.52119304284E+02  0.22578638485E+03 -0.19931817787E+03  0.33022514970E+03  0.12500000000E+03 0.  0.
</event>
<event>
 5    0  0.5568866E-005  0.2864973E+03  0.7546771E-02  0.1092192E+00
         21   -1    0    0  502  501  0.00000000000E+00  0.00000000000E+00  0.10483738741E+03  0.10483738741E+03  0.00000000000E+00 0.  1.
         21   -1    0    0  501  502 -0.00000000000E+00 -0.00000000000E+00 -0.78293374049E+03  0.78293374049E+03  0.00000000000E+00 0.  1.
         25    1    1    2    0    0  0.21641453241E+02 -0.86507532671E+01  0.21175074527E+02  0.12890528233E+03  0.12500000000E+03 0.  0.
         25    1    1    2    0    0  0.35612285172E+02  0.10591647182E+02 -0.18374269799E+03  0.22531488391E+03  0.12500000000E+03 0.  0.
         25    1    1    2    0    0 -0.57253738413E+02 -0.19408939144E+01 -0.51552872962E+03  0.53355096166E+03  0.12500000000E+03 0.  0.
</event>
<event>
 5    0  0.5568866E-005  0.3310081E+03  0.7546771E-02  0.1070692E+00
         21   -1    0    0  502  501  0.00000000000E+00  0.00000000000E+00  0.34862291702E+03  0.34862291702E+03  0.00000000000E+00 0.  1.
         21   -1    0    0  501  502 -0.00000000000E+00 -0.00000000000E+00 -0.31428331050E+03  0.31428331050E+03  0.00000000000E+00 0.  1.
         25    1    1    2    0    0  0.76350217540E+02 -0.14471376980E+03 -0.18980255377E+02  0.20677688697E+03  0.12500000000E+03 0.  0.
         25    1    1    2    0    0 -0.19162986962E+03  0.13586106548E+03 -0.27762455065E+02  0.26753689457E+03  0.12500000000E+03 0.  0.
         25    1    1    2    0    0  0.11527965208E+03  0.88527043183E+01  0.81082316963E+02  0.18859244598E+03  0.12500000000E+03 0.  0.
</event>
<event>
 5    0  0.5568866E-005  0.3121559E+03  0.7546771E-02  0.1079317E+00
         21   -1    0    0  502  501  0.00000000000E+00  0.00000000000E+00  0.56112979896E+02  0.56112979896E+02  0.00000000000E+00 0.  1.
         21   -1    0    0  501  502 -0.00000000000E+00 -0.00000000000E+00 -0.17365200341E+04  0.17365200341E+04  0.00000000000E+00 0.  1.
         25    1    1    2    0    0 -0.89956692424E+01 -0.72830449618E+02 -0.13299950737E+04  0.13378703572E+04  0.12500000000E+03 0.  0.
         25    1    1    2    0    0  0.16658839887E+02 -0.13221698165E+02 -0.22271785726E+03  0.25628221591E+03  0.12500000000E+03 0.  0.
         25    1    1    2    0    0 -0.76631706444E+01  0.86052147783E+02 -0.12769412321E+03  0.19848044092E+03  0.12500000000E+03 0.  0.
</event>
<event>
 5    0  0.5568866E-005  0.2232420E+03  0.7546771E-02  0.1131489E+00
         21   -1    0    0  502  501  0.00000000000E+00  0.00000000000E+00  0.80095686705E+03  0.80095686705E+03  0.00000000000E+00 0. -1.
         21   -1    0    0  501  502 -0.00000000000E+00 -0.00000000000E+00 -0.62221822388E+02  0.62221822388E+02  0.00000000000E+00 0. -1.
         25    1    1    2    0    0 -0.35217393461E+02 -0.23639025690E+02  0.37157918165E+03  0.39432874176E+03  0.12500000000E+03 0.  0.
         25    1    1    2    0    0  0.79812617246E+02  0.14683158873E+02  0.13398989924E+03  0.20040943622E+03  0.12500000000E+03 0.  0.
         25    1    1    2    0    0 -0.44595223785E+02  0.89558668164E+01  0.23316596377E+03  0.26844051147E+03  0.12500000000E+03 0.  0.
</event>
<event>
 5    0  0.5568866E-005  0.5053981E+03  0.7546771E-02  0.1012379E+00
         21   -1    0    0  502  501  0.00000000000E+00  0.00000000000E+00  0.26940325199E+03  0.26940325199E+03  0.00000000000E+00 0.  1.
         21   -1    0    0  501  502 -0.00000000000E+00 -0.00000000000E+00 -0.94812224703E+03  0.94812224703E+03  0.00000000000E+00 0.  1.
         25    1    1    2    0    0 -0.14247882028E+03 -0.36092935975E+03 -0.28226883623E+03  0.49585372124E+03  0.12500000000E+03 0.  0.
         25    1    1    2    0    0 -0.38216129391E+02 -0.47565179675E+02 -0.86206268082E+02  0.16364424683E+03  0.12500000000E+03 0.  0.
         25    1    1    2    0    0  0.18069494967E+03  0.40849453943E+03 -0.31024389073E+03  0.55802753096E+03  0.12500000000E+03 0.  0.
</event>
<event>
 5    0  0.5568866E-005  0.2528943E+03  0.7546771E-02  0.1111489E+00
         21   -1    0    0  502  501  0.00000000000E+00  0.00000000000E+00  0.38186434419E+03  0.38186434419E+03  0.00000000000E+00 0. -1.
         21   -1    0    0  501  502 -0.00000000000E+00 -0.00000000000E+00 -0.16748232200E+03  0.16748232200E+03  0.00000000000E+00 0. -1.
         25    1    1    2    0    0 -0.70239584912E+02  0.13541382571E+02 -0.56241908207E+02  0.15461280856E+03  0.12500000000E+03 0.  0.
         25    1    1    2    0    0  0.23332807114E+02 -0.17374259684E+00  0.21435585444E+03  0.24923459312E+03  0.12500000000E+03 0.  0.
         25    1    1    2    0    0  0.46906777798E+02 -0.13367639974E+02  0.56268075949E+02  0.14549926451E+03  0.12500000000E+03 0.  0.
</event>
<event>
 5    0  0.5568866E-005  0.2370461E+03  0.7546771E-02  0.1121776E+00
         21   -1    0    0  502  501  0.00000000000E+00  0.00000000000E+00  0.45096830501E+02  0.45096830501E+02  0.00000000000E+00 0.  1.
         21   -1    0    0  501  502 -0.00000000000E+00 -0.00000000000E+00 -0.12460046504E+04  0.12460046504E+04  0.00000000000E+00 0.  1.
         25    1    1    2    0    0 -0.44511155787E+02 -0.48712711615E+02 -0.20601468718E+03  0.24984239551E+03  0.12500000000E+03 0.  0.
         25    1    1    2    0    0  0.84151611545E+02  0.56337997063E+02 -0.38280896642E+03  0.41523868848E+03  0.12500000000E+03 0.  0.
         25    1    1    2    0    0 -0.39640455758E+02 -0.76252854487E+01 -0.61208416630E+03  0.62602039691E+03  0.12500000000E+03 0.  0.
</event>
<event>
 5    0  0.5568866E-005  0.3405591E+03  0.7546771E-02  0.1066558E+00
         21   -1    0    0  502  501  0.00000000000E+00  0.00000000000E+00  0.28494879034E+03  0.28494879034E+03  0.00000000000E+00 0.  1.
         21   -1    0    0  501  502 -0.00000000000E+00 -0.00000000000E+00 -0.40702218118E+03  0.40702218118E+03  0.00000000000E+00 0.  1.
         25    1    1    2    0    0 -0.90193826079E+02  0.96690774439E+02 -0.54561196102E+01  0.18204065855E+03  0.12500000000E+03 0.  0.
         25    1    1    2    0    0 -0.12037875448E+02  0.14708434983E+03 -0.98301089668E+02  0.21694888946E+03  0.12500000000E+03 0.  0.
         25    1    1    2    0    0  0.10223170153E+03 -0.24377512427E+03 -0.18316181560E+02  0.29298142350E+03  0.12500000000E+03 0.  0.
</event>
<event>
 5    0  0.5568866E-005  0.3894764E+03  0.7546771E-02  0.1047486E+00
         21   -1    0    0  502  501  0.00000000000E+00  0.00000000000E+00  0.56595134033E+03  0.56595134033E+03  0.00000000000E+00 0. -1.
         21   -1    0    0  501  502 -0.00000000000E+00 -0.00000000000E+00 -0.26802993284E+03  0.26802993284E+03  0.00000000000E+00 0. -1.
         25    1    1    2    0    0 -0.47873652389E+00 -0.20619003650E+03  0.12511115217E+03  0.27164749352E+03  0.12500000000E+03 0.  0.
         25    1    1    2    0    0 -0.12734816166E+03  0.25160619455E+03 -0.16084375560E+01  0.30846526301E+03  0.12500000000E+03 0.  0.
         25    1    1    2    0    0  0.12782689819E+03 -0.45416158047E+02  0.17441869289E+03  0.25386851664E+03  0.12500000000E+03 0.  0.
</event>
<event>
 5    0  0.5568866E-005  0.2347182E+03  0.7546771E-02  0.1123362E+00
         21   -1    0    0  502  501  0.00000000000E+00  0.00000000000E+00  0.35270132601E+03  0.35270132601E+03  0.00000000000E+00 0. -1.
         21   -1    0    0  501  502 -0.00000000000E+00 -0.00000000000E+00 -0.15620194574E+03  0.15620194574E+03  0.00000000000E+00 0. -1.
         25    1    1    2    0    0  0.94951254955E+02 -0.14212974059E+02  0.30714019671E+02  0.16058051081E+03  0.12500000000E+03 0.  0.
         25    1    1    2    0    0 -0.66900221375E+02 -0.54176051864E+02  0.41934567687E+02  0.15746171656E+03  0.12500000000E+03 0.  0.
         25    1    1    2    0    0 -0.28051033581E+02  0.68389025923E+02  0.12385079292E+03  0.19086104437E+03  0.12500000000E+03 0.  0.
</event>
<event>
 5    0  0.5568866E-005  0.4555082E+03  0.7546771E-02  0.1026092E+00
         21   -1    0    0  502  501  0.00000000000E+00  0.00000000000E+00  0.42776743050E+03  0.42776743050E+03  0.00000000000E+00 0. -1.
         21   -1    0    0  501  502 -0.00000000000E+00 -0.00000000000E+00 -0.48504796163E+03  0.48504796163E+03  0.00000000000E+00 0. -1.
         25    1    1    2    0    0  0.10319087487E+03  0.59500551897E+02  0.18757666442E+03  0.25494838177E+03  0.12500000000E+03 0.  0.
         25    1    1    2    0    0  0.14235032755E+03 -0.40733341894E+02  0.98384903148E+02  0.21731868319E+03  0.12500000000E+03 0.  0.
         25    1    1    2    0    0 -0.24554120242E+03 -0.18767210003E+02 -0.34324209869E+03  0.44054832717E+03  0.12500000000E+03 0.  0.
</event>
<event>
 5    0  0.5568866E-005  0.3312970E+03  0.7546771E-02  0.1070564E+00
         21   -1    0    0  502  501  0.00000000000E+00  0.00000000000E+00  0.28246897538E+03  0.28246897538E+03  0.00000000000E+00 0.  1.
         21   -1    0    0  501  502 -0.00000000000E+00 -0.00000000000E+00 -0.38856546101E+03  0.38856546101E+03  0.00000000000E+00 0. -1.
         25    1    1    2    0    0  0.88992001266E+02  0.21076575541E+03 -0.78788657279E+02  0.27234983470E+03  0.12500000000E+03 0.  0.
         25    1    1    2    0    0 -0.71787107377E+02 -0.22791604912E+03 -0.29845746137E+02  0.27132062729E+03  0.12500000000E+03 0.  0.
         25    1    1    2    0    0 -0.17204893889E+02  0.17150293707E+02  0.25379177877E+01  0.12736397440E+03  0.12500000000E+03 0.  0.
</event>
<event>
 5    0  0.5568866E-005  0.2468477E+03  0.7546771E-02  0.1115313E+00
         21   -1    0    0  502  501  0.00000000000E+00  0.00000000000E+00  0.18644056199E+03  0.18644056199E+03  0.00000000000E+00 0. -1.
         21   -1    0    0  501  502 -0.00000000000E+00 -0.00000000000E+00 -0.32682692286E+03  0.32682692286E+03  0.00000000000E+00 0. -1.
         25    1    1    2    0    0 -0.84059595673E+02 -0.63862605057E+02 -0.89814014102E+02  0.18664405985E+03  0.12500000000E+03 0.  0.
         25    1    1    2    0    0  0.59220990878E+02  0.98558715241E+02  0.29182059894E+02  0.17232973838E+03  0.12500000000E+03 0.  0.
         25    1    1    2    0    0  0.24838604794E+02 -0.34696110184E+02 -0.79754406658E+02  0.15429368662E+03  0.12500000000E+03 0.  0.
</event>
<event>
 5    0  0.5568866E-005  0.4020106E+03  0.7546771E-02  0.1043086E+00
         21   -1    0    0  502  501  0.00000000000E+00  0.00000000000E+00  0.41841682082E+03  0.41841682082E+03  0.00000000000E+00 0. -1.
         21   -1    0    0  501  502 -0.00000000000E+00 -0.00000000000E+00 -0.38624760467E+03  0.38624760467E+03  0.00000000000E+00 0. -1.
         25    1    1    2    0    0 -0.13613750391E+02 -0.11359428934E+03 -0.21071512579E+03  0.27039759801E+03  0.12500000000E+03 0.  0.
         25    1    1    2    0    0  0.13704037794E+02 -0.36340371104E+02  0.30295835711E+03  0.33002604347E+03  0.12500000000E+03 0.  0.
         25    1    1    2    0    0 -0.90287402511E-01  0.14993466045E+03 -0.60074015179E+02  0.20424078401E+03  0.12500000000E+03 0.  0.
</event>
<event>
 5    0  0.5568866E-005  0.4275083E+03  0.7546771E-02  0.1034650E+00
         21   -1    0    0  502  501  0.00000000000E+00  0.00000000000E+00  0.10534602619E+04  0.10534602619E+04  0.00000000000E+00 0. -1.
         21   -1    0    0  501  502 -0.00000000000E+00 -0.00000000000E+00 -0.17348862285E+03  0.17348862285E+03  0.00000000000E+00 0. -1.
         25    1    1    2    0    0 -0.10295364554E+03  0.10783887641E+03  0.89160443343E+03  0.91258541633E+03  0.12500000000E+03 0.  0.
         25    1    1    2    0    0  0.10797099582E+03 -0.81091637234E+02  0.11477814081E+02  0.18436466522E+03  0.12500000000E+03 0.  0.
         25    1    1    2    0    0 -0.50173502709E+01 -0.26747239173E+02 -0.23110608466E+02  0.12999880319E+03  0.12500000000E+03 0.  0.
</event>
<event>
 5    0  0.5568866E-005  0.3149012E+03  0.7546771E-02  0.1078020E+00
         21   -1    0    0  502  501  0.00000000000E+00  0.00000000000E+00  0.14753569166E+04  0.14753569166E+04  0.00000000000E+00 0.  1.
         21   -1    0    0  501  502 -0.00000000000E+00 -0.00000000000E+00 -0.67212745179E+02  0.67212745179E+02  0.00000000000E+00 0.  1.
         25    1    1    2    0    0 -0.36562917134E+01  0.44999840638E+01  0.40654868270E+03  0.42537095544E+03  0.12500000000E+03 0.  0.
         25    1    1    2    0    0  0.13569338349E+03 -0.15506971658E+03  0.35701342840E+03  0.43074690873E+03  0.12500000000E+03 0.  0.
         25    1    1    2    0    0 -0.13203709178E+03  0.15056973251E+03  0.64458206029E+03  0.68645179758E+03  0.12500000000E+03 0.  0.
</event>
<event>
 5    0  0.5568866E-005  0.2065567E+03  0.7546771E-02  0.1144322E+00
         21   -1    0    0  502  501  0.00000000000E+00  0.00000000000E+00  0.19404337898E+04  0.19404337898E+04  0.00000000000E+00 0. -1.
         21   -1    0    0  501  502 -0.00000000000E+00 -0.00000000000E+00 -0.21987696463E+02  0.21987696463E+02  0.00000000000E+00 0. -1.
         25    1    1    2    0    0 -0.15087533485E+02 -0.17653932500E+02  0.36512103346E+03  0.38662341377E+03  0.12500000000E+03 0.  0.
         25    1    1    2    0    0 -0.20217137191E+02  0.38349481137E+02  0.85826746198E+03  0.86840511954E+03  0.12500000000E+03 0.  0.
         25    1    1    2    0    0  0.35304670675E+02 -0.20695548637E+02  0.69505759793E+03  0.70739295299E+03  0.12500000000E+03 0.  0.
</event>
<event>
 5    0  0.7565979E-005  0.3277995E+03  0.7546771E-02  0.1072115E+00
         21   -1    0    0  502  501  0.00000000000E+00  0.00000000000E+00  0.95374170113E+03  0.95374170113E+03  0.00000000000E+00 0. -1.
         21   -1    0    0  501  502 -0.00000000000E+00 -0.00000000000E+00 -0.11266413921E+03  0.11266413921E+03  0.00000000000E+00 0. -1.
         25    1    1    2    0    0  0.13490129853E+03  0.18280769269E+03  0.44149412759E+03  0.51201472396E+03  0.12500000000E+03 0.  0.
         25    1    1    2    0    0 -0.56013967661E+02 -0.95655419603E+02  0.32872471831E+03  0.36874444308E+03  0.12500000000E+03 0.  0.
         25    1    1    2    0    0 -0.78887330866E+02 -0.87152273089E+02  0.70858716013E+02  0.18564667331E+03  0.12500000000E+03 0.  0.
</event>
<event>
 5    0  0.6124739E-005  0.5731728E+03  0.7546771E-02  0.9962682E-01
         21   -1    0    0  502  501  0.00000000000E+00  0.00000000000E+00  0.62370226039E+03  0.62370226039E+03  0.00000000000E+00 0. -1.
         21   -1    0    0  501  502 -0.00000000000E+00 -0.00000000000E+00 -0.52673702141E+03  0.52673702141E+03  0.00000000000E+00 0. -1.
         25    1    1    2    0    0  0.24498610138E+03  0.10249055030E+03  0.34325210832E+02  0.29550926021E+03  0.12500000000E+03 0.  0.
         25    1    1    2    0    0 -0.19116546744E+03 -0.19831615196E+03  0.38650331383E+03  0.49079867937E+03  0.12500000000E+03 0.  0.
         25    1    1    2    0    0 -0.53820633939E+02  0.95825601664E+02 -0.32386328569E+03  0.36413134222E+03  0.12500000000E+03 0.  0.
</event>
<event>
 5    0  0.5568866E-005  0.2594727E+03  0.7546771E-02  0.1107460E+00
         21   -1    0    0  502  501  0.00000000000E+00  0.00000000000E+00  0.10019910675E+04  0.10019910675E+04  0.00000000000E+00 0. -1.
         21   -1    0    0  501  502 -0.00000000000E+00 -0.00000000000E+00 -0.67192313607E+02  0.67192313607E+02  0.00000000000E+00 0. -1.
         25    1    1    2    0    0  0.42195797171E+02 -0.11934801136E+02  0.23547872486E+03  0.27018170670E+03  0.12500000000E+03 0.  0.
         25    1    1    2    0    0 -0.13704099621E+03 -0.33698195072E+02  0.20563149501E+03  0.27897153033E+03  0.12500000000E+03 0.  0.
         25    1    1    2    0    0  0.94845199035E+02  0.45632996208E+02  0.49368853406E+03  0.52003014411E+03  0.12500000000E+03 0.  0.
</event>
<event>
 5    0  0.5568866E-005  0.3681781E+03  0.7546771E-02  0.1055392E+00
         21   -1    0    0  502  501  0.00000000000E+00  0.00000000000E+00  0.17481159828E+03  0.17481159828E+03  0.00000000000E+00 0. -1.
         21   -1    0    0  501  502 -0.00000000000E+00 -0.00000000000E+00 -0.77543546597E+03  0.77543546597E+03  0.00000000000E+00 0. -1.
         25    1    1    2    0    0 -0.15043138203E+03  0.77992388071E+02 -0.62086981589E+02  0.21952723426E+03  0.12500000000E+03 0.  0.
         25    1    1    2    0    0  0.14451567617E+03  0.13967457858E+03 -0.20414056308E+03  0.31255741561E+03  0.12500000000E+03 0.  0.
         25    1    1    2    0    0  0.59157058674E+01 -0.21766696665E+03 -0.33439632303E+03  0.41816241438E+03  0.12500000000E+03 0.  0.
</event>
<event>
 5    0  0.5568866E-005  0.4137742E+03  0.7546771E-02  0.1039112E+00
         21   -1    0    0  502  501  0.00000000000E+00  0.00000000000E+00  0.15469179836E+03  0.15469179836E+03  0.00000000000E+00 0.  1.
         21   -1    0    0  501  502 -0.00000000000E+00 -0.00000000000E+00 -0.11067753018E+04  0.11067753018E+04  0.00000000000E+00 0.  1.
         25    1    1    2    0    0  0.19315513164E+03 -0.14986316203E+03 -0.34315185425E+03  0.43948386465E+03  0.12500000000E+03 0.  0.
         25    1    1    2    0    0  0.24602582668E+02  0.23854816630E+03 -0.21024706369E+03  0.34254830683E+03  0.12500000000E+03 0.  0.
         25    1    1    2    0    0 -0.21775771431E+03 -0.88685004272E+02 -0.39868458545E+03  0.47943492864E+03  0.12500000000E+03 0.  0.
</event>
<event>
 5    0  0.5568866E-005  0.2705588E+03  0.7546771E-02  0.1100960E+00
         21   -1    0    0  502  501  0.00000000000E+00  0.00000000000E+00  0.96263751310E+02  0.96263751310E+02  0.00000000000E+00 0.  1.
         21   -1    0    0  501  502 -0.00000000000E+00 -0.00000000000E+00 -0.76043216693E+03  0.76043216693E+03  0.00000000000E+00 0. -1.
         25    1    1    2    0    0  0.13770026706E+03  0.32564112796E+01 -0.30137551983E+03  0.35415275195E+03  0.12500000000E+03 0.  0.
         25    1    1    2    0    0 -0.10834110280E+03  0.46017460141E+02 -0.82852805588E+02  0.19064361670E+03  0.12500000000E+03 0.  0.
         25    1    1    2    0    0 -0.29359164258E+02 -0.49273871421E+02 -0.27994009020E+03  0.31189954959E+03  0.12500000000E+03 0.  0.
</event>
<event>
 5    0  0.5568866E-005  0.6017652E+03  0.7546771E-02  0.9901751E-01
         21   -1    0    0  502  501  0.00000000000E+00  0.00000000000E+00  0.91578615106E+03  0.91578615106E+03  0.00000000000E+00 0.  1.
         21   -1    0    0  501  502 -0.00000000000E+00 -0.00000000000E+00 -0.39542124926E+03  0.39542124926E+03  0.00000000000E+00 0.  1.
         25    1    1    2    0    0  0.40359760202E+03  0.28793673833E+03  0.13775881198E+03  0.52952911148E+03  0.12500000000E+03 0.  0.
         25    1    1    2    0    0 -0.87301483836E+02  0.77916222551E+02  0.16165140734E+03  0.23547540065E+03  0.12500000000E+03 0.  0.
         25    1    1    2    0    0 -0.31629611818E+03 -0.36585296088E+03  0.22095468249E+03  0.54620288819E+03  0.12500000000E+03 0.  0.
</event>
<event>
 5    0  0.5568866E-005  0.2594393E+03  0.7546771E-02  0.1107481E+00
         21   -1    0    0  502  501  0.00000000000E+00  0.00000000000E+00  0.59712332998E+03  0.59712332998E+03  0.00000000000E+00 0.  1.
         21   -1    0    0  501  502 -0.00000000000E+00 -0.00000000000E+00 -0.11272172988E+03  0.11272172988E+03  0.00000000000E+00 0.  1.
         25    1    1    2    0    0 -0.80534996932E+02 -0.11382408604E+03  0.24299947826E+03  0.30678258544E+03  0.12500000000E+03 0.  0.
         25    1    1    2    0    0  0.22056846083E+02  0.48557713396E+02  0.20527974401E+03  0.24618921441E+03  0.12500000000E+03 0.  0.
         25    1    1    2    0    0  0.58478150849E+02  0.65266372646E+02  0.36122377826E+02  0.15687326001E+03  0.12500000000E+03 0.  0.
</event>
<event>
 5    0  0.5568866E-005  0.2679365E+03  0.7546771E-02  0.1102466E+00
         21   -1    0    0  502  501  0.00000000000E+00  0.00000000000E+00  0.39507616297E+03  0.39507616297E+03  0.00000000000E+00 0.  1.
         21   -1    0    0  501  502 -0.00000000000E+00 -0.00000000000E+00 -0.18171176074E+03  0.18171176074E+03  0.00000000000E+00 0.  1.
         25    1    1    2    0    0  0.50760764312E+02 -0.11508651005E+02  0.88602149795E+02  0.16181608446E+03  0.12500000000E+03 0.  0.
         25    1    1    2    0    0 -0.41260156407E+02  0.48083639990E+02  0.21471481265E+03  0.25640180911E+03  0.12500000000E+03 0.  0.
         25    1    1    2    0    0 -0.95006079046E+01 -0.36574988985E+02 -0.89952560218E+02  0.15857003014E+03  0.12500000000E+03 0.  0.
</event>
<event>
 5    0  0.5568866E-005  0.3219369E+03  0.7546771E-02  0.1074761E+00
         21   -1    0    0  502  501  0.00000000000E+00  0.00000000000E+00  0.15965752458E+04  0.15965752458E+04  0.00000000000E+00 0. -1.
         21   -1    0    0  501  502 -0.00000000000E+00 -0.00000000000E+00 -0.64916041933E+02  0.64916041933E+02  0.00000000000E+00 0. -1.
         25    1    1    2    0    0 -0.10799097418E+03 -0.60580999418E+02  0.11594651530E+03  0.21071474178E+03  0.12500000000E+03 0.  0.
         25    1    1    2    0    0  0.36743466103E+02  0.97526955294E+02  0.60172399831E+03  0.62334449501E+03  0.12500000000E+03 0.  0.
         25    1    1    2    0    0  0.71247508077E+02 -0.36945955877E+02  0.81398869027E+03  0.82743205096E+03  0.12500000000E+03 0.  0.
</event>
<event>
 5    0  0.5568866E-005  0.2397324E+03  0.7546771E-02  0.1119971E+00
         21   -1    0    0  502  501  0.00000000000E+00  0.00000000000E+00  0.53753377743E+02  0.53753377743E+02  0.00000000000E+00 0.  1.
         21   -1    0    0  501  502 -0.00000000000E+00 -0.00000000000E+00 -0.10691722137E+04  0.10691722137E+04  0.00000000000E+00 0.  1.
         25    1    1    2    0    0  0.70637395312E+02 -0.41807552032E+01 -0.15681436210E+03  0.21265668222E+03  0.12500000000E+03 0.  0.
         25    1    1    2    0    0  0.31453325547E+01 -0.63852039126E+02 -0.35450857609E+03  0.38129818586E+03  0.12500000000E+03 0.  0.
         25    1    1    2    0    0 -0.73782727867E+02  0.68032794329E+02 -0.50409589777E+03  0.52897072337E+03  0.12500000000E+03 0.  0.
</event>
<event>
 5    0  0.5568866E-005  0.4158691E+03  0.7546771E-02  0.1038419E+00
         21   -1    0    0  502  501  0.00000000000E+00  0.00000000000E+00  0.11352848887E+04  0.11352848887E+04  0.00000000000E+00 0. -1.
         21   -1    0    0  501  502 -0.00000000000E+00 -0.00000000000E+00 -0.15233805626E+03  0.15233805626E+03  0.00000000000E+00 0. -1.
         25    1    1    2    0    0 -0.15861353464E+03  0.82650157256E+01  0.28064972941E+02  0.20405687090E+03  0.12500000000E+03 0.  0.
         25    1    1    2    0    0  0.57619524002E+02  0.12826969341E+03  0.12160635345E+03  0.22402283141E+03  0.12500000000E+03 0.  0.
         25    1    1    2    0    0  0.10099401064E+03 -0.13653470914E+03  0.83327550603E+03  0.85954324262E+03  0.12500000000E+03 0.  0.
</event>
<event>
 5    0  0.5568866E-005  0.2767215E+03  0.7546771E-02  0.1097493E+00
         21   -1    0    0  502  501  0.00000000000E+00  0.00000000000E+00  0.50908503690E+03  0.50908503690E+03  0.00000000000E+00 0. -1.
         21   -1    0    0  501  502 -0.00000000000E+00 -0.00000000000E+00 -0.15041645056E+03  0.15041645056E+03  0.00000000000E+00 0. -1.
         25    1    1    2    0    0  0.15445415552E+03  0.33950092625E+02  0.18948811735E+03  0.27665762517E+03  0.12500000000E+03 0.  0.
         25    1    1    2    0    0 -0.30053213732E+02 -0.86264235960E+02  0.10883944535E+03  0.18925046612E+03  0.12500000000E+03 0.  0.
         25    1    1    2    0    0 -0.12440094178E+03  0.52314143335E+02  0.60341023639E+02  0.19359339618E+03  0.12500000000E+03 0.  0.
</event>
<event>
 5    0  0.5568866E-005  0.2339170E+03  0.7546771E-02  0.1123913E+00
         21   -1    0    0  502  501  0.00000000000E+00  0.00000000000E+00  0.77114511581E+03  0.77114511581E+03  0.00000000000E+00 0.  1.
         21   -1    0    0  501  502 -0.00000000000E+00 -0.00000000000E+00 -0.70955710631E+02  0.70955710631E+02  0.00000000000E+00 0.  1.
         25    1    1    2    0    0  0.13287610717E+02 -0.83663508948E+01  0.64815470842E+02  0.14167780944E+03  0.12500000000E+03 0.  0.
         25    1    1    2    0    0 -0.70836404444E+02 -0.15049237732E+02  0.22915734615E+03  0.27089179583E+03  0.12500000000E+03 0.  0.
         25    1    1    2    0    0  0.57548793727E+02  0.23415588626E+02  0.40621658819E+03  0.42953122118E+03  0.12500000000E+03 0.  0.
</event>
<event>
 5    0  0.5568866E-005  0.3737537E+03  0.7546771E-02  0.1053267E+00
         21   -1    0    0  502  501  0.00000000000E+00  0.00000000000E+00  0.11466492383E+04  0.11466492383E+04  0.00000000000E+00 0.  1.
         21   -1    0    0  501  502 -0.00000000000E+00 -0.00000000000E+00 -0.12182610220E+03  0.12182610220E+03  0.00000000000E+00 0.  1.
         25    1    1    2    0    0 -0.10991867447E+02 -0.20924560083E+03  0.20653131054E+03  0.31966345561E+03  0.12500000000E+03 0.  0.
         25    1    1    2    0    0  0.12680045542E+03  0.14582429086E+03  0.68704905794E+03  0.72457193384E+03  0.12500000000E+03 0.  0.
         25    1    1    2    0    0 -0.11580858798E+03  0.63421309968E+02  0.13124276766E+03  0.22423995110E+03  0.12500000000E+03 0.  0.
</event>
<event>
 5    0  0.5568866E-005  0.3385874E+03  0.7546771E-02  0.1067399E+00
         21   -1    0    0  502  501  0.00000000000E+00  0.00000000000E+00  0.72799610122E+02  0.72799610122E+02  0.00000000000E+00 0. -1.
         21   -1    0    0  501  502 -0.00000000000E+00 -0.00000000000E+00 -0.15747534748E+04  0.15747534748E+04  0.00000000000E+00 0. -1.
         25    1    1    2    0    0  0.73069021793E+02 -0.11657274028E+03 -0.10919251916E+03  0.21558360782E+03  0.12500000000E+03 0.  0.
         25    1    1    2    0    0  0.35227944126E+02  0.69504513553E+02 -0.44528309116E+03  0.46901377029E+03  0.12500000000E+03 0.  0.
         25    1    1    2    0    0 -0.10829696592E+03  0.47068226723E+02 -0.94747825434E+03  0.96295570679E+03  0.12500000000E+03 0.  0.
</event>
<event>
 5    0  0.5568866E-005  0.2657152E+03  0.7546771E-02  0.1103757E+00
         21   -1    0    0  502  501  0.00000000000E+00  0.00000000000E+00  0.76333899476E+03  0.76333899476E+03  0.00000000000E+00 0.  1.
         21   -1    0    0  501  502 -0.00000000000E+00 -0.00000000000E+00 -0.92494403504E+02  0.92494403504E+02  0.00000000000E+00 0.  1.
         25    1    1    2    0    0 -0.17003156462E+00  0.82271054854E+01  0.11275417137E+02  0.12577698202E+03  0.12500000000E+03 0.  0.
         25    1    1    2    0    0 -0.30484550304E+02  0.57175710707E+02  0.47676258646E+03  0.49711762547E+03  0.12500000000E+03 0.  0.
         25    1    1    2    0    0  0.30654581868E+02 -0.65402816193E+02  0.18280658766E+03  0.23293879077E+03  0.12500000000E+03 0.  0.
</event>
<event>
 5    0  0.5568866E-005  0.5974106E+03  0.7546771E-02  0.9910793E-01
         21   -1    0    0  502  501  0.00000000000E+00  0.00000000000E+00  0.25411745868E+04  0.25411745868E+04  0.00000000000E+00 0.  1.
         21   -1    0    0  501  502 -0.00000000000E+00 -0.00000000000E+00 -0.14044665642E+03  0.14044665642E+03  0.00000000000E+00 0.  1.
         25    1    1    2    0    0  0.36727869644E+03  0.13972969658E+03  0.18342391000E+04  0.18800202406E+04  0.12500000000E+03 0.  0.
         25    1    1    2    0    0 -0.17782518886E+03  0.77218846720E+02  0.13274529222E+03  0.26614067838E+03  0.12500000000E+03 0.  0.
         25    1    1    2    0    0 -0.18945350758E+03 -0.21694854330E+03  0.43374353816E+03  0.53546032427E+03  0.12500000000E+03 0.  0.
</event>
<event>
 5    0  0.6108584E-005  0.2848154E+03  0.7546771E-02  0.1093088E+00
         21   -1    0    0  502  501  0.00000000000E+00  0.00000000000E+00  0.83071341480E+02  0.83071341480E+02  0.00000000000E+00 0.  1.
         21   -1    0    0  501  502 -0.00000000000E+00 -0.00000000000E+00 -0.97650791236E+03  0.97650791236E+03  0.00000000000E+00 0.  1.
         25    1    1    2    0    0 -0.17880137787E+03 -0.55736988928E+01 -0.23043368095E+03  0.31737309300E+03  0.12500000000E+03 0.  0.
         25    1    1    2    0    0  0.49797353165E+02  0.16307590506E+02 -0.40934280302E+03  0.43119861349E+03  0.12500000000E+03 0.  0.
         25    1    1    2    0    0  0.12900402470E+03 -0.10733891613E+02 -0.25366008692E+03  0.31100754736E+03  0.12500000000E+03 0.  0.
</event>
<event>
 5    0  0.5568866E-005  0.4265418E+03  0.7546771E-02  0.1034958E+00
         21   -1    0    0  502  501  0.00000000000E+00  0.00000000000E+00  0.11375684824E+04  0.11375684824E+04  0.00000000000E+00 0.  1.
         21   -1    0    0  501  502 -0.00000000000E+00 -0.00000000000E+00 -0.15993580811E+03  0.15993580811E+03  0.00000000000E+00 0.  1.
         25    1    1    2    0    0 -0.14764017374E+03  0.51985579643E+02  0.10912492287E+03  0.22810824225E+03  0.12500000000E+03 0.  0.
         25    1    1    2    0    0  0.18472839982E+03 -0.23482273380E+03  0.24328441241E+03  0.40506617155E+03  0.12500000000E+03 0.  0.
         25    1    1    2    0    0 -0.37088226088E+02  0.18283715416E+03  0.62522333899E+03  0.66432987670E+03  0.12500000000E+03 0.  0.
</event>
<event>
 5    0  0.5568866E-005  0.3928102E+03  0.7546771E-02  0.1046298E+00
         21   -1    0    0  502  501  0.00000000000E+00  0.00000000000E+00  0.25650614767E+03  0.25650614767E+03  0.00000000000E+00 0.  1.
         21   -1    0    0  501  502 -0.00000000000E+00 -0.00000000000E+00 -0.60154444461E+03  0.60154444461E+03  0.00000000000E+00 0.  1.
         25    1    1    2    0    0  0.10155612216E+03 -0.18389652059E+03 -0.36062961510E+03  0.43567223404E+03  0.12500000000E+03 0.  0.
         25    1    1    2    0    0  0.14122845794E+02  0.21200962540E+03  0.33697810377E+02  0.24881334060E+03  0.12500000000E+03 0.  0.
         25    1    1    2    0    0 -0.11567896796E+03 -0.28113104810E+02 -0.18106492219E+02  0.17356501765E+03  0.12500000000E+03 0.  0.
</event>
<event>
 5    0  0.5568866E-005  0.4176189E+03  0.7546771E-02  0.1037844E+00
         21   -1    0    0  502  501  0.00000000000E+00  0.00000000000E+00  0.19269336285E+03  0.19269336285E+03  0.00000000000E+00 0.  1.
         21   -1    0    0  501  502 -0.00000000000E+00 -0.00000000000E+00 -0.90509362015E+03  0.90509362015E+03  0.00000000000E+00 0.  1.
         25    1    1    2    0    0 -0.12793784405E+03  0.36934290022E+01 -0.11347963869E+03  0.21185929707E+03  0.12500000000E+03 0.  0.
         25    1    1    2    0    0 -0.11403689139E+02  0.22856814156E+03 -0.56387171874E+02  0.26679196505E+03  0.12500000000E+03 0.  0.
         25    1    1    2    0    0  0.13934153319E+03 -0.23226157056E+03 -0.54253344675E+03  0.61913572088E+03  0.12500000000E+03 0.  0.
</event>
<event>
 5    0  0.5568866E-005  0.2567038E+03  0.7546771E-02  0.1109140E+00
         21   -1    0    0  502  501  0.00000000000E+00  0.00000000000E+00  0.24825209735E+04  0.24825209735E+04  0.00000000000E+00 0. -1.
         21   -1    0    0  501  502 -0.00000000000E+00 -0.00000000000E+00 -0.26544326598E+02  0.26544326598E+02  0.00000000000E+00 0. -1.
         25    1    1    2    0    0  0.79037350690E+01  0.14979570351E+03  0.83000408002E+03  0.85266229814E+03  0.12500000000E+03 0.  0.
         25    1    1    2    0    0  0.22560377143E+02 -0.98476773454E+02  0.11328898602E+04  0.11442338401E+04  0.12500000000E+03 0.  0.
         25    1    1    2    0    0 -0.30464112212E+02 -0.51318930057E+02  0.49308270676E+03  0.51216916192E+03  0.12500000000E+03 0.  0.
</event>
<event>
 5    0  0.5568866E-005  0.3252967E+03  0.7546771E-02  0.1073237E+00
         21   -1    0    0  502  501  0.00000000000E+00  0.00000000000E+00  0.11364251992E+03  0.11364251992E+03  0.00000000000E+00 0.  1.
         21   -1    0    0  501  502 -0.00000000000E+00 -0.00000000000E+00 -0.93114746895E+03  0.93114746895E+03  0.00000000000E+00 0.  1.
         25    1    1    2    0    0 -0.13717711583E+03 -0.11099002798E+02 -0.32744028736E+02  0.18878008472E+03  0.12500000000E+03 0.  0.
         25    1    1    2    0    0  0.61417080761E+02 -0.81498319542E+02 -0.29009105080E+03  0.33195158028E+03  0.12500000000E+03 0.  0.
         25    1    1    2    0    0  0.75760035067E+02  0.92597322340E+02 -0.49466986950E+03  0.52405832386E+03  0.12500000000E+03 0.  0.
</event>
<event>
 5    0  0.5568866E-005  0.6029306E+03  0.7546771E-02  0.9899345E-01
         21   -1    0    0  502  501  0.00000000000E+00  0.00000000000E+00  0.33849745218E+03  0.33849745218E+03  0.00000000000E+00 0.  1.
         21   -1    0    0  501  502 -0.00000000000E+00 -0.00000000000E+00 -0.10739382222E+04  0.10739382222E+04  0.00000000000E+00 0.  1.
         25    1    1    2    0    0  0.38888973655E+03 -0.26457181759E+03 -0.52663123230E+03  0.71707665468E+03  0.12500000000E+03 0.  0.
         25    1    1    2    0    0 -0.16250942691E+03 -0.84188411937E+02 -0.12057646996E+03  0.25231069665E+03  0.12500000000E+03 0.  0.
         25    1    1    2    0    0 -0.22638030964E+03  0.34876022953E+03 -0.88233067759E+02  0.44304832303E+03  0.12500000000E+03 0.  0.
</event>
<event>
 5    0  0.5568866E-005  0.3271466E+03  0.7546771E-02  0.1072406E+00
         21   -1    0    0  502  501  0.00000000000E+00  0.00000000000E+00  0.76604640159E+02  0.76604640159E+02  0.00000000000E+00 0.  1.
         21   -1    0    0  501  502 -0.00000000000E+00 -0.00000000000E+00 -0.13971076683E+04  0.13971076683E+04  0.00000000000E+00 0.  1.
         25    1    1    2    0    0 -0.12968476354E+03 -0.12058375436E+03 -0.67794024474E+03  0.71174894109E+03  0.12500000000E+03 0.  0.
         25    1    1    2    0    0  0.29107218534E+02 -0.35568479363E+02 -0.77326235159E+02  0.15400225173E+03  0.12500000000E+03 0.  0.
         25    1    1    2    0    0  0.10057754500E+03  0.15615223372E+03 -0.56523654824E+03  0.60796111564E+03  0.12500000000E+03 0.  0.
</event>
<event>
 5    0  0.5568866E-005  0.2862186E+03  0.7546771E-02  0.1092340E+00
         21   -1    0    0  502  501  0.00000000000E+00  0.00000000000E+00  0.21785705157E+04  0.21785705157E+04  0.00000000000E+00 0. -1.
         21   -1    0    0  501  502 -0.00000000000E+00 -0.00000000000E+00 -0.37603150170E+02  0.37603150170E+02  0.00000000000E+00 0. -1.
         25    1    1    2    0    0  0.12916066210E+03  0.45585894842E+02  0.34499335048E+03  0.39167073202E+03  0.12500000000E+03 0.  0.
         25    1    1    2    0    0 -0.45901868781E+02 -0.62974729944E+02  0.54979696449E+03  0.56918757922E+03  0.12500000000E+03 0.  0.
         25    1    1    2    0    0 -0.83258793320E+02  0.17388835102E+02  0.12461770506E+04  0.12553153546E+04  0.12500000000E+03 0.  0.
</event>
<event>
 5    0  0.5568866E-005  0.2586445E+03  0.7546771E-02  0.1107960E+00
         21   -1    0    0  502  501  0.00000000000E+00  0.00000000000E+00  0.20779923720E+03  0.20779923720E+03  0.00000000000E+00 0. -1.
         21   -1    0    0  501  502 -0.00000000000E+00 -0.00000000000E+00 -0.32193088801E+03  0.32193088801E+03  0.00000000000E+00 0. -1.
         25    1    1    2    0    0 -0.14253647345E+03 -0.31607293346E+01 -0.12971232563E+03  0.22973228745E+03  0.12500000000E+03 0.  0.
         25    1    1    2    0    0  0.97136657949E+02  0.16135662368E+02  0.40207733977E+02  0.16412663339E+03  0.12500000000E+03 0.  0.
         25    1    1    2    0    0  0.45399815501E+02 -0.12974933033E+02 -0.24627059156E+02  0.13587120437E+03  0.12500000000E+03 0.  0.
</event>
<event>
 5    0  0.5568866E-005  0.3287546E+03  0.7546771E-02  0.1071689E+00
         21   -1    0    0  502  501  0.00000000000E+00  0.00000000000E+00  0.85761392274E+03  0.85761392274E+03  0.00000000000E+00 0.  1.
         21   -1    0    0  501  502 -0.00000000000E+00 -0.00000000000E+00 -0.12602358282E+03  0.12602358282E+03  0.00000000000E+00 0.  1.
         25    1    1    2    0    0 -0.15817238949E+03  0.55741748515E+02  0.83247137383E+02  0.22512381750E+03  0.12500000000E+03 0.  0.
         25    1    1    2    0    0  0.44062282107E+02 -0.84981968024E+02  0.52217673355E+03  0.54539615020E+03  0.12500000000E+03 0.  0.
         25    1    1    2    0    0  0.11411010738E+03  0.29240219510E+02  0.12616646899E+03  0.21311753785E+03  0.12500000000E+03 0.  0.
</event>
<event>
 5    0  0.5568866E-005  0.3437818E+03  0.7546771E-02  0.1065197E+00
         21   -1    0    0  502  501  0.00000000000E+00  0.00000000000E+00  0.41370739891E+03  0.41370739891E+03  0.00000000000E+00 0.  1.
         21   -1    0    0  501  502 -0.00000000000E+00 -0.00000000000E+00 -0.28567514787E+03  0.28567514787E+03  0.00000000000E+00 0.  1.
         25    1    1    2    0    0 -0.96102999244E+00  0.15378278746E+03  0.89832783086E+02  0.21758905812E+03  0.12500000000E+03 0.  0.
         25    1    1    2    0    0 -0.16961919385E+03  0.11149304083E+02  0.32938853716E+02  0.21355314559E+03  0.12500000000E+03 0.  0.
         25    1    1    2    0    0  0.17058022385E+03 -0.16493209155E+03  0.52606142405E+01  0.26824034307E+03  0.12500000000E+03 0.  0.
</event>
<event>
 5    0  0.5568866E-005  0.3470349E+03  0.7546771E-02  0.1063839E+00
         21   -1    0    0  502  501  0.00000000000E+00  0.00000000000E+00  0.22052634540E+03  0.22052634540E+03  0.00000000000E+00 0.  1.
         21   -1    0    0  501  502 -0.00000000000E+00 -0.00000000000E+00 -0.54611722492E+03  0.54611722492E+03  0.00000000000E+00 0. -1.
         25    1    1    2    0    0 -0.27408229061E+03  0.11960835077E+02 -0.17127514075E+03  0.34673381353E+03  0.12500000000E+03 0.  0.
         25    1    1    2    0    0  0.18159234707E+03  0.88870363541E+01 -0.36326982212E+02  0.22360547749E+03  0.12500000000E+03 0.  0.
         25    1    1    2    0    0  0.92489943547E+02 -0.20847871431E+02 -0.11798875656E+03  0.19630427931E+03  0.12500000000E+03 0.  0.
</event>
<event>
 5    0  0.5950690E-005  0.2661102E+03  0.7546771E-02  0.1103527E+00
         21   -1    0    0  502  501  0.00000000000E+00  0.00000000000E+00  0.56840226297E+03  0.56840226297E+03  0.00000000000E+00 0. -1.
         21   -1    0    0  501  502 -0.00000000000E+00 -0.00000000000E+00 -0.12458542081E+03  0.12458542081E+03  0.00000000000E+00 0. -1.
         25    1    1    2    0    0 -0.49395036895E+02  0.69553400817E+02  0.12134414462E+03  0.19397666527E+03  0.12500000000E+03 0.  0.
         25    1    1    2    0    0  0.90732061896E+02 -0.72747043896E+02  0.23531118363E+02  0.17234602688E+03  0.12500000000E+03 0.  0.
         25    1    1    2    0    0 -0.41337025001E+02  0.31936430789E+01  0.29894157918E+03  0.32666499163E+03  0.12500000000E+03 0.  0.
</event>
<event>
 5    0  0.5568866E-005  0.3216919E+03  0.7546771E-02  0.1074873E+00
         21   -1    0    0  502  501  0.00000000000E+00  0.00000000000E+00  0.34224346819E+03  0.34224346819E+03  0.00000000000E+00 0.  1.
         21   -1    0    0  501  502 -0.00000000000E+00 -0.00000000000E+00 -0.30237452894E+03  0.30237452894E+03  0.00000000000E+00 0.  1.
         25    1    1    2    0    0 -0.31489419379E+02  0.12686017140E+02 -0.60643006590E+02  0.14302130195E+03  0.12500000000E+03 0.  0.
         25    1    1    2    0    0  0.17089934209E+03  0.81022645898E+02 -0.63716030778E+02  0.23549094856E+03  0.12500000000E+03 0.  0.
         25    1    1    2    0    0 -0.13940992271E+03 -0.93708663037E+02  0.16422797662E+03  0.26610574662E+03  0.12500000000E+03 0.  0.
</event>
<event>
 5    0  0.5568866E-005  0.2792838E+03  0.7546771E-02  0.1096081E+00
         21   -1    0    0  502  501  0.00000000000E+00  0.00000000000E+00  0.61852440928E+03  0.61852440928E+03  0.00000000000E+00 0.  1.
         21   -1    0    0  501  502 -0.00000000000E+00 -0.00000000000E+00 -0.12610565308E+03  0.12610565308E+03  0.00000000000E+00 0.  1.
         25    1    1    2    0    0 -0.52942697069E+02 -0.15590471290E+01  0.29461154058E+03  0.32438606574E+03  0.12500000000E+03 0.  0.
         25    1    1    2    0    0 -0.78365928144E+02 -0.83150953798E+02  0.10838228636E+03  0.20106471547E+03  0.12500000000E+03 0.  0.
         25    1    1    2    0    0  0.13130862521E+03  0.84710000927E+02  0.89424929260E+02  0.21917928115E+03  0.12500000000E+03 0.  0.
</event>
<event>
 5    0  0.5810867E-005  0.2693937E+03  0.7546771E-02  0.1101627E+00
         21   -1    0    0  502  501  0.00000000000E+00  0.00000000000E+00  0.50078009997E+03  0.50078009997E+03  0.00000000000E+00 0. -1.
         21   -1    0    0  501  502 -0.00000000000E+00 -0.00000000000E+00 -0.14491984488E+03  0.14491984488E+03  0.00000000000E+00 0. -1.
         25    1    1    2    0    0  0.12578486555E+02 -0.77742494577E+02  0.74679293047E+02  0.16554186962E+03  0.12500000000E+03 0.  0.
         25    1    1    2    0    0  0.10595429540E+03 -0.53767653638E+02  0.12761055940E+03  0.21453840720E+03  0.12500000000E+03 0.  0.
         25    1    1    2    0    0 -0.11853278196E+03  0.13151014821E+03  0.15357040264E+03  0.26561966804E+03  0.12500000000E+03 0.  0.
</event>
<event>
 5    0  0.5568866E-005  0.3355863E+03  0.7546771E-02  0.1068692E+00
         21   -1    0    0  502  501  0.00000000000E+00  0.00000000000E+00  0.69909256058E+03  0.69909256058E+03  0.00000000000E+00 0.  1.
         21   -1    0    0  501  502 -0.00000000000E+00 -0.00000000000E+00 -0.16109192480E+03  0.16109192480E+03  0.00000000000E+00 0.  1.
         25    1    1    2    0    0  0.30936756767E+02 -0.76296707940E+02 -0.31882359120E+02  0.15303514428E+03  0.12500000000E+03 0.  0.
         25    1    1    2    0    0  0.19810407380E+01 -0.66001367210E+02  0.46940750431E+03  0.49023311812E+03  0.12500000000E+03 0.  0.
         25    1    1    2    0    0 -0.32917797505E+02  0.14229807515E+03  0.10047549058E+03  0.21691622298E+03  0.12500000000E+03 0.  0.
</event>
<event>
 5    0  0.5568866E-005  0.3706971E+03  0.7546771E-02  0.1054427E+00
         21   -1    0    0  502  501  0.00000000000E+00  0.00000000000E+00  0.15544831350E+03  0.15544831350E+03  0.00000000000E+00 0.  1.
         21   -1    0    0  501  502 -0.00000000000E+00 -0.00000000000E+00 -0.88400014576E+03  0.88400014576E+03  0.00000000000E+00 0.  1.
         25    1    1    2    0    0  0.12654909460E+03 -0.82789721239E+02 -0.60842299773E+02  0.20541566817E+03  0.12500000000E+03 0.  0.
         25    1    1    2    0    0 -0.63668931972E+02 -0.14345062286E+03 -0.14508018547E+03  0.24759861533E+03  0.12500000000E+03 0.  0.
         25    1    1    2    0    0 -0.62880162625E+02  0.22624034409E+03 -0.52262934702E+03  0.58643417577E+03  0.12500000000E+03 0.  0.
</event>
<event>
 5    0  0.6130871E-005  0.3341011E+03  0.7546771E-02  0.1069337E+00
         21   -1    0    0  502  501  0.00000000000E+00  0.00000000000E+00  0.15899500928E+03  0.15899500928E+03  0.00000000000E+00 0.  1.
         21   -1    0    0  501  502 -0.00000000000E+00 -0.00000000000E+00 -0.70205676991E+03  0.70205676991E+03  0.00000000000E+00 0.  1.
         25    1    1    2    0    0 -0.11632643078E+02  0.66913397470E+02  0.52715497457E+02  0.15171237530E+03  0.12500000000E+03 0.  0.
         25    1    1    2    0    0  0.11348786612E+03 -0.12845771845E+03 -0.31583156603E+03  0.38046742211E+03  0.12500000000E+03 0.  0.
         25    1    1    2    0    0 -0.10185522304E+03  0.61544320980E+02 -0.27994569205E+03  0.32887198178E+03  0.12500000000E+03 0.  0.
</event>
<event>
 5    0  0.5568866E-005  0.2101059E+03  0.7546771E-02  0.1141482E+00
         21   -1    0    0  502  501  0.00000000000E+00  0.00000000000E+00  0.19966132751E+03  0.19966132751E+03  0.00000000000E+00 0. -1.
         21   -1    0    0  501  502 -0.00000000000E+00 -0.00000000000E+00 -0.22109691965E+03  0.22109691965E+03  0.00000000000E+00 0. -1.
         25    1    1    2    0    0  0.12360150943E+02 -0.23548038122E+02 -0.66323631765E+02  0.14398301136E+03  0.12500000000E+03 0.  0.
         25    1    1    2    0    0 -0.47630611422E+02  0.39623730510E+02  0.36504192598E+01  0.13956016883E+03  0.12500000000E+03 0.  0.
         25    1    1    2    0    0  0.35270460479E+02 -0.16075692389E+02  0.41237620363E+02  0.13721506696E+03  0.12500000000E+03 0.  0.
</event>
<event>
 5    0  0.5568866E-005  0.2779836E+03  0.7546771E-02  0.1096795E+00
         21   -1    0    0  502  501  0.00000000000E+00  0.00000000000E+00  0.24274940222E+03  0.24274940222E+03  0.00000000000E+00 0.  1.
         21   -1    0    0  501  502 -0.00000000000E+00 -0.00000000000E+00 -0.31833192719E+03  0.31833192719E+03  0.00000000000E+00 0.  1.
         25    1    1    2    0    0  0.46470505476E+02 -0.64036913012E+02  0.10620632075E+02  0.14831733524E+03  0.12500000000E+03 0.  0.
         25    1    1    2    0    0 -0.24787263151E+02  0.16303615214E+03 -0.13200602756E+03  0.24545017138E+03  0.12500000000E+03 0.  0.
         25    1    1    2    0    0 -0.21683242325E+02 -0.98999239128E+02  0.45802870520E+02  0.16731382278E+03  0.12500000000E+03 0.  0.
</event>
<event>
 5    0  0.5568866E-005  0.3166431E+03  0.7546771E-02  0.1077205E+00
         21   -1    0    0  502  501  0.00000000000E+00  0.00000000000E+00  0.69961111059E+03  0.69961111059E+03  0.00000000000E+00 0.  1.
         21   -1    0    0  501  502 -0.00000000000E+00 -0.00000000000E+00 -0.14331223813E+03  0.14331223813E+03  0.00000000000E+00 0.  1.
         25    1    1    2    0    0  0.36263212772E+02  0.58716380540E+02  0.25524194685E+03  0.29246552853E+03  0.12500000000E+03 0.  0.
         25    1    1    2    0    0 -0.17380095611E+03 -0.10754392134E+03  0.26077545365E+03  0.35412046621E+03  0.12500000000E+03 0.  0.
         25    1    1    2    0    0  0.13753774334E+03  0.48827540801E+02  0.40281471962E+02  0.19633735398E+03  0.12500000000E+03 0.  0.
</event>
<event>
 5    0  0.5568866E-005  0.2828017E+03  0.7546771E-02  0.1094168E+00
         21   -1    0    0  502  501  0.00000000000E+00  0.00000000000E+00  0.39966643406E+03  0.39966643406E+03  0.00000000000E+00 0. -1.
         21   -1    0    0  501  502 -0.00000000000E+00 -0.00000000000E+00 -0.20010886990E+03  0.20010886990E+03  0.00000000000E+00 0. -1.
         25    1    1    2    0    0  0.10457205124E+03  0.38466366190E+02  0.91016961639E+02  0.19058872614E+03  0.12500000000E+03 0.  0.
         25    1    1    2    0    0 -0.65145084441E+02  0.60975716900E+02 -0.67917825774E+02  0.16792781525E+03  0.12500000000E+03 0.  0.
         25    1    1    2    0    0 -0.39426966795E+02 -0.99442083090E+02  0.17645842829E+03  0.24125876257E+03  0.12500000000E+03 0.  0.
</event>
<event>
 5    0  0.5568866E-005  0.3934593E+03  0.7546771E-02  0.1046068E+00
         21   -1    0    0  502  501  0.00000000000E+00  0.00000000000E+00  0.13219348035E+04  0.13219348035E+04  0.00000000000E+00 0. -1.
         21   -1    0    0  501  502 -0.00000000000E+00 -0.00000000000E+00 -0.11710881059E+03  0.11710881059E+03  0.00000000000E+00 0. -1.
         25    1    1    2    0    0  0.97300096088E+02  0.84280095276E+01  0.44669673618E+03  0.47402670195E+03  0.12500000000E+03 0.  0.
         25    1    1    2    0    0 -0.75952355576E+02  0.25654614248E+03  0.45879225082E+03  0.54561892649E+03  0.12500000000E+03 0.  0.
         25    1    1    2    0    0 -0.21347740512E+02 -0.26497415200E+03  0.29933700588E+03  0.41939798562E+03  0.12500000000E+03 0.  0.
</event>
<event>
 5    0  0.5568866E-005  0.2347922E+03  0.7546771E-02  0.1123312E+00
         21   -1    0    0  502  501  0.00000000000E+00  0.00000000000E+00  0.88011203210E+02  0.88011203210E+02  0.00000000000E+00 0. -1.
         21   -1    0    0  501  502 -0.00000000000E+00 -0.00000000000E+00 -0.62636777112E+03  0.62636777112E+03  0.00000000000E+00 0. -1.
         25    1    1    2    0    0 -0.10563380579E+02  0.85497215987E+02 -0.24828994998E+03  0.29102277954E+03  0.12500000000E+03 0.  0.
         25    1    1    2    0    0  0.14562808370E+02  0.32695738990E+02 -0.83587841444E+02  0.15457365226E+03  0.12500000000E+03 0.  0.
         25    1    1    2    0    0 -0.39994277910E+01 -0.11819295498E+03 -0.20647877648E+03  0.26878254253E+03  0.12500000000E+03 0.  0.
</event>
<event>
 5    0  0.5568866E-005  0.2850308E+03  0.7546771E-02  0.1092973E+00
         21   -1    0    0  502  501  0.00000000000E+00  0.00000000000E+00  0.37948372845E+03  0.37948372845E+03  0.00000000000E+00 0. -1.
         21   -1    0    0  501  502 -0.00000000000E+00 -0.00000000000E+00 -0.21408708090E+03  0.21408708090E+03  0.00000000000E+00 0. -1.
         25    1    1    2    0    0 -0.91902995157E+02 -0.28881640997E+02  0.86456701915E+02  0.17994463318E+03  0.12500000000E+03 0.  0.
         25    1    1    2    0    0 -0.67166739093E+02 -0.49923402548E+02 -0.53086805096E+02  0.15952092602E+03  0.12500000000E+03 0.  0.
         25    1    1    2    0    0  0.15906973425E+03  0.78805043545E+02  0.13202675074E+03  0.25410525015E+03  0.12500000000E+03 0.  0.
</event>
<event>
 5    0  0.5568866E-005  0.2342989E+03  0.7546771E-02  0.1123650E+00
         21   -1    0    0  502  501  0.00000000000E+00  0.00000000000E+00  0.84344089602E+02  0.84344089602E+02  0.00000000000E+00 0.  1.
         21   -1    0    0  501  502 -0.00000000000E+00 -0.00000000000E+00 -0.65085755960E+03  0.65085755960E+03  0.00000000000E+00 0.  1.
         25    1    1    2    0    0 -0.21552815978E+02  0.90765789139E+02 -0.11522088175E+03  0.19391700272E+03  0.12500000000E+03 0.  0.
         25    1    1    2    0    0 -0.20874071957E+02 -0.30511344922E+02 -0.32026095562E+03  0.34577268363E+03  0.12500000000E+03 0.  0.
         25    1    1    2    0    0  0.42426887935E+02 -0.60254444217E+02 -0.13103163263E+03  0.19551196285E+03  0.12500000000E+03 0.  0.
</event>
<event>
 5    0  0.5568866E-005  0.2783096E+03  0.7546771E-02  0.1096616E+00
         21   -1    0    0  502  501  0.00000000000E+00  0.00000000000E+00  0.14168845516E+04  0.14168845516E+04  0.00000000000E+00 0.  1.
         21   -1    0    0  501  502 -0.00000000000E+00 -0.00000000000E+00 -0.54666577975E+02  0.54666577975E+02  0.00000000000E+00 0.  1.
         25    1    1    2    0    0 -0.58239829853E+02  0.35350465735E+02  0.13177637906E+03  0.19398852360E+03  0.12500000000E+03 0.  0.
         25    1    1    2    0    0  0.38801171349E+02 -0.42600528435E+02  0.22211097607E+03  0.26130178264E+03  0.12500000000E+03 0.  0.
         25    1    1    2    0    0  0.19438658504E+02  0.72500626997E+01  0.10083306185E+04  0.10162608233E+04  0.12500000000E+03 0.  0.
</event>
<event>
 5    0  0.5568866E-005  0.2677547E+03  0.7546771E-02  0.1102572E+00
         21   -1    0    0  502  501  0.00000000000E+00  0.00000000000E+00  0.14456424399E+04  0.14456424399E+04  0.00000000000E+00 0.  1.
         21   -1    0    0  501  502 -0.00000000000E+00 -0.00000000000E+00 -0.49592184623E+02  0.49592184623E+02  0.00000000000E+00 0.  1.
         25    1    1    2    0    0  0.11671295683E+02  0.85954502190E+02  0.80181461214E+03  0.81612258137E+03  0.12500000000E+03 0.  0.
         25    1    1    2    0    0 -0.92740174630E+02 -0.35867166407E+02  0.38965559860E+03  0.42112192906E+03  0.12500000000E+03 0.  0.
         25    1    1    2    0    0  0.81068878947E+02 -0.50087335783E+02  0.20458004450E+03  0.25799011405E+03  0.12500000000E+03 0.  0.
</event>
<event>
 5    0  0.5568866E-005  0.3383345E+03  0.7546771E-02  0.1067507E+00
         21   -1    0    0  502  501  0.00000000000E+00  0.00000000000E+00  0.17910778957E+03  0.17910778957E+03  0.00000000000E+00 0. -1.
         21   -1    0    0  501  502 -0.00000000000E+00 -0.00000000000E+00 -0.63911372792E+03  0.63911372792E+03  0.00000000000E+00 0. -1.
         25    1    1    2    0    0 -0.11738751579E+03  0.16745061182E+03 -0.23049793588E+03  0.33252644212E+03  0.12500000000E+03 0.  0.
         25    1    1    2    0    0  0.19139558733E+02 -0.20373978190E+03 -0.53382297082E+02  0.24566418355E+03  0.12500000000E+03 0.  0.
         25    1    1    2    0    0  0.98247957057E+02  0.36289170075E+02 -0.17612570538E+03  0.24003089182E+03  0.12500000000E+03 0.  0.
</event>
<event>
 5    0  0.5568866E-005  0.3757156E+03  0.7546771E-02  0.1052529E+00
         21   -1    0    0  502  501  0.00000000000E+00  0.00000000000E+00  0.55809993884E+02  0.55809993884E+02  0.00000000000E+00 0.  1.
         21   -1    0    0  501  502 -0.00000000000E+00 -0.00000000000E+00 -0.25293357825E+04  0.25293357825E+04  0.00000000000E+00 0.  1.
         25    1    1    2    0    0  0.10054528790E+03 -0.14972082820E+03 -0.11846874519E+04  0.12048381800E+04  0.12500000000E+03 0.  0.
         25    1    1    2    0    0  0.10343571201E+03  0.86466963420E+02 -0.23807402325E+03  0.30079847544E+03  0.12500000000E+03 0.  0.
         25    1    1    2    0    0 -0.20398099990E+03  0.63253864775E+02 -0.10507643135E+04  0.10795091210E+04  0.12500000000E+03 0.  0.
</event>
<event>
 5    0  0.5568866E-005  0.3823192E+03  0.7546771E-02  0.1050080E+00
         21   -1    0    0  502  501  0.00000000000E+00  0.00000000000E+00  0.37379757066E+03  0.37379757066E+03  0.00000000000E+00 0.  1.
         21   -1    0    0  501  502 -0.00000000000E+00 -0.00000000000E+00 -0.39103513320E+03  0.39103513320E+03  0.00000000000E+00 0.  1.
         25    1    1    2    0    0  0.44696967274E+02  0.16452384888E+03  0.88918332200E+02  0.22934119895E+03  0.12500000000E+03 0.  0.
         25    1    1    2    0    0 -0.16579196522E+03  0.79750123163E+02 -0.19413300965E+02  0.22326874867E+03  0.12500000000E+03 0.  0.
         25    1    1    2    0    0  0.12109499795E+03 -0.24427397204E+03 -0.86742593775E+02  0.31222275625E+03  0.12500000000E+03 0.  0.
</event>
<event>
 5    0  0.5568866E-005  0.2325462E+03  0.7546771E-02  0.1124860E+00
         21   -1    0    0  502  501  0.00000000000E+00  0.00000000000E+00  0.10732649020E+04  0.10732649020E+04  0.00000000000E+00 0.  1.
         21   -1    0    0  501  502 -0.00000000000E+00 -0.00000000000E+00 -0.50386173846E+02  0.50386173846E+02  0.00000000000E+00 0.  1.
         25    1    1    2    0    0 -0.72263031120E+02 -0.10168572277E+03  0.40384374380E+03  0.44076830795E+03  0.12500000000E+03 0.  0.
         25    1    1    2    0    0  0.95738670302E+01  0.22776675652E+02  0.29015999487E+03  0.31690417874E+03  0.12500000000E+03 0.  0.
         25    1    1    2    0    0  0.62689164089E+02  0.78909047118E+02  0.32887498947E+03  0.36597858914E+03  0.12500000000E+03 0.  0.
</event>
<event>
 5    0  0.5568866E-005  0.2863218E+03  0.7546771E-02  0.1092285E+00
         21   -1    0    0  502  501  0.00000000000E+00  0.00000000000E+00  0.88175027865E+02  0.88175027865E+02  0.00000000000E+00 0. -1.
         21   -1    0    0  501  502 -0.00000000000E+00 -0.00000000000E+00 -0.92974353991E+03  0.92974353991E+03  0.00000000000E+00 0. -1.
         25    1    1    2    0    0 -0.15786927876E+02 -0.43476747408E+02 -0.32752269074E+03  0.35360368721E+03  0.12500000000E+03 0.  0.
         25    1    1    2    0    0  0.68048494079E+01  0.28537100354E+02 -0.52228582319E+03  0.53783654875E+03  0.12500000000E+03 0.  0.
         25    1    1    2    0    0  0.89820784680E+01  0.14939647054E+02  0.82400018829E+01  0.12647833182E+03  0.12500000000E+03 0.  0.
</event>
<event>
 5    0  0.5568866E-005  0.2684755E+03  0.7546771E-02  0.1102155E+00
         21   -1    0    0  502  501  0.00000000000E+00  0.00000000000E+00  0.47904283168E+03  0.47904283168E+03  0.00000000000E+00 0. -1.
         21   -1    0    0  501  502 -0.00000000000E+00 -0.00000000000E+00 -0.15046479782E+03  0.15046479782E+03  0.00000000000E+00 0. -1.
         25    1    1    2    0    0  0.88329583547E+01  0.38898619221E+02  0.80087166841E+02  0.15372077941E+03  0.12500000000E+03 0.  0.
         25    1    1    2    0    0  0.40171891455E+02  0.13189206746E+03  0.89050623938E+02  0.20631120170E+03  0.12500000000E+03 0.  0.
         25    1    1    2    0    0 -0.49004849810E+02 -0.17079068668E+03  0.15944024308E+03  0.26947564839E+03  0.12500000000E+03 0.  0.
</event>
<event>
 5    0  0.5568866E-005  0.3183205E+03  0.7546771E-02  0.1076425E+00
         21   -1    0    0  502  501  0.00000000000E+00  0.00000000000E+00  0.23188981519E+04  0.23188981519E+04  0.00000000000E+00 0.  1.
         21   -1    0    0  501  502 -0.00000000000E+00 -0.00000000000E+00 -0.43696591805E+02  0.43696591805E+02  0.00000000000E+00 0.  1.
         25    1    1    2    0    0 -0.10051531185E+02  0.26982904736E+02  0.96149627639E+02  0.16030864394E+03  0.12500000000E+03 0.  0.
         25    1    1    2    0    0  0.91827842123E+02  0.26596698231E+02  0.12355916661E+04  0.12455727607E+04  0.12500000000E+03 0.  0.
         25    1    1    2    0    0 -0.81776310938E+02 -0.53579602967E+02  0.94346026638E+03  0.95671333905E+03  0.12500000000E+03 0.  0.
</event>
<event>
 5    0  0.5568866E-005  0.2475613E+03  0.7546771E-02  0.1114856E+00
         21   -1    0    0  502  501  0.00000000000E+00  0.00000000000E+00  0.26395988244E+02  0.26395988244E+02  0.00000000000E+00 0.  1.
         21   -1    0    0  501  502 -0.00000000000E+00 -0.00000000000E+00 -0.23218150158E+04  0.23218150158E+04  0.00000000000E+00 0.  1.
         25    1    1    2    0    0 -0.20883001662E+02  0.11425012768E+03 -0.10588490488E+04  0.10725089741E+04  0.12500000000E+03 0.  0.
         25    1    1    2    0    0 -0.47756786506E+02 -0.33777858561E+02 -0.74213681747E+03  0.75486006003E+03  0.12500000000E+03 0.  0.
         25    1    1    2    0    0  0.68639788168E+02 -0.80472269118E+02 -0.49443316127E+03  0.52084196988E+03  0.12500000000E+03 0.  0.
</event>
<event>
 5    0  0.5568866E-005  0.3637168E+03  0.7546771E-02  0.1057122E+00
         21   -1    0    0  502  501  0.00000000000E+00  0.00000000000E+00  0.35364265119E+03  0.35364265119E+03  0.00000000000E+00 0. -1.
         21   -1    0    0  501  502 -0.00000000000E+00 -0.00000000000E+00 -0.37407798285E+03  0.37407798285E+03  0.00000000000E+00 0. -1.
         25    1    1    2    0    0 -0.22263720882E+03 -0.80720773446E+01  0.50133002741E+02  0.26032826037E+03  0.12500000000E+03 0.  0.
         25    1    1    2    0    0  0.24594591405E+03  0.60779009056E+02  0.46980770657E+02  0.28638378688E+03  0.12500000000E+03 0.  0.
         25    1    1    2    0    0 -0.23308705232E+02 -0.52706931712E+02 -0.11754910507E+03  0.18100858679E+03  0.12500000000E+03 0.  0.
</event>
<event>
 5    0  0.5568866E-005  0.2641696E+03  0.7546771E-02  0.1104664E+00
         21   -1    0    0  502  501  0.00000000000E+00  0.00000000000E+00  0.38527627486E+03  0.38527627486E+03  0.00000000000E+00 0.  1.
         21   -1    0    0  501  502 -0.00000000000E+00 -0.00000000000E+00 -0.18113125821E+03  0.18113125821E+03  0.00000000000E+00 0.  1.
         25    1    1    2    0    0 -0.94532060513E+02 -0.30076786271E+02  0.82930843891E+01  0.15979580340E+03  0.12500000000E+03 0.  0.
         25    1    1    2    0    0  0.25480133126E+02  0.11814599183E+03  0.15728245640E+03  0.23445785050E+03  0.12500000000E+03 0.  0.
         25    1    1    2    0    0  0.69051927387E+02 -0.88069205560E+02  0.38569475856E+02  0.17215387917E+03  0.12500000000E+03 0.  0.
</event>
<event>
 5    0  0.5568866E-005  0.3204991E+03  0.7546771E-02  0.1075420E+00
         21   -1    0    0  502  501  0.00000000000E+00  0.00000000000E+00  0.91692071531E+02  0.91692071531E+02  0.00000000000E+00 0. -1.
         21   -1    0    0  501  502 -0.00000000000E+00 -0.00000000000E+00 -0.11202677611E+04  0.11202677611E+04  0.00000000000E+00 0. -1.
         25    1    1    2    0    0  0.46707373370E+02 -0.24392399173E+02 -0.70624746642E+02  0.15293600852E+03  0.12500000000E+03 0.  0.
         25    1    1    2    0    0 -0.15485582043E+03  0.13928079245E+03 -0.61686450050E+03  0.66296777919E+03  0.12500000000E+03 0.  0.
         25    1    1    2    0    0  0.10814844706E+03 -0.11488839328E+03 -0.34108644244E+03  0.39605604493E+03  0.12500000000E+03 0.  0.
</event>
<event>
 5    0  0.5568866E-005  0.2168881E+03  0.7546771E-02  0.1136225E+00
         21   -1    0    0  502  501  0.00000000000E+00  0.00000000000E+00  0.15441251253E+03  0.15441251253E+03  0.00000000000E+00 0.  1.
         21   -1    0    0  501  502 -0.00000000000E+00 -0.00000000000E+00 -0.30464132577E+03  0.30464132577E+03  0.00000000000E+00 0.  1.
         25    1    1    2    0    0  0.76127314267E+02  0.25472258720E+02 -0.10105100813E+03  0.17966777726E+03  0.12500000000E+03 0.  0.
         25    1    1    2    0    0 -0.20452095422E+02 -0.13241702439E+01  0.12649364126E+02  0.12729904967E+03  0.12500000000E+03 0.  0.
         25    1    1    2    0    0 -0.55675218845E+02 -0.24148088477E+02 -0.61827169231E+02  0.15208701136E+03  0.12500000000E+03 0.  0.
</event>
<event>
 5    0  0.5568866E-005  0.2855124E+03  0.7546771E-02  0.1092716E+00
         21   -1    0    0  502  501  0.00000000000E+00  0.00000000000E+00  0.19769907884E+04  0.19769907884E+04  0.00000000000E+00 0.  1.
         21   -1    0    0  501  502 -0.00000000000E+00 -0.00000000000E+00 -0.41233035773E+02  0.41233035773E+02  0.00000000000E+00 0.  1.
         25    1    1    2    0    0 -0.13999686084E+03  0.61785317453E+02  0.64989762902E+03  0.67927054603E+03  0.12500000000E+03 0.  0.
         25    1    1    2    0    0  0.17547862917E+02 -0.10461782266E+03  0.87659602378E+03  0.89179504664E+03  0.12500000000E+03 0.  0.
         25    1    1    2    0    0  0.12244899792E+03  0.42832505203E+02  0.40926409985E+03  0.44715823153E+03  0.12500000000E+03 0.  0.
</event>
<event>
 5    0  0.5568866E-005  0.2818243E+03  0.7546771E-02  0.1094697E+00
         21   -1    0    0  502  501  0.00000000000E+00  0.00000000000E+00  0.20310757246E+03  0.20310757246E+03  0.00000000000E+00 0. -1.
         21   -1    0    0  501  502 -0.00000000000E+00 -0.00000000000E+00 -0.39104859648E+03  0.39104859648E+03  0.00000000000E+00 0. -1.
         25    1    1    2    0    0  0.29223783335E+02  0.15380762063E+03 -0.20546030985E+03  0.28696646599E+03  0.12500000000E+03 0.  0.
         25    1    1    2    0    0 -0.10576166788E+02 -0.41307089542E+02 -0.20808429623E+02  0.13370161440E+03  0.12500000000E+03 0.  0.
         25    1    1    2    0    0 -0.18647616546E+02 -0.11250053109E+03  0.38327715457E+02  0.17348808855E+03  0.12500000000E+03 0.  0.
</event>
<event>
 5    0  0.5568866E-005  0.3135362E+03  0.7546771E-02  0.1078663E+00
         21   -1    0    0  502  501  0.00000000000E+00  0.00000000000E+00  0.16393602276E+04  0.16393602276E+04  0.00000000000E+00 0. -1.
         21   -1    0    0  501  502 -0.00000000000E+00 -0.00000000000E+00 -0.59965430689E+02  0.59965430689E+02  0.00000000000E+00 0. -1.
         25    1    1    2    0    0  0.43028756867E+02 -0.11939243674E+03  0.50598614729E+03  0.53642614508E+03  0.12500000000E+03 0.  0.
         25    1    1    2    0    0  0.13787850176E+03  0.52316665439E+02  0.68299596805E+03  0.70982815322E+03  0.12500000000E+03 0.  0.
         25    1    1    2    0    0 -0.18090725863E+03  0.67075771302E+02  0.39041268161E+03  0.45307136003E+03  0.12500000000E+03 0.  0.
</event>
<event>
 5    0  0.5568866E-005  0.3896537E+03  0.7546771E-02  0.1047422E+00
         21   -1    0    0  502  501  0.00000000000E+00  0.00000000000E+00  0.21941448373E+03  0.21941448373E+03  0.00000000000E+00 0.  1.
         21   -1    0    0  501  502 -0.00000000000E+00 -0.00000000000E+00 -0.69197805273E+03  0.69197805273E+03  0.00000000000E+00 0.  1.
         25    1    1    2    0    0  0.10129994818E+03 -0.15949717772E+03 -0.10385921291E+03  0.24922432728E+03  0.12500000000E+03 0.  0.
         25    1    1    2    0    0 -0.10027022689E+03  0.14485951465E+03  0.52715028647E+02  0.22235618190E+03  0.12500000000E+03 0.  0.
         25    1    1    2    0    0 -0.10297212981E+01  0.14637663065E+02 -0.42141938474E+03  0.43981202728E+03  0.12500000000E+03 0.  0.
</event>
<event>
 5    0  0.5789009E-005  0.4406302E+03  0.7546771E-02  0.1030554E+00
         21   -1    0    0  502  501  0.00000000000E+00  0.00000000000E+00  0.26507375092E+03  0.26507375092E+03  0.00000000000E+00 0.  1.
         21   -1    0    0  501  502 -0.00000000000E+00 -0.00000000000E+00 -0.73245630149E+03  0.73245630149E+03  0.00000000000E+00 0.  1.
         25    1    1    2    0    0  0.29457407217E+02  0.19841140939E+02  0.16449295927E+03  0.20962906135E+03  0.12500000000E+03 0.  0.
         25    1    1    2    0    0  0.36042582480E+02  0.17950739294E+03 -0.24533080205E+03  0.33065718548E+03  0.12500000000E+03 0.  0.
         25    1    1    2    0    0 -0.65499989697E+02 -0.19934853388E+03 -0.38654470780E+03  0.45724380558E+03  0.12500000000E+03 0.  0.
</event>
<event>
 5    0  0.5568866E-005  0.4021800E+03  0.7546771E-02  0.1043027E+00
         21   -1    0    0  502  501  0.00000000000E+00  0.00000000000E+00  0.90509400053E+03  0.90509400053E+03  0.00000000000E+00 0. -1.
         21   -1    0    0  501  502 -0.00000000000E+00 -0.00000000000E+00 -0.17870934151E+03  0.17870934151E+03  0.00000000000E+00 0. -1.
         25    1    1    2    0    0 -0.56480004292E+02  0.29587428674E+03  0.16440971962E+03  0.36522204252E+03  0.12500000000E+03 0.  0.
         25    1    1    2    0    0  0.69106605638E+02 -0.25316678261E+03  0.48425942948E+03  0.56480203417E+03  0.12500000000E+03 0.  0.
         25    1    1    2    0    0 -0.12626601346E+02 -0.42707504129E+02  0.77715509926E+02  0.15377926536E+03  0.12500000000E+03 0.  0.
</event>
<event>
 5    0  0.5568866E-005  0.2979110E+03  0.7546771E-02  0.1086290E+00
         21   -1    0    0  502  501  0.00000000000E+00  0.00000000000E+00  0.57540919683E+02  0.57540919683E+02  0.00000000000E+00 0. -1.
         21   -1    0    0  501  502 -0.00000000000E+00 -0.00000000000E+00 -0.15423974661E+04  0.15423974661E+04  0.00000000000E+00 0. -1.
         25    1    1    2    0    0  0.65746588730E+02 -0.12598099374E+03 -0.35262013056E+03  0.40019967664E+03  0.12500000000E+03 0.  0.
         25    1    1    2    0    0  0.86429688936E+02  0.35333962050E+02 -0.68742146119E+03  0.70490555773E+03  0.12500000000E+03 0.  0.
         25    1    1    2    0    0 -0.15217627767E+03  0.90647031691E+02 -0.44481495465E+03  0.49483315139E+03  0.12500000000E+03 0.  0.
</event>
<event>
 5    0  0.5568866E-005  0.6318256E+03  0.7546771E-02  0.9841493E-01
         21   -1    0    0  502  501  0.00000000000E+00  0.00000000000E+00  0.12724426762E+04  0.12724426762E+04  0.00000000000E+00 0. -1.
         21   -1    0    0  501  502 -0.00000000000E+00 -0.00000000000E+00 -0.31373006902E+03  0.31373006902E+03  0.00000000000E+00 0.  1.
         25    1    1    2    0    0 -0.14882333143E+03 -0.71397598928E+02  0.48182050333E+03  0.52442539845E+03  0.12500000000E+03 0.  0.
         25    1    1    2    0    0  0.82482207333E+02 -0.21719933756E+03  0.64654183531E+03  0.69829808218E+03  0.12500000000E+03 0.  0.
         25    1    1    2    0    0  0.66341124102E+02  0.28859693649E+03 -0.16964973150E+03  0.36344926454E+03  0.12500000000E+03 0.  0.
</event>
<event>
 5    0  0.5568866E-005  0.3702093E+03  0.7546771E-02  0.1054613E+00
         21   -1    0    0  502  501  0.00000000000E+00  0.00000000000E+00  0.27498610426E+03  0.27498610426E+03  0.00000000000E+00 0.  1.
         21   -1    0    0  501  502 -0.00000000000E+00 -0.00000000000E+00 -0.49840677901E+03  0.49840677901E+03  0.00000000000E+00 0.  1.
         25    1    1    2    0    0 -0.11492064303E+03 -0.58541539240E+02  0.10807907973E+03  0.20961859051E+03  0.12500000000E+03 0.  0.
         25    1    1    2    0    0  0.16905161794E+02  0.11512840701E+03  0.21928378606E+02  0.17218068528E+03  0.12500000000E+03 0.  0.
         25    1    1    2    0    0  0.98015481232E+02 -0.56586867765E+02 -0.35342813309E+03  0.39159360748E+03  0.12500000000E+03 0.  0.
</event>
<event>
 5    0  0.5568866E-005  0.3076644E+03  0.7546771E-02  0.1081471E+00
         21   -1    0    0  502  501  0.00000000000E+00  0.00000000000E+00  0.53050724569E+03  0.53050724569E+03  0.00000000000E+00 0.  1.
         21   -1    0    0  501  502 -0.00000000000E+00 -0.00000000000E+00 -0.17842804675E+03  0.17842804675E+03  0.00000000000E+00 0.  1.
         25    1    1    2    0    0  0.61278697073E+02 -0.25065345740E+02  0.10236235439E+03  0.17460355629E+03  0.12500000000E+03 0.  0.
         25    1    1    2    0    0 -0.20368189532E+03 -0.72757501512E+02  0.18702600065E+03  0.31206360478E+03  0.12500000000E+03 0.  0.
         25    1    1    2    0    0  0.14240319825E+03  0.97822847252E+02  0.62690843895E+02  0.22226813137E+03  0.12500000000E+03 0.  0.
</event>
<event>
 5    0  0.5568866E-005  0.5680708E+03  0.7546771E-02  0.9973957E-01
         21   -1    0    0  502  501  0.00000000000E+00  0.00000000000E+00  0.11000022565E+04  0.11000022565E+04  0.00000000000E+00 0. -1.
         21   -1    0    0  501  502 -0.00000000000E+00 -0.00000000000E+00 -0.29336703234E+03  0.29336703234E+03  0.00000000000E+00 0. -1.
         25    1    1    2    0    0  0.10103560862E+03  0.32468933607E+03  0.47348425711E+03  0.59619099364E+03  0.12500000000E+03 0.  0.
         25    1    1    2    0    0 -0.15996279314E+03 -0.45356634672E+03  0.34947867500E+03  0.60751203309E+03  0.12500000000E+03 0.  0.
         25    1    1    2    0    0  0.58927184517E+02  0.12887701064E+03 -0.16327707931E+02  0.18966626214E+03  0.12500000000E+03 0.  0.
</event>
<event>
 5    0  0.5568866E-005  0.2306473E+03  0.7546771E-02  0.1126185E+00
         21   -1    0    0  502  501  0.00000000000E+00  0.00000000000E+00  0.24688494614E+03  0.24688494614E+03  0.00000000000E+00 0.  1.
         21   -1    0    0  501  502 -0.00000000000E+00 -0.00000000000E+00 -0.21547766683E+03  0.21547766683E+03  0.00000000000E+00 0.  1.
         25    1    1    2    0    0  0.33226625040E+02 -0.47534915610E+02  0.38267022283E+02  0.14301378188E+03  0.12500000000E+03 0.  0.
         25    1    1    2    0    0  0.21062019975E+02  0.61747881225E+02  0.75032347592E+02  0.15972245524E+03  0.12500000000E+03 0.  0.
         25    1    1    2    0    0 -0.54288645015E+02 -0.14212965616E+02 -0.81892090567E+02  0.15962637585E+03  0.12500000000E+03 0.  0.
</event>
<event>
 5    0  0.5568866E-005  0.2725493E+03  0.7546771E-02  0.1099829E+00
         21   -1    0    0  502  501  0.00000000000E+00  0.00000000000E+00  0.13243025374E+03  0.13243025374E+03  0.00000000000E+00 0.  1.
         21   -1    0    0  501  502 -0.00000000000E+00 -0.00000000000E+00 -0.56092261454E+03  0.56092261454E+03  0.00000000000E+00 0.  1.
         25    1    1    2    0    0 -0.53609125296E+01  0.34263675612E+02  0.39387128198E+01  0.12978155612E+03  0.12500000000E+03 0.  0.
         25    1    1    2    0    0 -0.17458372513E+02  0.10748946428E+03 -0.24950581517E+03  0.29956123164E+03  0.12500000000E+03 0.  0.
         25    1    1    2    0    0  0.22819285042E+02 -0.14175313989E+03 -0.18292525845E+03  0.26401008052E+03  0.12500000000E+03 0.  0.
</event>
<event>
 5    0  0.5980238E-005  0.3584350E+03  0.7546771E-02  0.1059205E+00
         21   -1    0    0  502  501  0.00000000000E+00  0.00000000000E+00  0.32627087531E+03  0.32627087531E+03  0.00000000000E+00 0. -1.
         21   -1    0    0  501  502 -0.00000000000E+00 -0.00000000000E+00 -0.39376985271E+03  0.39376985271E+03  0.00000000000E+00 0. -1.
         25    1    1    2    0    0  0.19754515734E+03  0.75947621102E+02 -0.19565515403E+03  0.31416248922E+03  0.12500000000E+03 0.  0.
         25    1    1    2    0    0 -0.15664059425E+03  0.34828828494E+02  0.23955395346E+02  0.20481255827E+03  0.12500000000E+03 0.  0.
         25    1    1    2    0    0 -0.40904563090E+02 -0.11077644960E+03  0.10420078128E+03  0.20106568053E+03  0.12500000000E+03 0.  0.
</event>
<event>
 5    0  0.5568866E-005  0.4667320E+03  0.7546771E-02  0.1022847E+00
         21   -1    0    0  502  501  0.00000000000E+00  0.00000000000E+00  0.10696396477E+04  0.10696396477E+04  0.00000000000E+00 0.  1.
         21   -1    0    0  501  502 -0.00000000000E+00 -0.00000000000E+00 -0.20365623384E+03  0.20365623384E+03  0.00000000000E+00 0.  1.
         25    1    1    2    0    0  0.31354215800E+03  0.99743963389E+02  0.68282390467E+03  0.76819986192E+03  0.12500000000E+03 0.  0.
         25    1    1    2    0    0 -0.21642193718E+03 -0.10079963929E+02  0.20293470672E+03  0.32209867395E+03  0.12500000000E+03 0.  0.
         25    1    1    2    0    0 -0.97120220817E+02 -0.89663999461E+02 -0.19775197520E+02  0.18299734569E+03  0.12500000000E+03 0.  0.
</event>
<event>
 5    0  0.5908077E-005  0.2901767E+03  0.7546771E-02  0.1090257E+00
         21   -1    0    0  502  501  0.00000000000E+00  0.00000000000E+00  0.30666274285E+03  0.30666274285E+03  0.00000000000E+00 0. -1.
         21   -1    0    0  501  502 -0.00000000000E+00 -0.00000000000E+00 -0.27457700806E+03  0.27457700806E+03  0.00000000000E+00 0. -1.
         25    1    1    2    0    0 -0.76600711219E+02 -0.28707798346E+02  0.50527801656E+02  0.15770182429E+03  0.12500000000E+03 0.  0.
         25    1    1    2    0    0  0.14492035146E+03 -0.22158116729E+02 -0.13272972219E+03  0.23395527256E+03  0.12500000000E+03 0.  0.
         25    1    1    2    0    0 -0.68319640242E+02  0.50865915075E+02  0.11428765532E+03  0.18958265405E+03  0.12500000000E+03 0.  0.
</event>
<event>
 5    0  0.5568866E-005  0.2415551E+03  0.7546771E-02  0.1118761E+00
         21   -1    0    0  502  501  0.00000000000E+00  0.00000000000E+00  0.16682774240E+03  0.16682774240E+03  0.00000000000E+00 0. -1.
         21   -1    0    0  501  502 -0.00000000000E+00 -0.00000000000E+00 -0.34975525145E+03  0.34975525145E+03  0.00000000000E+00 0. -1.
         25    1    1    2    0    0  0.18345315124E+02 -0.11882559283E+03 -0.87257679443E+02  0.19415193720E+03  0.12500000000E+03 0.  0.
         25    1    1    2    0    0 -0.38996630044E+01  0.10513770538E+03  0.63551795866E+00  0.16338466374E+03  0.12500000000E+03 0.  0.
         25    1    1    2    0    0 -0.14445652120E+02  0.13687887448E+02 -0.96305347566E+02  0.15904639291E+03  0.12500000000E+03 0.  0.
</event>
<event>
 5    0  0.5568866E-005  0.4042647E+03  0.7546771E-02  0.1042313E+00
         21   -1    0    0  502  501  0.00000000000E+00  0.00000000000E+00  0.94844650667E+02  0.94844650667E+02  0.00000000000E+00 0. -1.
         21   -1    0    0  501  502 -0.00000000000E+00 -0.00000000000E+00 -0.17231331526E+04  0.17231331526E+04  0.00000000000E+00 0. -1.
         25    1    1    2    0    0 -0.82121238399E+02 -0.11995440398E+03 -0.22709916784E+03  0.29720697984E+03  0.12500000000E+03 0.  0.
         25    1    1    2    0    0 -0.21372098057E+03  0.58701922096E+01 -0.52000246172E+03  0.57596760055E+03  0.12500000000E+03 0.  0.
         25    1    1    2    0    0  0.29584221897E+03  0.11408421177E+03 -0.88118687233E+03  0.94480322283E+03  0.12500000000E+03 0.  0.
</event>
<event>
 5    0  0.5568866E-005  0.3183085E+03  0.7546771E-02  0.1076430E+00
         21   -1    0    0  502  501  0.00000000000E+00  0.00000000000E+00  0.27146806516E+03  0.27146806516E+03  0.00000000000E+00 0.  1.
         21   -1    0    0  501  502 -0.00000000000E+00 -0.00000000000E+00 -0.37323106544E+03  0.37323106544E+03  0.00000000000E+00 0.  1.
         25    1    1    2    0    0 -0.63980779079E+02 -0.10813367169E+03  0.35919358623E+02  0.18083592389E+03  0.12500000000E+03 0.  0.
         25    1    1    2    0    0  0.18757089369E+03  0.21971571863E+02 -0.14332868881E+03  0.26801810231E+03  0.12500000000E+03 0.  0.
         25    1    1    2    0    0 -0.12359011461E+03  0.86162099828E+02  0.56463299050E+01  0.19584510440E+03  0.12500000000E+03 0.  0.
</event>
<event>
 5    0  0.5568866E-005  0.2960261E+03  0.7546771E-02  0.1087244E+00
         21   -1    0    0  502  501  0.00000000000E+00  0.00000000000E+00  0.26763166363E+03  0.26763166363E+03  0.00000000000E+00 0.  1.
         21   -1    0    0  501  502 -0.00000000000E+00 -0.00000000000E+00 -0.32743312963E+03  0.32743312963E+03  0.00000000000E+00 0.  1.
         25    1    1    2    0    0 -0.42842333320E+02 -0.12514909210E+03 -0.45652155500E+02  0.18763496497E+03  0.12500000000E+03 0.  0.
         25    1    1    2    0    0 -0.28077763888E+02 -0.66152161140E+02 -0.72148448297E+02  0.16122924003E+03  0.12500000000E+03 0.  0.
         25    1    1    2    0    0  0.70920097209E+02  0.19130125324E+03  0.57999137800E+02  0.24620058827E+03  0.12500000000E+03 0.  0.
</event>
<event>
 5    0  0.5568866E-005  0.3336127E+03  0.7546771E-02  0.1069549E+00
         21   -1    0    0  502  501  0.00000000000E+00  0.00000000000E+00  0.11400506670E+04  0.11400506670E+04  0.00000000000E+00 0. -1.
         21   -1    0    0  501  502 -0.00000000000E+00 -0.00000000000E+00 -0.97625008987E+02  0.97625008987E+02  0.00000000000E+00 0. -1.
         25    1    1    2    0    0  0.10714370309E+03  0.20842264190E+02  0.56053012503E+03  0.58457950200E+03  0.12500000000E+03 0.  0.
         25    1    1    2    0    0 -0.93367954383E+02 -0.11018353955E+03  0.54372247615E+02  0.19859337502E+03  0.12500000000E+03 0.  0.
         25    1    1    2    0    0 -0.13775748711E+02  0.89341275357E+02  0.42752328535E+03  0.45450279895E+03  0.12500000000E+03 0.  0.
</event>
<event>
 5    0  0.5568866E-005  0.3486141E+03  0.7546771E-02  0.1063185E+00
         21   -1    0    0  502  501  0.00000000000E+00  0.00000000000E+00  0.97777664580E+03  0.97777664580E+03  0.00000000000E+00 0.  1.
         21   -1    0    0  501  502 -0.00000000000E+00 -0.00000000000E+00 -0.12429404807E+03  0.12429404807E+03  0.00000000000E+00 0.  1.
         25    1    1    2    0    0 -0.11896729077E+03  0.80741875268E-01  0.19573660562E+02  0.17367023631E+03  0.12500000000E+03 0.  0.
         25    1    1    2    0    0  0.18827628777E+03 -0.25051138716E+02  0.67942557630E+03  0.71646328156E+03  0.12500000000E+03 0.  0.
         25    1    1    2    0    0 -0.69308997002E+02  0.24970396840E+02  0.15448336088E+03  0.21193717600E+03  0.12500000000E+03 0.  0.
</event>
<event>
 5    0  0.5568866E-005  0.3105801E+03  0.7546771E-02  0.1080068E+00
         21   -1    0    0  502  501  0.00000000000E+00  0.00000000000E+00  0.25775967919E+03  0.25775967919E+03  0.00000000000E+00 0. -1.
         21   -1    0    0  501  502 -0.00000000000E+00 -0.00000000000E+00 -0.37422462548E+03  0.37422462548E+03  0.00000000000E+00 0. -1.
         25    1    1    2    0    0 -0.23195696938E+02 -0.57182722555E+02  0.10720750665E+02  0.13981358521E+03  0.12500000000E+03 0.  0.
         25    1    1    2    0    0 -0.40116500615E+02  0.88280447236E+02 -0.25492920733E+03  0.30002778494E+03  0.12500000000E+03 0.  0.
         25    1    1    2    0    0  0.63312197553E+02 -0.31097724681E+02  0.12774351037E+03  0.19214293451E+03  0.12500000000E+03 0.  0.
</event>
<event>
 5    0  0.5568866E-005  0.2763936E+03  0.7546771E-02  0.1097675E+00
         21   -1    0    0  502  501  0.00000000000E+00  0.00000000000E+00  0.23661786225E+03  0.23661786225E+03  0.00000000000E+00 0. -1.
         21   -1    0    0  501  502 -0.00000000000E+00 -0.00000000000E+00 -0.32285563892E+03  0.32285563892E+03  0.00000000000E+00 0. -1.
         25    1    1    2    0    0  0.10432565833E+03  0.52700596650E+02 -0.36285225497E+02  0.17493659841E+03  0.12500000000E+03 0.  0.
         25    1    1    2    0    0  0.59831099241E+02 -0.63238427490E+02  0.42571552985E+02  0.15816509182E+03  0.12500000000E+03 0.  0.
         25    1    1    2    0    0 -0.16415675757E+03  0.10537830840E+02 -0.92524104156E+02  0.22637181093E+03  0.12500000000E+03 0.  0.
</event>
<event>
 5    0  0.5568866E-005  0.3670819E+03  0.7546771E-02  0.1055814E+00
         21   -1    0    0  502  501  0.00000000000E+00  0.00000000000E+00  0.33918247938E+03  0.33918247938E+03  0.00000000000E+00 0.  1.
         21   -1    0    0  501  502 -0.00000000000E+00 -0.00000000000E+00 -0.39727612135E+03  0.39727612135E+03  0.00000000000E+00 0.  1.
         25    1    1    2    0    0 -0.18412276976E+03 -0.12116720536E+02  0.35807045797E+02  0.22573248280E+03  0.12500000000E+03 0.  0.
         25    1    1    2    0    0  0.13389200824E+03  0.15016918088E+02 -0.24629177895E+03  0.30730639121E+03  0.12500000000E+03 0.  0.
         25    1    1    2    0    0  0.50230761520E+02 -0.29001975519E+01  0.15239109118E+03  0.20341972672E+03  0.12500000000E+03 0.  0.
</event>
<event>
 5    0  0.5568866E-005  0.3460538E+03  0.7546771E-02  0.1064246E+00
         21   -1    0    0  502  501  0.00000000000E+00  0.00000000000E+00  0.26666453326E+03  0.26666453326E+03  0.00000000000E+00 0.  1.
         21   -1    0    0  501  502 -0.00000000000E+00 -0.00000000000E+00 -0.44907810430E+03  0.44907810430E+03  0.00000000000E+00 0.  1.
         25    1    1    2    0    0  0.70360198571E+02  0.99473374239E+02 -0.18613699521E+03  0.25518128989E+03  0.12500000000E+03 0.  0.
         25    1    1    2    0    0 -0.29544466670E+02  0.11315316759E+03 -0.90212964627E+02  0.19349391162E+03  0.12500000000E+03 0.  0.
         25    1    1    2    0    0 -0.40815731901E+02 -0.21262654183E+03  0.93936388791E+02  0.26706743605E+03  0.12500000000E+03 0.  0.
</event>
<event>
 5    0  0.5568866E-005  0.3196709E+03  0.7546771E-02  0.1075801E+00
         21   -1    0    0  502  501  0.00000000000E+00  0.00000000000E+00  0.12457018542E+03  0.12457018542E+03  0.00000000000E+00 0. -1.
         21   -1    0    0  501  502 -0.00000000000E+00 -0.00000000000E+00 -0.82033645668E+03  0.82033645668E+03  0.00000000000E+00 0. -1.
         25    1    1    2    0    0 -0.62174068334E+02  0.21476141104E+03 -0.23288111882E+03  0.34618881256E+03  0.12500000000E+03 0.  0.
         25    1    1    2    0    0  0.56014240856E+02 -0.55847524160E+02 -0.86333697625E+02  0.17127477479E+03  0.12500000000E+03 0.  0.
         25    1    1    2    0    0  0.61598274784E+01 -0.15891388688E+03 -0.37655145482E+03  0.42744305474E+03  0.12500000000E+03 0.  0.
</event>
<event>
 5    0  0.5568866E-005  0.3923662E+03  0.7546771E-02  0.1046456E+00
         21   -1    0    0  502  501  0.00000000000E+00  0.00000000000E+00  0.21882424989E+04  0.21882424989E+04  0.00000000000E+00 0.  1.
         21   -1    0    0  501  502 -0.00000000000E+00 -0.00000000000E+00 -0.70353828183E+02  0.70353828183E+02  0.00000000000E+00 0.  1.
         25    1    1    2    0    0 -0.32489227744E+02 -0.12918286710E+02  0.14210479056E+04  0.14269634130E+04  0.12500000000E+03 0.  0.
         25    1    1    2    0    0  0.80950240455E+02  0.17415001801E+03  0.25669593638E+03  0.34409151974E+03  0.12500000000E+03 0.  0.
         25    1    1    2    0    0 -0.48461012712E+02 -0.16123173130E+03  0.44014482874E+03  0.48754139434E+03  0.12500000000E+03 0.  0.
</event>
<event>
 5    0  0.5568866E-005  0.3649862E+03  0.7546771E-02  0.1056627E+00
         21   -1    0    0  502  501  0.00000000000E+00  0.00000000000E+00  0.14544015013E+04  0.14544015013E+04  0.00000000000E+00 0. -1.
         21   -1    0    0  501  502 -0.00000000000E+00 -0.00000000000E+00 -0.91594316079E+02  0.91594316079E+02  0.00000000000E+00 0. -1.
         25    1    1    2    0    0  0.21182892724E+01  0.84606831873E+02  0.44504939679E+03  0.46995400703E+03  0.12500000000E+03 0.  0.
         25    1    1    2    0    0  0.22885736379E+03 -0.13291938483E+03  0.52554655601E+03  0.60155418572E+03  0.12500000000E+03 0.  0.
         25    1    1    2    0    0 -0.23097565306E+03  0.48312552958E+02  0.39221123242E+03  0.47448762462E+03  0.12500000000E+03 0.  0.
</event>
<event>
 5    0  0.5568866E-005  0.2910762E+03  0.7546771E-02  0.1089789E+00
         21   -1    0    0  502  501  0.00000000000E+00  0.00000000000E+00  0.31730602275E+03  0.31730602275E+03  0.00000000000E+00 0.  1.
         21   -1    0    0  501  502 -0.00000000000E+00 -0.00000000000E+00 -0.26701468764E+03  0.26701468764E+03  0.00000000000E+00 0.  1.
         25    1    1    2    0    0 -0.41292085331E+02  0.58786640595E+02  0.13114183689E+02  0.14476839171E+03  0.12500000000E+03 0.  0.
         25    1    1    2    0    0  0.56869095261E+02 -0.13903981920E+03 -0.11465010532E+03  0.22657407612E+03  0.12500000000E+03 0.  0.
         25    1    1    2    0    0 -0.15577009930E+02  0.80253178607E+02  0.15182725674E+03  0.21297824256E+03  0.12500000000E+03 0.  0.
</event>
<event>
 5    0  0.5568866E-005  0.4155969E+03  0.7546771E-02  0.1038509E+00
         21   -1    0    0  502  501  0.00000000000E+00  0.00000000000E+00  0.30598651833E+03  0.30598651833E+03  0.00000000000E+00 0.  1.
         21   -1    0    0  501  502 -0.00000000000E+00 -0.00000000000E+00 -0.56447190605E+03  0.56447190605E+03  0.00000000000E+00 0.  1.
         25    1    1    2    0    0 -0.22662778776E+03  0.25501470637E+03 -0.16587049793E+03  0.39941291508E+03  0.12500000000E+03 0.  0.
         25    1    1    2    0    0  0.26653025767E+02 -0.15888177633E+03 -0.69073837667E+02  0.21529049603E+03  0.12500000000E+03 0.  0.
         25    1    1    2    0    0  0.19997476200E+03 -0.96132930044E+02 -0.23541052134E+02  0.25575501327E+03  0.12500000000E+03 0.  0.
</event>
<event>
 5    0  0.5568866E-005  0.4244405E+03  0.7546771E-02  0.1035631E+00
         21   -1    0    0  502  501  0.00000000000E+00  0.00000000000E+00  0.38671584801E+03  0.38671584801E+03  0.00000000000E+00 0. -1.
         21   -1    0    0  501  502 -0.00000000000E+00 -0.00000000000E+00 -0.46584529297E+03  0.46584529297E+03  0.00000000000E+00 0. -1.
         25    1    1    2    0    0  0.31688418786E+02  0.80320980442E+02 -0.12973514174E+03  0.19977943535E+03  0.12500000000E+03 0.  0.
         25    1    1    2    0    0  0.64147040007E+02  0.95620586550E+02  0.27742948499E+03  0.32534636690E+03  0.12500000000E+03 0.  0.
         25    1    1    2    0    0 -0.95835458793E+02 -0.17594156699E+03 -0.22682378820E+03  0.32743533873E+03  0.12500000000E+03 0.  0.
</event>
<event>
 5    0  0.5568866E-005  0.2244433E+03  0.7546771E-02  0.1130613E+00
         21   -1    0    0  502  501  0.00000000000E+00  0.00000000000E+00  0.16397957490E+04  0.16397957490E+04  0.00000000000E+00 0. -1.
         21   -1    0    0  501  502 -0.00000000000E+00 -0.00000000000E+00 -0.30720162973E+02  0.30720162973E+02  0.00000000000E+00 0. -1.
         25    1    1    2    0    0 -0.33029445524E+02  0.59079145640E+02  0.67202909021E+03  0.68689838245E+03  0.12500000000E+03 0.  0.
         25    1    1    2    0    0 -0.36409950871E+02  0.24097631550E+02  0.46160358833E+03  0.48021792254E+03  0.12500000000E+03 0.  0.
         25    1    1    2    0    0  0.69439396395E+02 -0.83176777190E+02  0.47544290750E+03  0.50339960700E+03  0.12500000000E+03 0.  0.
</event>
<event>
 5    0  0.5568866E-005  0.2663456E+03  0.7546771E-02  0.1103390E+00
         21   -1    0    0  502  501  0.00000000000E+00  0.00000000000E+00  0.98304188853E+02  0.98304188853E+02  0.00000000000E+00 0. -1.
         21   -1    0    0  501  502 -0.00000000000E+00 -0.00000000000E+00 -0.72163717895E+03  0.72163717895E+03  0.00000000000E+00 0. -1.
         25    1    1    2    0    0  0.16859549777E+03 -0.42211092481E+02 -0.23873355750E+03  0.32066326524E+03  0.12500000000E+03 0.  0.
         25    1    1    2    0    0 -0.74968953560E+02 -0.15112682703E+02 -0.22652137648E+03  0.26978819688E+03  0.12500000000E+03 0.  0.
         25    1    1    2    0    0 -0.93626544211E+02  0.57323775185E+02 -0.15807805611E+03  0.22948990567E+03  0.12500000000E+03 0.  0.
</event>
<event>
 5    0  0.5568866E-005  0.3290242E+03  0.7546771E-02  0.1071569E+00
         21   -1    0    0  502  501  0.00000000000E+00  0.00000000000E+00  0.27933222846E+04  0.27933222846E+04  0.00000000000E+00 0.  1.
         21   -1    0    0  501  502 -0.00000000000E+00 -0.00000000000E+00 -0.38755622518E+02  0.38755622518E+02  0.00000000000E+00 0.  1.
         25    1    1    2    0    0 -0.16355753653E+03 -0.16795974877E+02  0.47041440285E+03  0.51375858430E+03  0.12500000000E+03 0.  0.
         25    1    1    2    0    0  0.84510588025E+01 -0.93206290725E+02  0.12308597745E+04  0.12407254400E+04  0.12500000000E+03 0.  0.
         25    1    1    2    0    0  0.15510647772E+03  0.11000226560E+03  0.10532924847E+04  0.10775938828E+04  0.12500000000E+03 0.  0.
</event>
<event>
 5    0  0.5568866E-005  0.3281674E+03  0.7546771E-02  0.1071951E+00
         21   -1    0    0  502  501  0.00000000000E+00  0.00000000000E+00  0.19516186362E+03  0.19516186362E+03  0.00000000000E+00 0. -1.
         21   -1    0    0  501  502 -0.00000000000E+00 -0.00000000000E+00 -0.55181813194E+03  0.55181813194E+03  0.00000000000E+00 0. -1.
         25    1    1    2    0    0 -0.58831297199E+02  0.28827575662E+02 -0.12553028963E+03  0.18887827896E+03  0.12500000000E+03 0.  0.
         25    1    1    2    0    0 -0.18665004444E+03  0.14072811644E+02 -0.68177931774E+02  0.23517974721E+03  0.12500000000E+03 0.  0.
         25    1    1    2    0    0  0.24548134164E+03 -0.42900387306E+02 -0.16294804691E+03  0.32292196939E+03  0.12500000000E+03 0.  0.
</event>
<event>
 5    0  0.5568866E-005  0.3854860E+03  0.7546771E-02  0.1048925E+00
         21   -1    0    0  502  501  0.00000000000E+00  0.00000000000E+00  0.96576817842E+02  0.96576817842E+02  0.00000000000E+00 0. -1.
         21   -1    0    0  501  502 -0.00000000000E+00 -0.00000000000E+00 -0.15386660731E+04  0.15386660731E+04  0.00000000000E+00 0. -1.
         25    1    1    2    0    0  0.31569867836E+02 -0.97135963450E+02 -0.75040314991E+02  0.17801151880E+03  0.12500000000E+03 0.  0.
         25    1    1    2    0    0  0.76614828927E+02  0.70907295325E+02 -0.12856828367E+03  0.20749091572E+03  0.12500000000E+03 0.  0.
         25    1    1    2    0    0 -0.10818469676E+03  0.26228668125E+02 -0.12384806566E+04  0.12497404564E+04  0.12500000000E+03 0.  0.
</event>
<event>
 5    0  0.5568866E-005  0.3191961E+03  0.7546771E-02  0.1076020E+00
         21   -1    0    0  502  501  0.00000000000E+00  0.00000000000E+00  0.32940466143E+03  0.32940466143E+03  0.00000000000E+00 0.  1.
         21   -1    0    0  501  502 -0.00000000000E+00 -0.00000000000E+00 -0.30930397562E+03  0.30930397562E+03  0.00000000000E+00 0.  1.
         25    1    1    2    0    0  0.16175619958E+03 -0.36348687578E+02  0.44136797344E+02  0.21227188243E+03  0.12500000000E+03 0.  0.
         25    1    1    2    0    0 -0.22984858441E+03  0.82965001442E+02  0.15616061236E+01  0.27448315401E+03  0.12500000000E+03 0.  0.
         25    1    1    2    0    0  0.68092384837E+02 -0.46616313864E+02 -0.25597717652E+02  0.15195360062E+03  0.12500000000E+03 0.  0.
</event>
<event>
 5    0  0.5568866E-005  0.4780466E+03  0.7546771E-02  0.1019673E+00
         21   -1    0    0  502  501  0.00000000000E+00  0.00000000000E+00  0.19321112624E+04  0.19321112624E+04  0.00000000000E+00 0. -1.
         21   -1    0    0  501  502 -0.00000000000E+00 -0.00000000000E+00 -0.11827918202E+03  0.11827918202E+03  0.00000000000E+00 0. -1.
         25    1    1    2    0    0 -0.12096090311E+03 -0.20085810010E+03  0.83688711152E+02  0.27857551370E+03  0.12500000000E+03 0.  0.
         25    1    1    2    0    0 -0.11407859250E+01  0.87808815845E+02  0.10341145565E+04  0.10453370775E+04  0.12500000000E+03 0.  0.
         25    1    1    2    0    0  0.12210168903E+03  0.11304928426E+03  0.69602881276E+03  0.72647785329E+03  0.12500000000E+03 0.  0.
</event>
<event>
 5    0  0.5568866E-005  0.3043825E+03  0.7546771E-02  0.1083070E+00
         21   -1    0    0  502  501  0.00000000000E+00  0.00000000000E+00  0.27392358008E+03  0.27392358008E+03  0.00000000000E+00 0. -1.
         21   -1    0    0  501  502 -0.00000000000E+00 -0.00000000000E+00 -0.33822835111E+03  0.33822835111E+03  0.00000000000E+00 0. -1.
         25    1    1    2    0    0  0.28407678209E+02 -0.50620061669E+02 -0.17428949048E+03  0.22219633957E+03  0.12500000000E+03 0.  0.
         25    1    1    2    0    0 -0.12768720954E+03  0.29264144113E+02  0.13647591966E+03  0.22674013817E+03  0.12500000000E+03 0.  0.
         25    1    1    2    0    0  0.99279531328E+02  0.21355917556E+02 -0.26491200213E+02  0.16321545345E+03  0.12500000000E+03 0.  0.
</event>
<event>
 5    0  0.5568866E-005  0.5142704E+03  0.7546771E-02  0.1010120E+00
         21   -1    0    0  502  501  0.00000000000E+00  0.00000000000E+00  0.17178279625E+04  0.17178279625E+04  0.00000000000E+00 0.  1.
         21   -1    0    0  501  502 -0.00000000000E+00 -0.00000000000E+00 -0.15395838574E+03  0.15395838574E+03  0.00000000000E+00 0.  1.
         25    1    1    2    0    0  0.72835122739E+02 -0.17448238181E+03  0.51231749891E+02  0.23237630874E+03  0.12500000000E+03 0.  0.
         25    1    1    2    0    0 -0.23756083712E+02  0.37184743872E+03  0.91252683837E+03  0.99356182492E+03  0.12500000000E+03 0.  0.
         25    1    1    2    0    0 -0.49079039027E+02 -0.19736505691E+03  0.60011098850E+03  0.64584821458E+03  0.12500000000E+03 0.  0.
</event>
<event>
 5    0  0.5570320E-005  0.3017758E+03  0.7546771E-02  0.1084356E+00
         21   -1    0    0  502  501  0.00000000000E+00  0.00000000000E+00  0.73104228425E+02  0.73104228425E+02  0.00000000000E+00 0.  1.
         21   -1    0    0  501  502 -0.00000000000E+00 -0.00000000000E+00 -0.12457369511E+04  0.12457369511E+04  0.00000000000E+00 0.  1.
         25    1    1    2    0    0 -0.68604805490E+02  0.55314300722E+02 -0.74465033424E+02  0.17010682645E+03  0.12500000000E+03 0.  0.
         25    1    1    2    0    0  0.98948945181E+02 -0.10573796753E+03 -0.51384802745E+03  0.54830302465E+03  0.12500000000E+03 0.  0.
         25    1    1    2    0    0 -0.30344139691E+02  0.50423666812E+02 -0.58431966185E+03  0.60043132847E+03  0.12500000000E+03 0.  0.
</event>
<event>
 5    0  0.5568866E-005  0.3814679E+03  0.7546771E-02  0.1050393E+00
         21   -1    0    0  502  501  0.00000000000E+00  0.00000000000E+00  0.93078157309E+02  0.93078157309E+02  0.00000000000E+00 0.  1.
         21   -1    0    0  501  502 -0.00000000000E+00 -0.00000000000E+00 -0.15633930884E+04  0.15633930884E+04  0.00000000000E+00 0.  1.
         25    1    1    2    0    0  0.92275058743E+02 -0.16006493706E+03 -0.82121422611E+03  0.85097195942E+03  0.12500000000E+03 0.  0.
         25    1    1    2    0    0 -0.30234304288E+02 -0.76199648150E+02 -0.70805601838E+02  0.16540535900E+03  0.12500000000E+03 0.  0.
         25    1    1    2    0    0 -0.62040754455E+02  0.23626458521E+03 -0.57829510310E+03  0.64009392726E+03  0.12500000000E+03 0.  0.
</event>
<event>
 5    0  0.5568866E-005  0.2654667E+03  0.7546771E-02  0.1103903E+00
         21   -1    0    0  502  501  0.00000000000E+00  0.00000000000E+00  0.10603904641E+04  0.10603904641E+04  0.00000000000E+00 0.  1.
         21   -1    0    0  501  502 -0.00000000000E+00 -0.00000000000E+00 -0.66459050478E+02  0.66459050478E+02  0.00000000000E+00 0.  1.
         25    1    1    2    0    0 -0.70128028288E+02 -0.10266575304E+01  0.58410896392E+03  0.60143767433E+03  0.12500000000E+03 0.  0.
         25    1    1    2    0    0 -0.33648666048E+02  0.74793135611E+02  0.20585179117E+03  0.25441345442E+03  0.12500000000E+03 0.  0.
         25    1    1    2    0    0  0.10377669434E+03 -0.73766478081E+02  0.20397065852E+03  0.27099838582E+03  0.12500000000E+03 0.  0.
</event>
<event>
 5    0  0.5568866E-005  0.3745760E+03  0.7546771E-02  0.1052957E+00
         21   -1    0    0  502  501  0.00000000000E+00  0.00000000000E+00  0.63321207146E+03  0.63321207146E+03  0.00000000000E+00 0.  1.
         21   -1    0    0  501  502 -0.00000000000E+00 -0.00000000000E+00 -0.22158010100E+03  0.22158010100E+03  0.00000000000E+00 0.  1.
         25    1    1    2    0    0 -0.10342198973E+03 -0.17643054487E+02  0.26708381838E+02  0.16536542260E+03  0.12500000000E+03 0.  0.
         25    1    1    2    0    0 -0.21397919932E+02 -0.20288639156E+03  0.31991381791E+03  0.39948793442E+03  0.12500000000E+03 0.  0.
         25    1    1    2    0    0  0.12481990966E+03  0.22052944604E+03  0.65009770714E+02  0.28993881545E+03  0.12500000000E+03 0.  0.
</event>
<event>
 5    0  0.5568866E-005  0.2832155E+03  0.7546771E-02  0.1093946E+00
         21   -1    0    0  502  501  0.00000000000E+00  0.00000000000E+00  0.20692044329E+03  0.20692044329E+03  0.00000000000E+00 0. -1.
         21   -1    0    0  501  502 -0.00000000000E+00 -0.00000000000E+00 -0.38764171603E+03  0.38764171603E+03  0.00000000000E+00 0. -1.
         25    1    1    2    0    0 -0.99844261072E+02 -0.42291133785E+02 -0.73705455070E+02  0.18114886302E+03  0.12500000000E+03 0.  0.
         25    1    1    2    0    0  0.12088350387E+03 -0.10452095072E+03 -0.77665904476E+02  0.21724282121E+03  0.12500000000E+03 0.  0.
         25    1    1    2    0    0 -0.21039242802E+02  0.14681208451E+03 -0.29349913193E+02  0.19617047510E+03  0.12500000000E+03 0.  0.
</event>
<event>
 5    0  0.5568866E-005  0.3002698E+03  0.7546771E-02  0.1085106E+00
         21   -1    0    0  502  501  0.00000000000E+00  0.00000000000E+00  0.16304884091E+03  0.16304884091E+03  0.00000000000E+00 0.  1.
         21   -1    0    0  501  502 -0.00000000000E+00 -0.00000000000E+00 -0.55297519091E+03  0.55297519091E+03  0.00000000000E+00 0.  1.
         25    1    1    2    0    0  0.22754250959E+02  0.68733175879E+02 -0.61492751696E+02  0.15699797424E+03  0.12500000000E+03 0.  0.
         25    1    1    2    0    0 -0.18414622593E+03  0.17632854633E+02 -0.11425356632E+03  0.25079798146E+03  0.12500000000E+03 0.  0.
         25    1    1    2    0    0  0.16139197497E+03 -0.86366030512E+02 -0.21418003198E+03  0.30822807612E+03  0.12500000000E+03 0.  0.
</event>
<event>
 5    0  0.5766065E-005  0.2801808E+03  0.7546771E-02  0.1095590E+00
         21   -1    0    0  502  501  0.00000000000E+00  0.00000000000E+00  0.10509206768E+03  0.10509206768E+03  0.00000000000E+00 0.  1.
         21   -1    0    0  501  502 -0.00000000000E+00 -0.00000000000E+00 -0.74697616561E+03  0.74697616561E+03  0.00000000000E+00 0.  1.
         25    1    1    2    0    0 -0.69395801914E+02 -0.86898245688E+02 -0.27709295444E+03  0.32368594011E+03  0.12500000000E+03 0.  0.
         25    1    1    2    0    0 -0.15574594617E+01  0.71801244455E+02 -0.35543179318E+03  0.38355521635E+03  0.12500000000E+03 0.  0.
         25    1    1    2    0    0  0.70953261376E+02  0.15097001233E+02 -0.93593503214E+01  0.14482707684E+03  0.12500000000E+03 0.  0.
</event>
<event>
 5    0  0.5934301E-005  0.3398681E+03  0.7546771E-02  0.1066852E+00
         21   -1    0    0  502  501  0.00000000000E+00  0.00000000000E+00  0.27720110604E+03  0.27720110604E+03  0.00000000000E+00 0. -1.
         21   -1    0    0  501  502 -0.00000000000E+00 -0.00000000000E+00 -0.41670214175E+03  0.41670214175E+03  0.00000000000E+00 0. -1.
         25    1    1    2    0    0 -0.18510036048E+03  0.18845499742E+03 -0.11450969201E+03  0.31387083182E+03  0.12500000000E+03 0.  0.
         25    1    1    2    0    0  0.70675193131E+02 -0.11600386373E+03 -0.56508939811E+02  0.19305475804E+03  0.12500000000E+03 0.  0.
         25    1    1    2    0    0  0.11442516735E+03 -0.72451133689E+02  0.31517596118E+02  0.18697765792E+03  0.12500000000E+03 0.  0.
</event>
<event>
 5    0  0.5568866E-005  0.2947074E+03  0.7546771E-02  0.1087917E+00
         21   -1    0    0  502  501  0.00000000000E+00  0.00000000000E+00  0.41866439789E+02  0.41866439789E+02  0.00000000000E+00 0. -1.
         21   -1    0    0  501  502 -0.00000000000E+00 -0.00000000000E+00 -0.20745122374E+04  0.20745122374E+04  0.00000000000E+00 0. -1.
         25    1    1    2    0    0 -0.13164155934E+03 -0.10578843330E+03 -0.95474193530E+03  0.97758777396E+03  0.12500000000E+03 0.  0.
         25    1    1    2    0    0  0.66938757594E+02  0.20007888698E+02 -0.20257862536E+03  0.24808106000E+03  0.12500000000E+03 0.  0.
         25    1    1    2    0    0  0.64702801750E+02  0.85780544602E+02 -0.87532523696E+03  0.89070984324E+03  0.12500000000E+03 0.  0.
</event>
<event>
 5    0  0.5568866E-005  0.2869936E+03  0.7546771E-02  0.1091929E+00
         21   -1    0    0  502  501  0.00000000000E+00  0.00000000000E+00  0.13135865302E+03  0.13135865302E+03  0.00000000000E+00 0. -1.
         21   -1    0    0  501  502 -0.00000000000E+00 -0.00000000000E+00 -0.62702607802E+03  0.62702607802E+03  0.00000000000E+00 0. -1.
         25    1    1    2    0    0 -0.69342797794E+02 -0.16261647245E+03 -0.24724160866E+03  0.32864259275E+03  0.12500000000E+03 0.  0.
         25    1    1    2    0    0 -0.12823262085E+02  0.54216826674E+02 -0.19352046691E+03  0.23702124685E+03  0.12500000000E+03 0.  0.
         25    1    1    2    0    0  0.82166059879E+02  0.10839964577E+03 -0.54905349424E+02  0.19272089143E+03  0.12500000000E+03 0.  0.
</event>
<event>
 5    0  0.5568866E-005  0.3075169E+03  0.7546771E-02  0.1081542E+00
         21   -1    0    0  502  501  0.00000000000E+00  0.00000000000E+00  0.10141898463E+03  0.10141898463E+03  0.00000000000E+00 0. -1.
         21   -1    0    0  501  502 -0.00000000000E+00 -0.00000000000E+00 -0.93243539715E+03  0.93243539715E+03  0.00000000000E+00 0. -1.
         25    1    1    2    0    0 -0.15161545917E+03  0.82825344563E+01 -0.88625930536E+02  0.21572066058E+03  0.12500000000E+03 0.  0.
         25    1    1    2    0    0  0.70973829111E+02  0.82253793820E+02 -0.42465654323E+03  0.45580823898E+03  0.12500000000E+03 0.  0.
         25    1    1    2    0    0  0.80641630058E+02 -0.90536328276E+02 -0.31773393875E+03  0.36232548223E+03  0.12500000000E+03 0.  0.
</event>
<event>
 5    0  0.5568866E-005  0.6318163E+03  0.7546771E-02  0.9841511E-01
         21   -1    0    0  502  501  0.00000000000E+00  0.00000000000E+00  0.23766030014E+03  0.23766030014E+03  0.00000000000E+00 0.  1.
         21   -1    0    0  501  502 -0.00000000000E+00 -0.00000000000E+00 -0.16796740501E+04  0.16796740501E+04  0.00000000000E+00 0.  1.
         25    1    1    2    0    0  0.12610966140E+03  0.27726256956E+03 -0.13142925400E+04  0.13549051848E+04  0.12500000000E+03 0.  0.
         25    1    1    2    0    0 -0.46414431245E+02 -0.29580972303E+02  0.12018411376E+03  0.18193008149E+03  0.12500000000E+03 0.  0.
         25    1    1    2    0    0 -0.79695230157E+02 -0.24768159726E+03 -0.24790532371E+03  0.38049908391E+03  0.12500000000E+03 0.  0.
</event>
<event>
 5    0  0.5568866E-005  0.2812604E+03  0.7546771E-02  0.1095003E+00
         21   -1    0    0  502  501  0.00000000000E+00  0.00000000000E+00  0.19602059853E+03  0.19602059853E+03  0.00000000000E+00 0. -1.
         21   -1    0    0  501  502 -0.00000000000E+00 -0.00000000000E+00 -0.40356675330E+03  0.40356675330E+03  0.00000000000E+00 0. -1.
         25    1    1    2    0    0  0.53805415334E+02  0.22221759807E+02  0.12930778331E+02  0.13849561133E+03  0.12500000000E+03 0.  0.
         25    1    1    2    0    0 -0.51596056268E+02  0.64166690102E+02  0.44044559127E+02  0.15602704999E+03  0.12500000000E+03 0.  0.
         25    1    1    2    0    0 -0.22093590663E+01 -0.86388449908E+02 -0.26452149223E+03  0.30506469051E+03  0.12500000000E+03 0.  0.
</event>
<event>
 5    0  0.5568866E-005  0.5713318E+03  0.7546771E-02  0.9966736E-01
         21   -1    0    0  502  501  0.00000000000E+00  0.00000000000E+00  0.75403890492E+03  0.75403890492E+03  0.00000000000E+00 0. -1.
         21   -1    0    0  501  502 -0.00000000000E+00 -0.00000000000E+00 -0.43289554377E+03  0.43289554377E+03  0.00000000000E+00 0. -1.
         25    1    1    2    0    0 -0.23712004389E+03  0.22936209289E+02 -0.22971236302E+03  0.35375804532E+03  0.12500000000E+03 0.  0.
         25    1    1    2    0    0 -0.66394381963E+02  0.16693311162E+03  0.90713115342E+02  0.23691506286E+03  0.12500000000E+03 0.  0.
         25    1    1    2    0    0  0.30351442585E+03 -0.18986932091E+03  0.46014260883E+03  0.59626134051E+03  0.12500000000E+03 0.  0.
</event>
<event>
 5    0  0.5568866E-005  0.4069251E+03  0.7546771E-02  0.1041408E+00
         21   -1    0    0  502  501  0.00000000000E+00  0.00000000000E+00  0.13190481106E+03  0.13190481106E+03  0.00000000000E+00 0.  1.
         21   -1    0    0  501  502 -0.00000000000E+00 -0.00000000000E+00 -0.12553598621E+04  0.12553598621E+04  0.00000000000E+00 0.  1.
         25    1    1    2    0    0 -0.24130968601E+03 -0.16175871577E+00 -0.72789563187E+03  0.77697325669E+03  0.12500000000E+03 0.  0.
         25    1    1    2    0    0  0.25921593503E+02 -0.94176073114E+02 -0.35686213968E+02  0.16260248345E+03  0.12500000000E+03 0.  0.
         25    1    1    2    0    0  0.21538809250E+03  0.94337831830E+02 -0.35987320517E+03  0.44768893298E+03  0.12500000000E+03 0.  0.
</event>
<event>
 5    0  0.5568866E-005  0.3495971E+03  0.7546771E-02  0.1062781E+00
         21   -1    0    0  502  501  0.00000000000E+00  0.00000000000E+00  0.35895270223E+03  0.35895270223E+03  0.00000000000E+00 0.  1.
         21   -1    0    0  501  502 -0.00000000000E+00 -0.00000000000E+00 -0.34048534565E+03  0.34048534565E+03  0.00000000000E+00 0.  1.
         25    1    1    2    0    0  0.10651884883E+03 -0.60492178112E+02  0.55171007603E+02  0.18350588233E+03  0.12500000000E+03 0.  0.
         25    1    1    2    0    0  0.13397223663E+03 -0.88701743401E+02  0.57115146989E+01  0.20365210745E+03  0.12500000000E+03 0.  0.
         25    1    1    2    0    0 -0.24049108546E+03  0.14919392151E+03 -0.42415165716E+02  0.31228005810E+03  0.12500000000E+03 0.  0.
</event>
<event>
 5    0  0.5568866E-005  0.3695231E+03  0.7546771E-02  0.1054875E+00
         21   -1    0    0  502  501  0.00000000000E+00  0.00000000000E+00  0.47726913736E+03  0.47726913736E+03  0.00000000000E+00 0. -1.
         21   -1    0    0  501  502 -0.00000000000E+00 -0.00000000000E+00 -0.28610127254E+03  0.28610127254E+03  0.00000000000E+00 0. -1.
         25    1    1    2    0    0 -0.18857544628E+03  0.15425183320E+03 -0.94269517037E+02  0.28959638953E+03  0.12500000000E+03 0.  0.
         25    1    1    2    0    0  0.65139608182E+02 -0.16843816293E+02  0.17367005964E+03  0.22430597923E+03  0.12500000000E+03 0.  0.
         25    1    1    2    0    0  0.12343583809E+03 -0.13740801691E+03  0.11176732222E+03  0.24946804114E+03  0.12500000000E+03 0.  0.
</event>
<event>
 5    0  0.5568866E-005  0.3709911E+03  0.7546771E-02  0.1054315E+00
         21   -1    0    0  502  501  0.00000000000E+00  0.00000000000E+00  0.28961129527E+03  0.28961129527E+03  0.00000000000E+00 0.  1.
         21   -1    0    0  501  502 -0.00000000000E+00 -0.00000000000E+00 -0.47523836113E+03  0.47523836113E+03  0.00000000000E+00 0.  1.
         25    1    1    2    0    0  0.65476660288E+01 -0.16581687335E+03 -0.21966269647E+03  0.30234881782E+03  0.12500000000E+03 0.  0.
         25    1    1    2    0    0 -0.41790158791E+02 -0.10897650522E+02  0.16158074337E+03  0.20880256891E+03  0.12500000000E+03 0.  0.
         25    1    1    2    0    0  0.35242492762E+02  0.17671452387E+03 -0.12754511275E+03  0.25369826966E+03  0.12500000000E+03 0.  0.
</event>
<event>
 5    0  0.5568866E-005  0.2890008E+03  0.7546771E-02  0.1090872E+00
         21   -1    0    0  502  501  0.00000000000E+00  0.00000000000E+00  0.10007662945E+04  0.10007662945E+04  0.00000000000E+00 0.  1.
         21   -1    0    0  501  502 -0.00000000000E+00 -0.00000000000E+00 -0.83457521688E+02  0.83457521688E+02  0.00000000000E+00 0.  1.
         25    1    1    2    0    0  0.98350142522E+01 -0.14241975095E+03  0.33648045449E+03  0.38629549469E+03  0.12500000000E+03 0.  0.
         25    1    1    2    0    0 -0.61327947510E+02  0.86752310754E+02  0.92815386377E+02  0.18848548091E+03  0.12500000000E+03 0.  0.
         25    1    1    2    0    0  0.51492933257E+02  0.55667440198E+02  0.48801293195E+03  0.50944284058E+03  0.12500000000E+03 0.  0.
</event>
<event>
 5    0  0.5568866E-005  0.3024290E+03  0.7546771E-02  0.1084033E+00
         21   -1    0    0  502  501  0.00000000000E+00  0.00000000000E+00  0.88825205166E+03  0.88825205166E+03  0.00000000000E+00 0. -1.
         21   -1    0    0  501  502 -0.00000000000E+00 -0.00000000000E+00 -0.10296995672E+03  0.10296995672E+03  0.00000000000E+00 0. -1.
         25    1    1    2    0    0 -0.18492412804E+03  0.24137842103E+00  0.47273128077E+03  0.52277801715E+03  0.12500000000E+03 0.  0.
         25    1    1    2    0    0  0.65117194402E+02  0.75547011827E+02  0.14509345984E+03  0.21592756214E+03  0.12500000000E+03 0.  0.
         25    1    1    2    0    0  0.11980693364E+03 -0.75788390248E+02  0.16745735433E+03  0.25251642909E+03  0.12500000000E+03 0.  0.
</event>
<event>
 5    0  0.5568866E-005  0.3686022E+03  0.7546771E-02  0.1055229E+00
         21   -1    0    0  502  501  0.00000000000E+00  0.00000000000E+00  0.19411249414E+04  0.19411249414E+04  0.00000000000E+00 0.  1.
         21   -1    0    0  501  502 -0.00000000000E+00 -0.00000000000E+00 -0.69994259229E+02  0.69994259229E+02  0.00000000000E+00 0.  1.
         25    1    1    2    0    0 -0.88923342368E+02  0.11558654151E+01  0.38765473762E+02  0.15822913385E+03  0.12500000000E+03 0.  0.
         25    1    1    2    0    0  0.71528197660E+02 -0.76328590044E+01  0.80933093468E+03  0.82208035217E+03  0.12500000000E+03 0.  0.
         25    1    1    2    0    0  0.17395144708E+02  0.64769935894E+01  0.10230342738E+04  0.10308097146E+04  0.12500000000E+03 0.  0.
</event>
<event>
 5    0  0.5568866E-005  0.4321984E+03  0.7546771E-02  0.1033168E+00
         21   -1    0    0  502  501  0.00000000000E+00  0.00000000000E+00  0.80579979833E+03  0.80579979833E+03  0.00000000000E+00 0. -1.
         21   -1    0    0  501  502 -0.00000000000E+00 -0.00000000000E+00 -0.23181376493E+03  0.23181376493E+03  0.00000000000E+00 0. -1.
         25    1    1    2    0    0  0.49529844491E+02  0.19929149888E+03  0.81985381136E+02  0.25400179082E+03  0.12500000000E+03 0.  0.
         25    1    1    2    0    0 -0.56046928264E+01 -0.30082206995E+02 -0.94052648153E+02  0.15939652563E+03  0.12500000000E+03 0.  0.
         25    1    1    2    0    0 -0.43925151665E+02 -0.16920929188E+03  0.58605330042E+03  0.62421524681E+03  0.12500000000E+03 0.  0.
</event>
<event>
 5    0  0.5568866E-005  0.2637570E+03  0.7546771E-02  0.1104907E+00
         21   -1    0    0  502  501  0.00000000000E+00  0.00000000000E+00  0.50466360782E+03  0.50466360782E+03  0.00000000000E+00 0. -1.
         21   -1    0    0  501  502 -0.00000000000E+00 -0.00000000000E+00 -0.13784971411E+03  0.13784971411E+03  0.00000000000E+00 0. -1.
         25    1    1    2    0    0 -0.66651266967E+02 -0.12137062075E+03  0.21733642435E+02  0.18780460639E+03  0.12500000000E+03 0.  0.
         25    1    1    2    0    0  0.20859820754E+02  0.46060757071E+02  0.10887257031E+03  0.17330597806E+03  0.12500000000E+03 0.  0.
         25    1    1    2    0    0  0.45791446213E+02  0.75309863676E+02  0.23620768097E+03  0.28140273748E+03  0.12500000000E+03 0.  0.
</event>
<event>
 5    0  0.5568866E-005  0.4698479E+03  0.7546771E-02  0.1021963E+00
         21   -1    0    0  502  501  0.00000000000E+00  0.00000000000E+00  0.29604853008E+03  0.29604853008E+03  0.00000000000E+00 0. -1.
         21   -1    0    0  501  502 -0.00000000000E+00 -0.00000000000E+00 -0.74567844550E+03  0.74567844550E+03  0.00000000000E+00 0. -1.
         25    1    1    2    0    0  0.81226902622E+02  0.81580562686E+01 -0.42543863860E+02  0.15523963393E+03  0.12500000000E+03 0.  0.
         25    1    1    2    0    0  0.10028230548E+02 -0.34019889107E+03 -0.37039276418E+03  0.51831616862E+03  0.12500000000E+03 0.  0.
         25    1    1    2    0    0 -0.91255133171E+02  0.33204083481E+03 -0.36693287377E+02  0.36817117303E+03  0.12500000000E+03 0.  0.
</event>
<event>
 5    0  0.5568866E-005  0.6886853E+03  0.7546771E-02  0.9736780E-01
         21   -1    0    0  502  501  0.00000000000E+00  0.00000000000E+00  0.34114548843E+03  0.34114548843E+03  0.00000000000E+00 0. -1.
         21   -1    0    0  501  502 -0.00000000000E+00 -0.00000000000E+00 -0.13902792371E+04  0.13902792371E+04  0.00000000000E+00 0. -1.
         25    1    1    2    0    0  0.25887572688E+03 -0.41517746602E+03 -0.75195966566E+03  0.90579098529E+03  0.12500000000E+03 0.  0.
         25    1    1    2    0    0 -0.33429803043E+03  0.47043424032E+03 -0.14588789499E+03  0.60825309330E+03  0.12500000000E+03 0.  0.
         25    1    1    2    0    0  0.75422303542E+02 -0.55256774299E+02 -0.15128618802E+03  0.21738064694E+03  0.12500000000E+03 0.  0.
</event>
<event>
 5    0  0.5568866E-005  0.3680212E+03  0.7546771E-02  0.1055452E+00
         21   -1    0    0  502  501  0.00000000000E+00  0.00000000000E+00  0.20477589074E+03  0.20477589074E+03  0.00000000000E+00 0.  1.
         21   -1    0    0  501  502 -0.00000000000E+00 -0.00000000000E+00 -0.66140388564E+03  0.66140388564E+03  0.00000000000E+00 0.  1.
         25    1    1    2    0    0  0.99276032527E+02 -0.25323227242E+03 -0.48119848641E+02  0.30318778713E+03  0.12500000000E+03 0.  0.
         25    1    1    2    0    0 -0.62340712133E+02  0.11530241978E+03 -0.11861724853E+03  0.21650880824E+03  0.12500000000E+03 0.  0.
         25    1    1    2    0    0 -0.36935320393E+02  0.13792985264E+03 -0.28989089773E+03  0.34648318102E+03  0.12500000000E+03 0.  0.
</event>
<event>
 5    0  0.5789287E-005  0.3175891E+03  0.7546771E-02  0.1076764E+00
         21   -1    0    0  502  501  0.00000000000E+00  0.00000000000E+00  0.36177291387E+03  0.36177291387E+03  0.00000000000E+00 0. -1.
         21   -1    0    0  501  502 -0.00000000000E+00 -0.00000000000E+00 -0.27880142880E+03  0.27880142880E+03  0.00000000000E+00 0. -1.
         25    1    1    2    0    0  0.40399064751E+02 -0.14790826520E+03  0.81747489894E+02  0.21404810546E+03  0.12500000000E+03 0.  0.
         25    1    1    2    0    0 -0.15171021067E+03  0.14620517240E+03 -0.52856368139E+02  0.25062070168E+03  0.12500000000E+03 0.  0.
         25    1    1    2    0    0  0.11131114592E+03  0.17030927968E+01  0.54080363320E+02  0.17590553552E+03  0.12500000000E+03 0.  0.
</event>
<event>
 5    0  0.5568866E-005  0.2500362E+03  0.7546771E-02  0.1113282E+00
         21   -1    0    0  502  501  0.00000000000E+00  0.00000000000E+00  0.68287171475E+03  0.68287171475E+03  0.00000000000E+00 0.  1.
         21   -1    0    0  501  502 -0.00000000000E+00 -0.00000000000E+00 -0.91551767918E+02  0.91551767918E+02  0.00000000000E+00 0.  1.
         25    1    1    2    0    0  0.76589566145E+02  0.72749704017E+02  0.65432965431E+02  0.17625252918E+03  0.12500000000E+03 0.  0.
         25    1    1    2    0    0 -0.41724261227E+02 -0.66327251785E+02  0.34715598062E+03  0.37720351693E+03  0.12500000000E+03 0.  0.
         25    1    1    2    0    0 -0.34865304918E+02 -0.64224522318E+01  0.17873100078E+03  0.22096743656E+03  0.12500000000E+03 0.  0.
</event>
<event>
 5    0  0.5568866E-005  0.2784861E+03  0.7546771E-02  0.1096519E+00
         21   -1    0    0  502  501  0.00000000000E+00  0.00000000000E+00  0.15397447146E+03  0.15397447146E+03  0.00000000000E+00 0.  1.
         21   -1    0    0  501  502 -0.00000000000E+00 -0.00000000000E+00 -0.50368427818E+03  0.50368427818E+03  0.00000000000E+00 0.  1.
         25    1    1    2    0    0 -0.13086439034E+03 -0.32484478159E+02 -0.15144410716E+02  0.18448599718E+03  0.12500000000E+03 0.  0.
         25    1    1    2    0    0  0.79426035824E+02  0.17572684595E+02 -0.29659672958E+03  0.33198179830E+03  0.12500000000E+03 0.  0.
         25    1    1    2    0    0  0.51438354516E+02  0.14911793564E+02 -0.37968666426E+02  0.14119095415E+03  0.12500000000E+03 0.  0.
</event>
<event>
 5    0  0.5568866E-005  0.2231910E+03  0.7546771E-02  0.1131526E+00
         21   -1    0    0  502  501  0.00000000000E+00  0.00000000000E+00  0.12382628129E+03  0.12382628129E+03  0.00000000000E+00 0.  1.
         21   -1    0    0  501  502 -0.00000000000E+00 -0.00000000000E+00 -0.40229128678E+03  0.40229128678E+03  0.00000000000E+00 0.  1.
         25    1    1    2    0    0  0.18410856660E+02 -0.87636237614E+02 -0.12207219691E+03  0.19633056574E+03  0.12500000000E+03 0.  0.
         25    1    1    2    0    0 -0.83188569152E+01  0.46010523037E+02 -0.11901838267E+02  0.13398815382E+03  0.12500000000E+03 0.  0.
         25    1    1    2    0    0 -0.10091999745E+02  0.41625714577E+02 -0.14449097031E+03  0.19579884850E+03  0.12500000000E+03 0.  0.
</event>
<event>
 5    0  0.5568866E-005  0.3298782E+03  0.7546771E-02  0.1071191E+00
         21   -1    0    0  502  501  0.00000000000E+00  0.00000000000E+00  0.16639978883E+03  0.16639978883E+03  0.00000000000E+00 0.  1.
         21   -1    0    0  501  502 -0.00000000000E+00 -0.00000000000E+00 -0.65396493679E+03  0.65396493679E+03  0.00000000000E+00 0.  1.
         25    1    1    2    0    0 -0.57386945143E+02 -0.90215847158E+02 -0.11736116858E+03  0.20206633674E+03  0.12500000000E+03 0.  0.
         25    1    1    2    0    0 -0.72682004518E+02 -0.10028728771E+02 -0.38501084000E+03  0.41138983470E+03  0.12500000000E+03 0.  0.
         25    1    1    2    0    0  0.13006894966E+03  0.10024457593E+03  0.14806860616E+02  0.20690855417E+03  0.12500000000E+03 0.  0.
</event>
<event>
 5    0  0.5568866E-005  0.2793301E+03  0.7546771E-02  0.1096055E+00
         21   -1    0    0  502  501  0.00000000000E+00  0.00000000000E+00  0.25511527848E+03  0.25511527848E+03  0.00000000000E+00 0.  1.
         21   -1    0    0  501  502 -0.00000000000E+00 -0.00000000000E+00 -0.30584331131E+03  0.30584331131E+03  0.00000000000E+00 0.  1.
         25    1    1    2    0    0 -0.76744605637E+02 -0.59350284673E+02 -0.80685633843E+02  0.17761577152E+03  0.12500000000E+03 0.  0.
         25    1    1    2    0    0  0.16966039326E+03  0.60095604228E+02 -0.19303166507E+02  0.21998577892E+03  0.12500000000E+03 0.  0.
         25    1    1    2    0    0 -0.92915787623E+02 -0.74531955516E+00  0.49260767519E+02  0.16335703936E+03  0.12500000000E+03 0.  0.
</event>
<event>
 5    0  0.5568866E-005  0.2884427E+03  0.7546771E-02  0.1091165E+00
         21   -1    0    0  502  501  0.00000000000E+00  0.00000000000E+00  0.38926412682E+03  0.38926412682E+03  0.00000000000E+00 0. -1.
         21   -1    0    0  501  502 -0.00000000000E+00 -0.00000000000E+00 -0.21373460757E+03  0.21373460757E+03  0.00000000000E+00 0. -1.
         25    1    1    2    0    0 -0.54847086110E+02 -0.63793965092E+01  0.29279587052E+02  0.13975404743E+03  0.12500000000E+03 0.  0.
         25    1    1    2    0    0 -0.48556208532E+02  0.60873901152E+02  0.22969389608E+03  0.27285091740E+03  0.12500000000E+03 0.  0.
         25    1    1    2    0    0  0.10340329464E+03 -0.54494504642E+02 -0.83443963887E+02  0.19039376956E+03  0.12500000000E+03 0.  0.
</event>
<event>
 5    0  0.5568866E-005  0.2644500E+03  0.7546771E-02  0.1104499E+00
         21   -1    0    0  502  501  0.00000000000E+00  0.00000000000E+00  0.11542022672E+03  0.11542022672E+03  0.00000000000E+00 0.  1.
         21   -1    0    0  501  502 -0.00000000000E+00 -0.00000000000E+00 -0.60590604380E+03  0.60590604380E+03  0.00000000000E+00 0.  1.
         25    1    1    2    0    0 -0.99844119663E+02  0.91622400640E+02 -0.22783541601E+03  0.29308273460E+03  0.12500000000E+03 0.  0.
         25    1    1    2    0    0  0.85260794222E+02 -0.29228392281E+02 -0.30787950129E+02  0.15715151867E+03  0.12500000000E+03 0.  0.
         25    1    1    2    0    0  0.14583325441E+02 -0.62394008360E+02 -0.23186245094E+03  0.27109201725E+03  0.12500000000E+03 0.  0.
</event>
<event>
 5    0  0.5568866E-005  0.3493106E+03  0.7546771E-02  0.1062898E+00
         21   -1    0    0  502  501  0.00000000000E+00  0.00000000000E+00  0.76234969047E+03  0.76234969047E+03  0.00000000000E+00 0. -1.
         21   -1    0    0  501  502 -0.00000000000E+00 -0.00000000000E+00 -0.16005501368E+03  0.16005501368E+03  0.00000000000E+00 0. -1.
         25    1    1    2    0    0 -0.75942832832E+02 -0.24982320755E+03  0.15089886742E+03  0.32645737406E+03  0.12500000000E+03 0.  0.
         25    1    1    2    0    0  0.84510788810E+02  0.95815471973E+02  0.14177226242E+03  0.22813823110E+03  0.12500000000E+03 0.  0.
         25    1    1    2    0    0 -0.85679559777E+01  0.15400773557E+03  0.30962354694E+03  0.36780909900E+03  0.12500000000E+03 0.  0.
</event>
<event>
 5    0  0.5568866E-005  0.2628546E+03  0.7546771E-02  0.1105440E+00
         21   -1    0    0  502  501  0.00000000000E+00  0.00000000000E+00  0.13405471777E+03  0.13405471777E+03  0.00000000000E+00 0. -1.
         21   -1    0    0  501  502 -0.00000000000E+00 -0.00000000000E+00 -0.51540534948E+03  0.51540534948E+03  0.00000000000E+00 0. -1.
         25    1    1    2    0    0 -0.14786431839E+02  0.84571730019E+02 -0.10036977590E+03  0.18185188478E+03  0.12500000000E+03 0.  0.
         25    1    1    2    0    0 -0.46026553035E+02  0.78606193488E+02 -0.81677456951E+02  0.17491021758E+03  0.12500000000E+03 0.  0.
         25    1    1    2    0    0  0.60812984873E+02 -0.16317792351E+03 -0.19930339887E+03  0.29269796489E+03  0.12500000000E+03 0.  0.
</event>
<event>
 5    0  0.5568866E-005  0.4264375E+03  0.7546771E-02  0.1034991E+00
         21   -1    0    0  502  501  0.00000000000E+00  0.00000000000E+00  0.13008690797E+03  0.13008690797E+03  0.00000000000E+00 0.  1.
         21   -1    0    0  501  502 -0.00000000000E+00 -0.00000000000E+00 -0.13979032517E+04  0.13979032517E+04  0.00000000000E+00 0.  1.
         25    1    1    2    0    0  0.12607379272E+03 -0.38978746571E+02 -0.25955395437E+02  0.18360998460E+03  0.12500000000E+03 0.  0.
         25    1    1    2    0    0 -0.47843494597E+02  0.23086440289E+03 -0.75323804239E+03  0.79911195774E+03  0.12500000000E+03 0.  0.
         25    1    1    2    0    0 -0.78230298119E+02 -0.19188565632E+03 -0.48862290589E+03  0.54526821731E+03  0.12500000000E+03 0.  0.
</event>
<event>
 5    0  0.5625463E-005  0.3883582E+03  0.7546771E-02  0.1047887E+00
         21   -1    0    0  502  501  0.00000000000E+00  0.00000000000E+00  0.38173068263E+03  0.38173068263E+03  0.00000000000E+00 0.  1.
         21   -1    0    0  501  502 -0.00000000000E+00 -0.00000000000E+00 -0.39510077161E+03  0.39510077161E+03  0.00000000000E+00 0.  1.
         25    1    1    2    0    0  0.84175972842E+02  0.30674815828E+02  0.18620382612E+03  0.24150238837E+03  0.12500000000E+03 0.  0.
         25    1    1    2    0    0 -0.17351030821E+03 -0.41624281936E+02  0.66588466583E+02  0.22781007832E+03  0.12500000000E+03 0.  0.
         25    1    1    2    0    0  0.89334335363E+02  0.10949466108E+02 -0.26616238167E+03  0.30751898755E+03  0.12500000000E+03 0.  0.
</event>
<event>
 5    0  0.5568866E-005  0.2783935E+03  0.7546771E-02  0.1096570E+00
         21   -1    0    0  502  501  0.00000000000E+00  0.00000000000E+00  0.23631909897E+04  0.23631909897E+04  0.00000000000E+00 0. -1.
         21   -1    0    0  501  502 -0.00000000000E+00 -0.00000000000E+00 -0.32795889783E+02  0.32795889783E+02  0.00000000000E+00 0. -1.
         25    1    1    2    0    0 -0.31826197909E+02  0.79305368083E+01  0.12373844959E+04  0.12441146213E+04  0.12500000000E+03 0.  0.
         25    1    1    2    0    0  0.95732576617E+02  0.71056919351E+02  0.33476260688E+03  0.37670255505E+03  0.12500000000E+03 0.  0.
         25    1    1    2    0    0 -0.63906378708E+02 -0.78987456160E+02  0.75824799718E+03  0.77516970317E+03  0.12500000000E+03 0.  0.
</event>
<event>
 5    0  0.5568866E-005  0.2825111E+03  0.7546771E-02  0.1094325E+00
         21   -1    0    0  502  501  0.00000000000E+00  0.00000000000E+00  0.59374761744E+03  0.59374761744E+03  0.00000000000E+00 0.  1.
         21   -1    0    0  501  502 -0.00000000000E+00 -0.00000000000E+00 -0.13442163656E+03  0.13442163656E+03  0.00000000000E+00 0.  1.
         25    1    1    2    0    0  0.60931475829E+02 -0.40571611242E+02  0.13939419578E+03  0.20103343553E+03  0.12500000000E+03 0.  0.
         25    1    1    2    0    0  0.57423864942E+02  0.15722899654E+03  0.13404418678E+03  0.24821623966E+03  0.12500000000E+03 0.  0.
         25    1    1    2    0    0 -0.11835534077E+03 -0.11665738530E+03  0.18588759833E+03  0.27891957881E+03  0.12500000000E+03 0.  0.
</event>
<event>
 5    0  0.5568866E-005  0.2856719E+03  0.7546771E-02  0.1092631E+00
         21   -1    0    0  502  501  0.00000000000E+00  0.00000000000E+00  0.90594770188E+02  0.90594770188E+02  0.00000000000E+00 0. -1.
         21   -1    0    0  501  502 -0.00000000000E+00 -0.00000000000E+00 -0.90080712734E+03  0.90080712734E+03  0.00000000000E+00 0. -1.
         25    1    1    2    0    0 -0.15981500454E+03  0.98447996526E+02 -0.35203995957E+03  0.41807891220E+03  0.12500000000E+03 0.  0.
         25    1    1    2    0    0  0.13634735574E+03 -0.94648208339E+02 -0.21574552275E+03  0.29953299542E+03  0.12500000000E+03 0.  0.
         25    1    1    2    0    0  0.23467648807E+02 -0.37997881871E+01 -0.24242687484E+03  0.27378998991E+03  0.12500000000E+03 0.  0.
</event>
<event>
 5    0  0.5568866E-005  0.5192533E+03  0.7546771E-02  0.1008872E+00
         21   -1    0    0  502  501  0.00000000000E+00  0.00000000000E+00  0.21273957225E+04  0.21273957225E+04  0.00000000000E+00 0. -1.
         21   -1    0    0  501  502 -0.00000000000E+00 -0.00000000000E+00 -0.12673896780E+03  0.12673896780E+03  0.00000000000E+00 0.  1.
         25    1    1    2    0    0  0.17796072053E+03  0.11424796108E+03  0.78703444381E+03  0.82448215894E+03  0.12500000000E+03 0.  0.
         25    1    1    2    0    0 -0.28699738842E+03 -0.23131190701E+03  0.29372703840E+03  0.48762000817E+03  0.12500000000E+03 0.  0.
         25    1    1    2    0    0  0.10903666789E+03  0.11706394593E+03  0.91989527248E+03  0.94203252317E+03  0.12500000000E+03 0.  0.
</event>
<event>
 5    0  0.5568866E-005  0.4051678E+03  0.7546771E-02  0.1042005E+00
         21   -1    0    0  502  501  0.00000000000E+00  0.00000000000E+00  0.31369369867E+03  0.31369369867E+03  0.00000000000E+00 0.  1.
         21   -1    0    0  501  502 -0.00000000000E+00 -0.00000000000E+00 -0.52331595572E+03  0.52331595572E+03  0.00000000000E+00 0.  1.
         25    1    1    2    0    0  0.96765229609E+02  0.32016244281E+01  0.79806581136E+02  0.17710971304E+03  0.12500000000E+03 0.  0.
         25    1    1    2    0    0 -0.78763647545E+02  0.16942873337E+03 -0.36866913069E+03  0.43180057409E+03  0.12500000000E+03 0.  0.
         25    1    1    2    0    0 -0.18001582065E+02 -0.17263035779E+03  0.79240292494E+02  0.22809936726E+03  0.12500000000E+03 0.  0.
</event>
<event>
 5    0  0.5568866E-005  0.2646519E+03  0.7546771E-02  0.1104380E+00
         21   -1    0    0  502  501  0.00000000000E+00  0.00000000000E+00  0.40116936648E+02  0.40116936648E+02  0.00000000000E+00 0.  1.
         21   -1    0    0  501  502 -0.00000000000E+00 -0.00000000000E+00 -0.17459112235E+04  0.17459112235E+04  0.00000000000E+00 0.  1.
         25    1    1    2    0    0 -0.14411488031E+03  0.14184559849E+02 -0.63778542893E+03  0.66585700704E+03  0.12500000000E+03 0.  0.
         25    1    1    2    0    0  0.32896421898E+02 -0.32890549651E+02 -0.23402379833E+03  0.26936239718E+03  0.12500000000E+03 0.  0.
         25    1    1    2    0    0  0.11121845841E+03  0.18705989802E+02 -0.83398505956E+03  0.85080875590E+03  0.12500000000E+03 0.  0.
</event>
<event>
 5    0  0.5568866E-005  0.3116203E+03  0.7546771E-02  0.1079572E+00
         21   -1    0    0  502  501  0.00000000000E+00  0.00000000000E+00  0.48711765195E+03  0.48711765195E+03  0.00000000000E+00 0. -1.
         21   -1    0    0  501  502 -0.00000000000E+00 -0.00000000000E+00 -0.19935066596E+03  0.19935066596E+03  0.00000000000E+00 0. -1.
         25    1    1    2    0    0 -0.22548713170E+03 -0.17555954664E+02  0.10708599167E+03  0.27972319839E+03  0.12500000000E+03 0.  0.
         25    1    1    2    0    0  0.13368508460E+03  0.76678075729E+02  0.97837111138E+02  0.22124269357E+03  0.12500000000E+03 0.  0.
         25    1    1    2    0    0  0.91802047104E+02 -0.59122121065E+02  0.82843883195E+02  0.18550242595E+03  0.12500000000E+03 0.  0.
</event>
<event>
 5    0  0.5568866E-005  0.3176603E+03  0.7546771E-02  0.1076731E+00
         21   -1    0    0  502  501  0.00000000000E+00  0.00000000000E+00  0.15247483998E+03  0.15247483998E+03  0.00000000000E+00 0.  1.
         21   -1    0    0  501  502 -0.00000000000E+00 -0.00000000000E+00 -0.66180124118E+03  0.66180124118E+03  0.00000000000E+00 0.  1.
         25    1    1    2    0    0  0.15036824765E+03  0.15812119053E+03 -0.20038396840E+03  0.32154572861E+03  0.12500000000E+03 0.  0.
         25    1    1    2    0    0 -0.29255856398E+02  0.21965614383E+02 -0.76562807403E+02  0.15108029927E+03  0.12500000000E+03 0.  0.
         25    1    1    2    0    0 -0.12111239125E+03 -0.18008680491E+03 -0.23237962540E+03  0.34165005329E+03  0.12500000000E+03 0.  0.
</event>
<event>
 5    0  0.5568866E-005  0.4212758E+03  0.7546771E-02  0.1036652E+00
         21   -1    0    0  502  501  0.00000000000E+00  0.00000000000E+00  0.14254966020E+03  0.14254966020E+03  0.00000000000E+00 0.  1.
         21   -1    0    0  501  502 -0.00000000000E+00 -0.00000000000E+00 -0.12449925126E+04  0.12449925126E+04  0.00000000000E+00 0.  1.
         25    1    1    2    0    0 -0.71895019585E+02 -0.16583216944E+03 -0.63398677094E+03  0.67099435764E+03  0.12500000000E+03 0.  0.
         25    1    1    2    0    0 -0.81360702701E+02  0.81508564654E+02 -0.47184778261E+03  0.50152621069E+03  0.12500000000E+03 0.  0.
         25    1    1    2    0    0  0.15325572229E+03  0.84323604790E+02  0.33917011834E+01  0.21502160444E+03  0.12500000000E+03 0.  0.
</event>
<event>
 5    0  0.5568866E-005  0.2666126E+03  0.7546771E-02  0.1103234E+00
         21   -1    0    0  502  501  0.00000000000E+00  0.00000000000E+00  0.65488507009E+03  0.65488507009E+03  0.00000000000E+00 0. -1.
         21   -1    0    0  501  502 -0.00000000000E+00 -0.00000000000E+00 -0.10854161916E+03  0.10854161916E+03  0.00000000000E+00 0. -1.
         25    1    1    2    0    0  0.31633008065E+02 -0.10667714403E+03  0.35152040473E+03  0.38932281619E+03  0.12500000000E+03 0.  0.
         25    1    1    2    0    0 -0.60471916409E+02  0.12152050965E+03  0.14867351114E+03  0.23696603101E+03  0.12500000000E+03 0.  0.
         25    1    1    2    0    0  0.28838908345E+02 -0.14843365614E+02  0.46149535058E+02  0.13713784205E+03  0.12500000000E+03 0.  0.
</event>
<event>
 5    0  0.5568866E-005  0.2505410E+03  0.7546771E-02  0.1112963E+00
         21   -1    0    0  502  501  0.00000000000E+00  0.00000000000E+00  0.10527091069E+04  0.10527091069E+04  0.00000000000E+00 0. -1.
         21   -1    0    0  501  502 -0.00000000000E+00 -0.00000000000E+00 -0.59627843298E+02  0.59627843298E+02  0.00000000000E+00 0. -1.
         25    1    1    2    0    0 -0.38772839659E+02 -0.10956216786E+02  0.25589529593E+03  0.28762957821E+03  0.12500000000E+03 0.  0.
         25    1    1    2    0    0  0.85708844251E+02 -0.42400898226E+02  0.14060044717E+03  0.21103868815E+03  0.12500000000E+03 0.  0.
         25    1    1    2    0    0 -0.46936004592E+02  0.53357115013E+02  0.59658552053E+03  0.61366868386E+03  0.12500000000E+03 0.  0.
</event>
<event>
 5    0  0.5568866E-005  0.3836476E+03  0.7546771E-02  0.1049594E+00
         21   -1    0    0  502  501  0.00000000000E+00  0.00000000000E+00  0.39888717536E+03  0.39888717536E+03  0.00000000000E+00 0.  1.
         21   -1    0    0  501  502 -0.00000000000E+00 -0.00000000000E+00 -0.36899026894E+03  0.36899026894E+03  0.00000000000E+00 0.  1.
         25    1    1    2    0    0 -0.25758061782E+02  0.78210715351E+02 -0.25073676336E+02  0.15176983557E+03  0.12500000000E+03 0.  0.
         25    1    1    2    0    0  0.96256507205E+02 -0.27302967765E+03 -0.97551937163E+02  0.33007862776E+03  0.12500000000E+03 0.  0.
         25    1    1    2    0    0 -0.70498445424E+02  0.19481896230E+03  0.15252251991E+03  0.28602898098E+03  0.12500000000E+03 0.  0.
</event>
<event>
 5    0  0.5568866E-005  0.3021263E+03  0.7546771E-02  0.1084182E+00
         21   -1    0    0  502  501  0.00000000000E+00  0.00000000000E+00  0.52159209352E+02  0.52159209352E+02  0.00000000000E+00 0. -1.
         21   -1    0    0  501  502 -0.00000000000E+00 -0.00000000000E+00 -0.17500325312E+04  0.17500325312E+04  0.00000000000E+00 0. -1.
         25    1    1    2    0    0  0.95762080211E+01 -0.10328640243E+03 -0.43557475893E+03  0.46487649468E+03  0.12500000000E+03 0.  0.
         25    1    1    2    0    0  0.97806770144E+02  0.40011611374E+01 -0.18866318973E+03  0.24657853259E+03  0.12500000000E+03 0.  0.
         25    1    1    2    0    0 -0.10738297816E+03  0.99285241296E+02 -0.10736353732E+04  0.10907367133E+04  0.12500000000E+03 0.  0.
</event>
<event>
 5    0  0.5568866E-005  0.5301895E+03  0.7546771E-02  0.1006186E+00
         21   -1    0    0  502  501  0.00000000000E+00  0.00000000000E+00  0.47867147093E+03  0.47867147093E+03  0.00000000000E+00 0. -1.
         21   -1    0    0  501  502 -0.00000000000E+00 -0.00000000000E+00 -0.58725227035E+03  0.58725227035E+03  0.00000000000E+00 0. -1.
         25    1    1    2    0    0 -0.33505585741E+03  0.36240484265E+02 -0.13553559404E+03  0.38414931672E+03  0.12500000000E+03 0.  0.
         25    1    1    2    0    0 -0.73604116465E+02 -0.36787407422E+02  0.17430438700E+03  0.22973440890E+03  0.12500000000E+03 0.  0.
         25    1    1    2    0    0  0.40865997388E+03  0.54692315695E+00 -0.14734959239E+03  0.45204001565E+03  0.12500000000E+03 0.  0.
</event>
<event>
 5    0  0.5568866E-005  0.2470584E+03  0.7546771E-02  0.1115178E+00
         21   -1    0    0  502  501  0.00000000000E+00  0.00000000000E+00  0.57705490557E+02  0.57705490557E+02  0.00000000000E+00 0.  1.
         21   -1    0    0  501  502 -0.00000000000E+00 -0.00000000000E+00 -0.10577477569E+04  0.10577477569E+04  0.00000000000E+00 0.  1.
         25    1    1    2    0    0  0.50141713489E+01  0.35862881273E+02 -0.14749716298E+03  0.19670206215E+03  0.12500000000E+03 0.  0.
         25    1    1    2    0    0  0.84400697707E+02  0.58845994942E+02 -0.40833084976E+03  0.43925551989E+03  0.12500000000E+03 0.  0.
         25    1    1    2    0    0 -0.89414869056E+02 -0.94708876215E+02 -0.44421425360E+03  0.47949566541E+03  0.12500000000E+03 0.  0.
</event>
<event>
 5    0  0.5568866E-005  0.2521962E+03  0.7546771E-02  0.1111925E+00
         21   -1    0    0  502  501  0.00000000000E+00  0.00000000000E+00  0.16613394475E+04  0.16613394475E+04  0.00000000000E+00 0. -1.
         21   -1    0    0  501  502 -0.00000000000E+00 -0.00000000000E+00 -0.38284128475E+02  0.38284128475E+02  0.00000000000E+00 0. -1.
         25    1    1    2    0    0 -0.55143349773E+02 -0.66039467661E+01  0.98320804723E+03  0.99267691888E+03  0.12500000000E+03 0.  0.
         25    1    1    2    0    0  0.96365573049E+02 -0.36653215275E+02  0.33965326147E+03  0.37632315885E+03  0.12500000000E+03 0.  0.
         25    1    1    2    0    0 -0.41222223276E+02  0.43257162041E+02  0.30019401036E+03  0.33062349828E+03  0.12500000000E+03 0.  0.
</event>
<event>
 5    0  0.5568866E-005  0.2678418E+03  0.7546771E-02  0.1102521E+00
         21   -1    0    0  502  501  0.00000000000E+00  0.00000000000E+00  0.16332911395E+04  0.16332911395E+04  0.00000000000E+00 0.  1.
         21   -1    0    0  501  502 -0.00000000000E+00 -0.00000000000E+00 -0.43923126189E+02  0.43923126189E+02  0.00000000000E+00 0.  1.
         25    1    1    2    0    0 -0.92745091681E+02  0.99300646256E+02  0.93993574278E+03  0.95789689995E+03  0.12500000000E+03 0.  0.
         25    1    1    2    0    0  0.88521043983E+01 -0.77502652260E+02  0.40979515186E+03  0.43547914685E+03  0.12500000000E+03 0.  0.
         25    1    1    2    0    0  0.83892987283E+02 -0.21797993996E+02  0.23963711872E+03  0.28383821893E+03  0.12500000000E+03 0.  0.
</event>
<event>
 5    0  0.5568866E-005  0.2621187E+03  0.7546771E-02  0.1105877E+00
         21   -1    0    0  502  501  0.00000000000E+00  0.00000000000E+00  0.34531026820E+03  0.34531026820E+03  0.00000000000E+00 0.  1.
         21   -1    0    0  501  502 -0.00000000000E+00 -0.00000000000E+00 -0.19896949694E+03  0.19896949694E+03  0.00000000000E+00 0.  1.
         25    1    1    2    0    0 -0.34111049100E+02 -0.85325686631E+02  0.62049042115E+02  0.16709015560E+03  0.12500000000E+03 0.  0.
         25    1    1    2    0    0  0.17557603420E+01  0.16255990574E+03  0.69941166279E+00  0.20507143835E+03  0.12500000000E+03 0.  0.
         25    1    1    2    0    0  0.32355288758E+02 -0.77234219110E+02  0.83592317482E+02  0.17211817119E+03  0.12500000000E+03 0.  0.
</event>
<event>
 5    0  0.5568866E-005  0.3385453E+03  0.7546771E-02  0.1067417E+00
         21   -1    0    0  502  501  0.00000000000E+00  0.00000000000E+00  0.22815624184E+03  0.22815624184E+03  0.00000000000E+00 0.  1.
         21   -1    0    0  501  502 -0.00000000000E+00 -0.00000000000E+00 -0.50234414045E+03  0.50234414045E+03  0.00000000000E+00 0.  1.
         25    1    1    2    0    0  0.48615812039E+02 -0.39074003205E+01 -0.10620242646E+03  0.17112194583E+03  0.12500000000E+03 0.  0.
         25    1    1    2    0    0  0.16119388202E+03 -0.76159376800E+02  0.48811210549E+02  0.22313953605E+03  0.12500000000E+03 0.  0.
         25    1    1    2    0    0 -0.20980969406E+03  0.80066777120E+02 -0.21679668269E+03  0.33623890041E+03  0.12500000000E+03 0.  0.
</event>
<event>
 5    0  0.5568866E-005  0.2923642E+03  0.7546771E-02  0.1089121E+00
         21   -1    0    0  502  501  0.00000000000E+00  0.00000000000E+00  0.23386068474E+03  0.23386068474E+03  0.00000000000E+00 0.  1.
         21   -1    0    0  501  502 -0.00000000000E+00 -0.00000000000E+00 -0.36550324016E+03  0.36550324016E+03  0.00000000000E+00 0.  1.
         25    1    1    2    0    0 -0.12430194216E+03 -0.62487864434E+02 -0.58322533998E+02  0.19591381778E+03  0.12500000000E+03 0.  0.
         25    1    1    2    0    0  0.90626613129E+02  0.16850048997E+03 -0.55470303802E+02  0.23517557852E+03  0.12500000000E+03 0.  0.
         25    1    1    2    0    0  0.33675329032E+02 -0.10601262553E+03 -0.17849717621E+02  0.16827452860E+03  0.12500000000E+03 0.  0.
</event>
<event>
 5    0  0.6501718E-005  0.6646141E+03  0.7546771E-02  0.9779737E-01
         21   -1    0    0  502  501  0.00000000000E+00  0.00000000000E+00  0.28072290203E+03  0.28072290203E+03  0.00000000000E+00 0.  1.
         21   -1    0    0  501  502 -0.00000000000E+00 -0.00000000000E+00 -0.15734800232E+04  0.15734800232E+04  0.00000000000E+00 0.  1.
         25    1    1    2    0    0 -0.13925933413E+03  0.41048072912E+03 -0.45478170127E+03  0.64057707337E+03  0.12500000000E+03 0.  0.
         25    1    1    2    0    0 -0.18844208546E+03 -0.37156338279E+03 -0.18762905085E+03  0.47370816726E+03  0.12500000000E+03 0.  0.
         25    1    1    2    0    0  0.32770141959E+03 -0.38917346329E+02 -0.65034636906E+03  0.73991768461E+03  0.12500000000E+03 0.  0.
</event>
<event>
 5    0  0.5568866E-005  0.2812961E+03  0.7546771E-02  0.1094983E+00
         21   -1    0    0  502  501  0.00000000000E+00  0.00000000000E+00  0.38938180657E+03  0.38938180657E+03  0.00000000000E+00 0. -1.
         21   -1    0    0  501  502 -0.00000000000E+00 -0.00000000000E+00 -0.20321315355E+03  0.20321315355E+03  0.00000000000E+00 0. -1.
         25    1    1    2    0    0 -0.85053736702E+02 -0.99210581415E+02  0.15806086871E+02  0.18152605866E+03  0.12500000000E+03 0.  0.
         25    1    1    2    0    0  0.10487020321E+03 -0.48961729874E+01  0.18478136953E+03  0.24655807948E+03  0.12500000000E+03 0.  0.
         25    1    1    2    0    0 -0.19816466503E+02  0.10410675440E+03 -0.14418803385E+02  0.16451082198E+03  0.12500000000E+03 0.  0.
</event>
<event>
 5    0  0.5568866E-005  0.3129360E+03  0.7546771E-02  0.1078947E+00
         21   -1    0    0  502  501  0.00000000000E+00  0.00000000000E+00  0.62640199651E+03  0.62640199651E+03  0.00000000000E+00 0. -1.
         21   -1    0    0  501  502 -0.00000000000E+00 -0.00000000000E+00 -0.15633557034E+03  0.15633557034E+03  0.00000000000E+00 0. -1.
         25    1    1    2    0    0  0.64188999836E+02  0.13642647710E+03 -0.25833388531E+02  0.19754689397E+03  0.12500000000E+03 0.  0.
         25    1    1    2    0    0 -0.36472227524E+01 -0.38120639060E+02  0.28980156775E+03  0.31792520194E+03  0.12500000000E+03 0.  0.
         25    1    1    2    0    0 -0.60541777084E+02 -0.98305838036E+02  0.20609824695E+03  0.26726547094E+03  0.12500000000E+03 0.  0.
</event>
<event>
 5    0  0.5568866E-005  0.3240677E+03  0.7546771E-02  0.1073792E+00
         21   -1    0    0  502  501  0.00000000000E+00  0.00000000000E+00  0.31298817891E+03  0.31298817891E+03  0.00000000000E+00 0. -1.
         21   -1    0    0  501  502 -0.00000000000E+00 -0.00000000000E+00 -0.33553937560E+03  0.33553937560E+03  0.00000000000E+00 0. -1.
         25    1    1    2    0    0 -0.87305247868E+01  0.88662430390E+02  0.13273249406E+03  0.20292896197E+03  0.12500000000E+03 0.  0.
         25    1    1    2    0    0 -0.25063686610E+02  0.98418437906E+02  0.14502057625E+02  0.16170864844E+03  0.12500000000E+03 0.  0.
         25    1    1    2    0    0  0.33794211396E+02 -0.18708086830E+03 -0.16978574837E+03  0.28388994409E+03  0.12500000000E+03 0.  0.
</event>
<event>
 5    0  0.5568866E-005  0.2214221E+03  0.7546771E-02  0.1132827E+00
         21   -1    0    0  502  501  0.00000000000E+00  0.00000000000E+00  0.56986050909E+03  0.56986050909E+03  0.00000000000E+00 0.  1.
         21   -1    0    0  501  502 -0.00000000000E+00 -0.00000000000E+00 -0.86034666817E+02  0.86034666817E+02  0.00000000000E+00 0.  1.
         25    1    1    2    0    0 -0.39113698097E+02  0.24417139404E+02  0.14026993169E+03  0.19345989717E+03  0.12500000000E+03 0.  0.
         25    1    1    2    0    0 -0.43733399863E+02 -0.69959559776E+02  0.20029136472E+03  0.25009714322E+03  0.12500000000E+03 0.  0.
         25    1    1    2    0    0  0.82847097960E+02  0.45542420372E+02  0.14326454586E+03  0.21233813552E+03  0.12500000000E+03 0.  0.
</event>
<event>
 5    0  0.5568866E-005  0.3863409E+03  0.7546771E-02  0.1048615E+00
         21   -1    0    0  502  501  0.00000000000E+00  0.00000000000E+00  0.14132188341E+04  0.14132188341E+04  0.00000000000E+00 0.  1.
         21   -1    0    0  501  502 -0.00000000000E+00 -0.00000000000E+00 -0.10561653339E+03  0.10561653339E+03  0.00000000000E+00 0.  1.
         25    1    1    2    0    0  0.57004673829E+01  0.81236666080E+02  0.37781733323E+03  0.40620540190E+03  0.12500000000E+03 0.  0.
         25    1    1    2    0    0  0.76856328242E+02 -0.27462614289E+02  0.94128904744E+03  0.95305359829E+03  0.12500000000E+03 0.  0.
         25    1    1    2    0    0 -0.82556795625E+02 -0.53774051791E+02 -0.11504079953E+02  0.15957636731E+03  0.12500000000E+03 0.  0.
</event>
<event>
 5    0  0.5568866E-005  0.2632450E+03  0.7546771E-02  0.1105209E+00
         21   -1    0    0  502  501  0.00000000000E+00  0.00000000000E+00  0.61754757563E+03  0.61754757563E+03  0.00000000000E+00 0.  1.
         21   -1    0    0  501  502 -0.00000000000E+00 -0.00000000000E+00 -0.11221470635E+03  0.11221470635E+03  0.00000000000E+00 0.  1.
         25    1    1    2    0    0 -0.12202895513E+02  0.91966345349E+01  0.14685048736E+03  0.19345168488E+03  0.12500000000E+03 0.  0.
         25    1    1    2    0    0 -0.11801177841E+03  0.45445507682E+02  0.28076357478E+03  0.33233305423E+03  0.12500000000E+03 0.  0.
         25    1    1    2    0    0  0.13021467392E+03 -0.54642142217E+02  0.77718807135E+02  0.20397754287E+03  0.12500000000E+03 0.  0.
</event>
<event>
 5    0  0.5568866E-005  0.5784529E+03  0.7546771E-02  0.9951146E-01
         21   -1    0    0  502  501  0.00000000000E+00  0.00000000000E+00  0.11205995893E+04  0.11205995893E+04  0.00000000000E+00 0. -1.
         21   -1    0    0  501  502 -0.00000000000E+00 -0.00000000000E+00 -0.29859704048E+03  0.29859704048E+03  0.00000000000E+00 0.  1.
         25    1    1    2    0    0  0.66534775001E+01  0.56119323533E+02  0.18905019758E+03  0.23357787661E+03  0.12500000000E+03 0.  0.
         25    1    1    2    0    0  0.37262478897E+03 -0.27953756722E+03  0.52997281625E+03  0.71657984259E+03  0.12500000000E+03 0.  0.
         25    1    1    2    0    0 -0.37927826647E+03  0.22341824369E+03  0.10297953501E+03  0.46903891060E+03  0.12500000000E+03 0.  0.
</event>
<event>
 5    0  0.5568866E-005  0.4217561E+03  0.7546771E-02  0.1036496E+00
         21   -1    0    0  502  501  0.00000000000E+00  0.00000000000E+00  0.39795215953E+03  0.39795215953E+03  0.00000000000E+00 0.  1.
         21   -1    0    0  501  502 -0.00000000000E+00 -0.00000000000E+00 -0.44698383215E+03  0.44698383215E+03  0.00000000000E+00 0.  1.
         25    1    1    2    0    0 -0.38062455098E+02  0.21443840941E+03 -0.14659958491E+03  0.29077314218E+03  0.12500000000E+03 0.  0.
         25    1    1    2    0    0  0.19377075191E+03 -0.18256366594E+03  0.16960547450E+03  0.33951084430E+03  0.12500000000E+03 0.  0.
         25    1    1    2    0    0 -0.15570829681E+03 -0.31874743468E+02 -0.72037562210E+02  0.21465200520E+03  0.12500000000E+03 0.  0.
</event>
<event>
 5    0  0.7042160E-005  0.3407258E+03  0.7546771E-02  0.1066487E+00
         21   -1    0    0  502  501  0.00000000000E+00  0.00000000000E+00  0.60873746959E+03  0.60873746959E+03  0.00000000000E+00 0.  1.
         21   -1    0    0  501  502 -0.00000000000E+00 -0.00000000000E+00 -0.19071291892E+03  0.19071291892E+03  0.00000000000E+00 0.  1.
         25    1    1    2    0    0 -0.61112895085E+02 -0.21094871010E+03  0.56318275896E+02  0.25890324918E+03  0.12500000000E+03 0.  0.
         25    1    1    2    0    0  0.93770510836E+02  0.20258595999E+02  0.21826726766E+03  0.26920051922E+03  0.12500000000E+03 0.  0.
         25    1    1    2    0    0 -0.32657615751E+02  0.19069011410E+03  0.14343900712E+03  0.27134662011E+03  0.12500000000E+03 0.  0.
</event>
<event>
 5    0  0.5568866E-005  0.4694749E+03  0.7546771E-02  0.1022069E+00
         21   -1    0    0  502  501  0.00000000000E+00  0.00000000000E+00  0.66270995506E+03  0.66270995506E+03  0.00000000000E+00 0. -1.
         21   -1    0    0  501  502 -0.00000000000E+00 -0.00000000000E+00 -0.33258388043E+03  0.33258388043E+03  0.00000000000E+00 0. -1.
         25    1    1    2    0    0 -0.65495173342E+02  0.25241767992E+03  0.39003735288E+03  0.48554962620E+03  0.12500000000E+03 0.  0.
         25    1    1    2    0    0  0.92977816371E+02 -0.19087729689E+03 -0.19464190298E+03  0.31398962913E+03  0.12500000000E+03 0.  0.
         25    1    1    2    0    0 -0.27482643029E+02 -0.61540383026E+02  0.13473062473E+03  0.19575458016E+03  0.12500000000E+03 0.  0.
</event>
<event>
 5    0  0.5568866E-005  0.2506885E+03  0.7546771E-02  0.1112870E+00
         21   -1    0    0  502  501  0.00000000000E+00  0.00000000000E+00  0.10169809594E+03  0.10169809594E+03  0.00000000000E+00 0.  1.
         21   -1    0    0  501  502 -0.00000000000E+00 -0.00000000000E+00 -0.61795394099E+03  0.61795394099E+03  0.00000000000E+00 0.  1.
         25    1    1    2    0    0 -0.10943741976E+03 -0.27701344298E+02 -0.33895008746E+03  0.37849184286E+03  0.12500000000E+03 0.  0.
         25    1    1    2    0    0  0.59842198958E+02 -0.35160516847E+02 -0.89947913643E+02  0.16891707400E+03  0.12500000000E+03 0.  0.
         25    1    1    2    0    0  0.49595220802E+02  0.62861861145E+02 -0.87357843946E+02  0.17224312007E+03  0.12500000000E+03 0.  0.
</event>
<event>
 5    0  0.5742403E-005  0.2803751E+03  0.7546771E-02  0.1095484E+00
         21   -1    0    0  502  501  0.00000000000E+00  0.00000000000E+00  0.30503028833E+03  0.30503028833E+03  0.00000000000E+00 0.  1.
         21   -1    0    0  501  502 -0.00000000000E+00 -0.00000000000E+00 -0.25771280545E+03  0.25771280545E+03  0.00000000000E+00 0.  1.
         25    1    1    2    0    0 -0.27839204616E+01  0.12936733682E+03  0.35682314017E+02  0.18341724451E+03  0.12500000000E+03 0.  0.
         25    1    1    2    0    0 -0.74488565203E+02  0.30754499125E+02 -0.43780768413E+02  0.15503593534E+03  0.12500000000E+03 0.  0.
         25    1    1    2    0    0  0.77272485664E+02 -0.16012183594E+03  0.55415937275E+02  0.22428991393E+03  0.12500000000E+03 0.  0.
</event>
<event>
 5    0  0.5568866E-005  0.4761357E+03  0.7546771E-02  0.1020203E+00
         21   -1    0    0  502  501  0.00000000000E+00  0.00000000000E+00  0.59339319265E+03  0.59339319265E+03  0.00000000000E+00 0. -1.
         21   -1    0    0  501  502 -0.00000000000E+00 -0.00000000000E+00 -0.38204882423E+03  0.38204882423E+03  0.00000000000E+00 0. -1.
         25    1    1    2    0    0  0.39251518320E+03  0.94861741249E+02  0.15452161267E+03  0.45007649103E+03  0.12500000000E+03 0.  0.
         25    1    1    2    0    0 -0.19765912711E+03 -0.29052669935E+01 -0.72279287054E+02  0.24479964552E+03  0.12500000000E+03 0.  0.
         25    1    1    2    0    0 -0.19485605609E+03 -0.91956474255E+02  0.12910204280E+03  0.28056588033E+03  0.12500000000E+03 0.  0.
</event>
<event>
 5    0  0.5568866E-005  0.2559565E+03  0.7546771E-02  0.1109597E+00
         21   -1    0    0  502  501  0.00000000000E+00  0.00000000000E+00  0.50474856891E+02  0.50474856891E+02  0.00000000000E+00 0. -1.
         21   -1    0    0  501  502 -0.00000000000E+00 -0.00000000000E+00 -0.12979480474E+04  0.12979480474E+04  0.00000000000E+00 0. -1.
         25    1    1    2    0    0  0.56406105731E+02  0.13321425721E+03 -0.39311258515E+03  0.43713864127E+03  0.12500000000E+03 0.  0.
         25    1    1    2    0    0 -0.27055091953E+02 -0.13550938730E+03 -0.55823337321E+03  0.58851021318E+03  0.12500000000E+03 0.  0.
         25    1    1    2    0    0 -0.29351013777E+02  0.22951300908E+01 -0.29612723212E+03  0.32277404982E+03  0.12500000000E+03 0.  0.
</event>
<event>
 5    0  0.5568866E-005  0.4104311E+03  0.7546771E-02  0.1040226E+00
         21   -1    0    0  502  501  0.00000000000E+00  0.00000000000E+00  0.18478445558E+03  0.18478445558E+03  0.00000000000E+00 0. -1.
         21   -1    0    0  501  502 -0.00000000000E+00 -0.00000000000E+00 -0.91162242789E+03  0.91162242789E+03  0.00000000000E+00 0. -1.
         25    1    1    2    0    0  0.11731620569E+03  0.30887322815E+03 -0.29621396373E+03  0.46101353071E+03  0.12500000000E+03 0.  0.
         25    1    1    2    0    0 -0.16108329399E+03 -0.19594835023E+03 -0.32907064847E+03  0.43388486404E+03  0.12500000000E+03 0.  0.
         25    1    1    2    0    0  0.43767088302E+02 -0.11292487792E+03 -0.10155336011E+03  0.20150848871E+03  0.12500000000E+03 0.  0.
</event>
<event>
 5    0  0.5568866E-005  0.3086146E+03  0.7546771E-02  0.1081012E+00
         21   -1    0    0  502  501  0.00000000000E+00  0.00000000000E+00  0.86779129870E+03  0.86779129870E+03  0.00000000000E+00 0. -1.
         21   -1    0    0  501  502 -0.00000000000E+00 -0.00000000000E+00 -0.10975331608E+03  0.10975331608E+03  0.00000000000E+00 0. -1.
         25    1    1    2    0    0  0.11101680372E+03 -0.86327777106E+02  0.42792890227E+03  0.46746696269E+03  0.12500000000E+03 0.  0.
         25    1    1    2    0    0  0.56686368802E+02  0.86482853495E+02  0.22104524595E+03  0.27418721545E+03  0.12500000000E+03 0.  0.
         25    1    1    2    0    0 -0.16770317252E+03 -0.15507638915E+00  0.10906383440E+03  0.23589043664E+03  0.12500000000E+03 0.  0.
</event>
<event>
 5    0  0.5568866E-005  0.2643556E+03  0.7546771E-02  0.1104554E+00
         21   -1    0    0  502  501  0.00000000000E+00  0.00000000000E+00  0.38360092855E+03  0.38360092855E+03  0.00000000000E+00 0. -1.
         21   -1    0    0  501  502 -0.00000000000E+00 -0.00000000000E+00 -0.18217854794E+03  0.18217854794E+03  0.00000000000E+00 0. -1.
         25    1    1    2    0    0 -0.47917941084E+02  0.54767501434E+02  0.20642760149E+03  0.25205745962E+03  0.12500000000E+03 0.  0.
         25    1    1    2    0    0  0.63300603554E+02 -0.52249457745E+02  0.72116680796E+02  0.16602044421E+03  0.12500000000E+03 0.  0.
         25    1    1    2    0    0 -0.15382662470E+02 -0.25180436889E+01 -0.77121901677E+02  0.14770157266E+03  0.12500000000E+03 0.  0.
</event>
<event>
 5    0  0.5568866E-005  0.2952312E+03  0.7546771E-02  0.1087649E+00
         21   -1    0    0  502  501  0.00000000000E+00  0.00000000000E+00  0.13699943061E+04  0.13699943061E+04  0.00000000000E+00 0.  1.
         21   -1    0    0  501  502 -0.00000000000E+00 -0.00000000000E+00 -0.63621752000E+02  0.63621752000E+02  0.00000000000E+00 0.  1.
         25    1    1    2    0    0  0.64031462645E+02 -0.20616632274E+03  0.62710382530E+03  0.67489909509E+03  0.12500000000E+03 0.  0.
         25    1    1    2    0    0 -0.33715393171E+02  0.13043352024E+03  0.30939445312E+03  0.35986047096E+03  0.12500000000E+03 0.  0.
         25    1    1    2    0    0 -0.30316069474E+02  0.75732802504E+02  0.36987427565E+03  0.39885649202E+03  0.12500000000E+03 0.  0.
</event>
<event>
 5    0  0.5568866E-005  0.3123172E+03  0.7546771E-02  0.1079240E+00
         21   -1    0    0  502  501  0.00000000000E+00  0.00000000000E+00  0.86450778779E+02  0.86450778779E+02  0.00000000000E+00 0. -1.
         21   -1    0    0  501  502 -0.00000000000E+00 -0.00000000000E+00 -0.11282959192E+04  0.11282959192E+04  0.00000000000E+00 0. -1.
         25    1    1    2    0    0 -0.19760511417E+03 -0.31950608666E+02 -0.39529600665E+03  0.46038305292E+03  0.12500000000E+03 0.  0.
         25    1    1    2    0    0  0.17286617616E+03  0.98641597879E+02 -0.47899827665E+03  0.53355152397E+03  0.12500000000E+03 0.  0.
         25    1    1    2    0    0  0.24738938016E+02 -0.66690989212E+02 -0.16755085707E+03  0.22081212105E+03  0.12500000000E+03 0.  0.
</event>
<event>
 5    0  0.5568866E-005  0.3100909E+03  0.7546771E-02  0.1080302E+00
         21   -1    0    0  502  501  0.00000000000E+00  0.00000000000E+00  0.49753757349E+03  0.49753757349E+03  0.00000000000E+00 0.  1.
         21   -1    0    0  501  502 -0.00000000000E+00 -0.00000000000E+00 -0.19326457430E+03  0.19326457430E+03  0.00000000000E+00 0.  1.
         25    1    1    2    0    0  0.10218701414E+03  0.73003799191E+02  0.21067196470E+02  0.17843925387E+03  0.12500000000E+03 0.  0.
         25    1    1    2    0    0  0.37821812917E+02  0.82972415067E+01 -0.33746583207E+02  0.13514128025E+03  0.12500000000E+03 0.  0.
         25    1    1    2    0    0 -0.14000882705E+03 -0.81301040697E+02  0.31695238593E+03  0.37722161367E+03  0.12500000000E+03 0.  0.
</event>
<event>
 5    0  0.5568866E-005  0.3015774E+03  0.7546771E-02  0.1084455E+00
         21   -1    0    0  502  501  0.00000000000E+00  0.00000000000E+00  0.25980242968E+03  0.25980242968E+03  0.00000000000E+00 0. -1.
         21   -1    0    0  501  502 -0.00000000000E+00 -0.00000000000E+00 -0.35006966582E+03  0.35006966582E+03  0.00000000000E+00 0. -1.
         25    1    1    2    0    0  0.38326371457E+02 -0.98528162116E+02  0.13592938547E+03  0.21278746982E+03  0.12500000000E+03 0.  0.
         25    1    1    2    0    0 -0.30317888870E+02  0.10624959934E+03 -0.21349587768E+03  0.27094951842E+03  0.12500000000E+03 0.  0.
         25    1    1    2    0    0 -0.80084825871E+01 -0.77214372210E+01 -0.12700743931E+02  0.12613510726E+03  0.12500000000E+03 0.  0.
</event>
<event>
 5    0  0.5568866E-005  0.2117374E+03  0.7546771E-02  0.1140197E+00
         21   -1    0    0  502  501  0.00000000000E+00  0.00000000000E+00  0.37031066408E+03  0.37031066408E+03  0.00000000000E+00 0.  1.
         21   -1    0    0  501  502 -0.00000000000E+00 -0.00000000000E+00 -0.12106791170E+03  0.12106791170E+03  0.00000000000E+00 0.  1.
         25    1    1    2    0    0  0.29556072148E+02 -0.20926984598E+02 -0.13125898406E+00  0.13014037542E+03  0.12500000000E+03 0.  0.
         25    1    1    2    0    0 -0.14619337957E+02  0.25385419802E+02  0.84293103185E+02  0.15358538936E+03  0.12500000000E+03 0.  0.
         25    1    1    2    0    0 -0.14936734191E+02 -0.44584352040E+01  0.16508090818E+03  0.20765281100E+03  0.12500000000E+03 0.  0.
</event>
<event>
 5    0  0.5568866E-005  0.4985055E+03  0.7546771E-02  0.1014170E+00
         21   -1    0    0  502  501  0.00000000000E+00  0.00000000000E+00  0.23524928643E+03  0.23524928643E+03  0.00000000000E+00 0. -1.
         21   -1    0    0  501  502 -0.00000000000E+00 -0.00000000000E+00 -0.10563591211E+04  0.10563591211E+04  0.00000000000E+00 0. -1.
         25    1    1    2    0    0 -0.85421174294E+02 -0.13138550482E+02 -0.26907388560E+03  0.30902290278E+03  0.12500000000E+03 0.  0.
         25    1    1    2    0    0  0.19803167755E+03 -0.16575784662E+03 -0.65592863433E+03  0.71593266609E+03  0.12500000000E+03 0.  0.
         25    1    1    2    0    0 -0.11261050326E+03  0.17889639710E+03  0.10389268524E+03  0.26665283870E+03  0.12500000000E+03 0.  0.
</event>
<event>
 5    0  0.5568866E-005  0.2582303E+03  0.7546771E-02  0.1108211E+00
         21   -1    0    0  502  501  0.00000000000E+00  0.00000000000E+00  0.38503942905E+03  0.38503942905E+03  0.00000000000E+00 0. -1.
         21   -1    0    0  501  502 -0.00000000000E+00 -0.00000000000E+00 -0.17318462754E+03  0.17318462754E+03  0.00000000000E+00 0. -1.
         25    1    1    2    0    0  0.52483344513E+02  0.31123891852E+02 -0.14442547753E+02  0.13984557655E+03  0.12500000000E+03 0.  0.
         25    1    1    2    0    0 -0.46809998466E+02 -0.12334394590E+03  0.18094134600E+03  0.25645599162E+03  0.12500000000E+03 0.  0.
         25    1    1    2    0    0 -0.56733460476E+01  0.92220054046E+02  0.45356003249E+02  0.16192248841E+03  0.12500000000E+03 0.  0.
</event>
<event>
 5    0  0.5568866E-005  0.5130852E+03  0.7546771E-02  0.1010419E+00
         21   -1    0    0  502  501  0.00000000000E+00  0.00000000000E+00  0.13589953976E+03  0.13589953976E+03  0.00000000000E+00 0. -1.
         21   -1    0    0  501  502 -0.00000000000E+00 -0.00000000000E+00 -0.19371399099E+04  0.19371399099E+04  0.00000000000E+00 0. -1.
         25    1    1    2    0    0 -0.34270807912E+03  0.19800590081E+03 -0.12326460200E+04  0.13006522883E+04  0.12500000000E+03 0.  0.
         25    1    1    2    0    0  0.25937172906E+03 -0.13635676911E+03 -0.21804458350E+03  0.38605090689E+03  0.12500000000E+03 0.  0.
         25    1    1    2    0    0  0.83336350059E+02 -0.61649131703E+02 -0.35054976658E+03  0.38633625449E+03  0.12500000000E+03 0.  0.
</event>
<event>
 5    0  0.5568866E-005  0.3035379E+03  0.7546771E-02  0.1083485E+00
         21   -1    0    0  502  501  0.00000000000E+00  0.00000000000E+00  0.43232502820E+03  0.43232502820E+03  0.00000000000E+00 0. -1.
         21   -1    0    0  501  502 -0.00000000000E+00 -0.00000000000E+00 -0.21311573180E+03  0.21311573180E+03  0.00000000000E+00 0. -1.
         25    1    1    2    0    0 -0.71266083136E+02  0.38753258200E+02 -0.70586740158E+02  0.16488831830E+03  0.12500000000E+03 0.  0.
         25    1    1    2    0    0 -0.56766820442E+02 -0.21551017989E+02  0.26481826959E+03  0.29906627056E+03  0.12500000000E+03 0.  0.
         25    1    1    2    0    0  0.12803290358E+03 -0.17202240211E+02  0.24977766968E+02  0.18148617113E+03  0.12500000000E+03 0.  0.
</event>
<event>
 5    0  0.5568866E-005  0.3260546E+03  0.7546771E-02  0.1072896E+00
         21   -1    0    0  502  501  0.00000000000E+00  0.00000000000E+00  0.15774736792E+03  0.15774736792E+03  0.00000000000E+00 0.  1.
         21   -1    0    0  501  502 -0.00000000000E+00 -0.00000000000E+00 -0.67393596880E+03  0.67393596880E+03  0.00000000000E+00 0.  1.
         25    1    1    2    0    0 -0.51687013610E+02  0.22609471089E+01 -0.81021802314E+02  0.15769017632E+03  0.12500000000E+03 0.  0.
         25    1    1    2    0    0  0.17723453465E+03  0.14813914318E+03 -0.13783373113E+03  0.29661494138E+03  0.12500000000E+03 0.  0.
         25    1    1    2    0    0 -0.12554752104E+03 -0.15040009029E+03 -0.29733306744E+03  0.37737821902E+03  0.12500000000E+03 0.  0.
</event>
<event>
 5    0  0.5568866E-005  0.2232519E+03  0.7546771E-02  0.1131482E+00
         21   -1    0    0  502  501  0.00000000000E+00  0.00000000000E+00  0.25798681519E+04  0.25798681519E+04  0.00000000000E+00 0.  1.
         21   -1    0    0  501  502 -0.00000000000E+00 -0.00000000000E+00 -0.19319356677E+02  0.19319356677E+02  0.00000000000E+00 0.  1.
         25    1    1    2    0    0 -0.16771574261E+02  0.39189578880E+02  0.11005789511E+04  0.11084746891E+04  0.12500000000E+03 0.  0.
         25    1    1    2    0    0 -0.55532574020E+02 -0.96624179022E+01  0.46206843364E+03  0.48198492348E+03  0.12500000000E+03 0.  0.
         25    1    1    2    0    0  0.72304148282E+02 -0.29527160977E+02  0.99790141054E+03  0.10087278960E+04  0.12500000000E+03 0.  0.
</event>
<event>
 5    0  0.5568866E-005  0.4587447E+03  0.7546771E-02  0.1025146E+00
         21   -1    0    0  502  501  0.00000000000E+00  0.00000000000E+00  0.13238224497E+04  0.13238224497E+04  0.00000000000E+00 0.  1.
         21   -1    0    0  501  502 -0.00000000000E+00 -0.00000000000E+00 -0.15896896859E+03  0.15896896859E+03  0.00000000000E+00 0.  1.
         25    1    1    2    0    0  0.22998455754E+03  0.12725739112E+03  0.52894820054E+02  0.29582123367E+03  0.12500000000E+03 0.  0.
         25    1    1    2    0    0 -0.17607695823E+03 -0.82385900942E+02  0.41117325193E+03  0.47167676961E+03  0.12500000000E+03 0.  0.
         25    1    1    2    0    0 -0.53907599311E+02 -0.44871490178E+02  0.70078540911E+03  0.71529341498E+03  0.12500000000E+03 0.  0.
</event>
<event>
 5    0  0.6673651E-005  0.4361572E+03  0.7546771E-02  0.1031932E+00
         21   -1    0    0  502  501  0.00000000000E+00  0.00000000000E+00  0.10020806836E+04  0.10020806836E+04  0.00000000000E+00 0. -1.
         21   -1    0    0  501  502 -0.00000000000E+00 -0.00000000000E+00 -0.18983807347E+03  0.18983807347E+03  0.00000000000E+00 0. -1.
         25    1    1    2    0    0 -0.16512406494E+03  0.19173552271E+03  0.52578049948E+03  0.59673997782E+03  0.12500000000E+03 0.  0.
         25    1    1    2    0    0  0.43060025955E+02 -0.11224095533E+02 -0.76954994346E+02  0.15338584456E+03  0.12500000000E+03 0.  0.
         25    1    1    2    0    0  0.12206403898E+03 -0.18051142717E+03  0.36341710500E+03  0.44179293471E+03  0.12500000000E+03 0.  0.
</event>
<event>
 5    0  0.5568866E-005  0.2747492E+03  0.7546771E-02  0.1098592E+00
         21   -1    0    0  502  501  0.00000000000E+00  0.00000000000E+00  0.63308899095E+03  0.63308899095E+03  0.00000000000E+00 0.  1.
         21   -1    0    0  501  502 -0.00000000000E+00 -0.00000000000E+00 -0.11923622102E+03  0.11923622102E+03  0.00000000000E+00 0.  1.
         25    1    1    2    0    0  0.15367622696E+02  0.84853390323E+01  0.73151170587E+02  0.14589125595E+03  0.12500000000E+03 0.  0.
         25    1    1    2    0    0 -0.59248946381E+02  0.14190118563E+03  0.13104745492E+03  0.23758118522E+03  0.12500000000E+03 0.  0.
         25    1    1    2    0    0  0.43881323686E+02 -0.15038652466E+03  0.30965414442E+03  0.36885277080E+03  0.12500000000E+03 0.  0.
</event>
<event>
 5    0  0.5568866E-005  0.2157790E+03  0.7546771E-02  0.1137070E+00
         21   -1    0    0  502  501  0.00000000000E+00  0.00000000000E+00  0.50888238102E+03  0.50888238102E+03  0.00000000000E+00 0.  1.
         21   -1    0    0  501  502 -0.00000000000E+00 -0.00000000000E+00 -0.91495755101E+02  0.91495755101E+02  0.00000000000E+00 0.  1.
         25    1    1    2    0    0 -0.62467310378E+02 -0.25131577561E+02  0.17603212559E+03  0.22615496965E+03  0.12500000000E+03 0.  0.
         25    1    1    2    0    0  0.24162111863E+02  0.72222491306E+02  0.13648775900E+03  0.20013446544E+03  0.12500000000E+03 0.  0.
         25    1    1    2    0    0  0.38305198515E+02 -0.47090913745E+02  0.10486674133E+03  0.17408870103E+03  0.12500000000E+03 0.  0.
</event>
<event>
 5    0  0.5568866E-005  0.2377967E+03  0.7546771E-02  0.1121269E+00
         21   -1    0    0  502  501  0.00000000000E+00  0.00000000000E+00  0.32246697295E+03  0.32246697295E+03  0.00000000000E+00 0. -1.
         21   -1    0    0  501  502 -0.00000000000E+00 -0.00000000000E+00 -0.17535831929E+03  0.17535831929E+03  0.00000000000E+00 0. -1.
         25    1    1    2    0    0 -0.11273592274E+03 -0.57345460846E+02  0.95903081766E+02  0.20204032085E+03  0.12500000000E+03 0.  0.
         25    1    1    2    0    0  0.87028956587E+02  0.54933438385E+02  0.12457674199E+02  0.16239432128E+03  0.12500000000E+03 0.  0.
         25    1    1    2    0    0  0.25706966153E+02  0.24120224614E+01  0.38747897697E+02  0.13339065011E+03  0.12500000000E+03 0.  0.
</event>
<event>
 5    0  0.5568866E-005  0.2249177E+03  0.7546771E-02  0.1130269E+00
         21   -1    0    0  502  501  0.00000000000E+00  0.00000000000E+00  0.65923479132E+02  0.65923479132E+02  0.00000000000E+00 0. -1.
         21   -1    0    0  501  502 -0.00000000000E+00 -0.00000000000E+00 -0.76737385052E+03  0.76737385052E+03  0.00000000000E+00 0. -1.
         25    1    1    2    0    0 -0.13407699917E+02  0.14416592266E+02 -0.11514294389E+03  0.17108624164E+03  0.12500000000E+03 0.  0.
         25    1    1    2    0    0  0.32260899631E+02  0.31111709636E+02 -0.45636853618E+03  0.47529563951E+03  0.12500000000E+03 0.  0.
         25    1    1    2    0    0 -0.18853199715E+02 -0.45528301902E+02 -0.12993889132E+03  0.18691544851E+03  0.12500000000E+03 0.  0.
</event>
<event>
 5    0  0.5568866E-005  0.2956464E+03  0.7546771E-02  0.1087437E+00
         21   -1    0    0  502  501  0.00000000000E+00  0.00000000000E+00  0.12268324573E+03  0.12268324573E+03  0.00000000000E+00 0. -1.
         21   -1    0    0  501  502 -0.00000000000E+00 -0.00000000000E+00 -0.71245907166E+03  0.71245907166E+03  0.00000000000E+00 0. -1.
         25    1    1    2    0    0 -0.19678766397E+02 -0.92282291817E+02 -0.12020510570E+03  0.19742730983E+03  0.12500000000E+03 0.  0.
         25    1    1    2    0    0 -0.13216143173E+03 -0.67877084531E+01 -0.10049914786E+03  0.20793699945E+03  0.12500000000E+03 0.  0.
         25    1    1    2    0    0  0.15184019812E+03  0.99070000270E+02 -0.36907157237E+03  0.42977800810E+03  0.12500000000E+03 0.  0.
</event>
<event>
 5    0  0.5568866E-005  0.3143407E+03  0.7546771E-02  0.1078284E+00
         21   -1    0    0  502  501  0.00000000000E+00  0.00000000000E+00  0.61818174926E+03  0.61818174926E+03  0.00000000000E+00 0. -1.
         21   -1    0    0  501  502 -0.00000000000E+00 -0.00000000000E+00 -0.15983983420E+03  0.15983983420E+03  0.00000000000E+00 0. -1.
         25    1    1    2    0    0  0.10121175398E+02  0.26539218742E+01 -0.25707846361E+02  0.12804442533E+03  0.12500000000E+03 0.  0.
         25    1    1    2    0    0  0.82093343582E+02  0.10479294135E+03  0.40681921380E+03  0.44592348036E+03  0.12500000000E+03 0.  0.
         25    1    1    2    0    0 -0.92214518980E+02 -0.10744686323E+03  0.77230547611E+02  0.20405367777E+03  0.12500000000E+03 0.  0.
</event>
<event>
 5    0  0.5568866E-005  0.3172014E+03  0.7546771E-02  0.1076945E+00
         21   -1    0    0  502  501  0.00000000000E+00  0.00000000000E+00  0.87330913423E+02  0.87330913423E+02  0.00000000000E+00 0.  1.
         21   -1    0    0  501  502 -0.00000000000E+00 -0.00000000000E+00 -0.11521315628E+04  0.11521315628E+04  0.00000000000E+00 0.  1.
         25    1    1    2    0    0  0.21101748725E+03 -0.35363370697E+02 -0.31180790207E+03  0.39828145287E+03  0.12500000000E+03 0.  0.
         25    1    1    2    0    0 -0.17428708486E+03  0.77634910844E+02 -0.37253693205E+03  0.43682025259E+03  0.12500000000E+03 0.  0.
         25    1    1    2    0    0 -0.36730402382E+02 -0.42271540147E+02 -0.38045581529E+03  0.40436077079E+03  0.12500000000E+03 0.  0.
</event>
<event>
 5    0  0.5568866E-005  0.2634190E+03  0.7546771E-02  0.1105106E+00
         21   -1    0    0  502  501  0.00000000000E+00  0.00000000000E+00  0.28144028115E+03  0.28144028115E+03  0.00000000000E+00 0. -1.
         21   -1    0    0  501  502 -0.00000000000E+00 -0.00000000000E+00 -0.24655171622E+03  0.24655171622E+03  0.00000000000E+00 0. -1.
         25    1    1    2    0    0  0.17590158514E+02 -0.21023538216E+02  0.12900201859E+03  0.18170834773E+03  0.12500000000E+03 0.  0.
         25    1    1    2    0    0 -0.11575626855E+03  0.31627718782E+02 -0.37980590982E+02  0.17739039318E+03  0.12500000000E+03 0.  0.
         25    1    1    2    0    0  0.98166110032E+02 -0.10604180567E+02 -0.56132862680E+02  0.16889325646E+03  0.12500000000E+03 0.  0.
</event>
