<event>
 4    0  0.2202290E-002  0.2143469E+03  0.7546771E-02  0.1138169E+00
         21   -1    0    0  502  501  0.00000000000E+00  0.00000000000E+00  0.11578321287E+04  0.11578321287E+04  0.00000000000E+00 0.  1.
         21   -1    0    0  501  502 -0.00000000000E+00 -0.00000000000E+00 -0.39681555113E+02  0.39681555113E+02  0.00000000000E+00 0.  1.
         25    1    1    2    0    0 -0.13564110897E+03  0.32320727423E+02  0.26775097824E+03  0.32673953879E+03  0.12500000000E+03 0.  0.
         25    1    1    2    0    0  0.13564110897E+03 -0.32320727423E+02  0.85039959537E+03  0.87077414504E+03  0.12500000000E+03 0.  0.
</event>
<event>
 4    0  0.2202290E-002  0.1732715E+03  0.7546771E-02  0.1174478E+00
         21   -1    0    0  502  501  0.00000000000E+00  0.00000000000E+00  0.88296017847E+02  0.88296017847E+02  0.00000000000E+00 0. -1.
         21   -1    0    0  501  502 -0.00000000000E+00 -0.00000000000E+00 -0.34002697880E+03  0.34002697880E+03  0.00000000000E+00 0. -1.
         25    1    1    2    0    0  0.56536533955E+02 -0.10468238569E+03 -0.14514239747E+03  0.22549079159E+03  0.12500000000E+03 0.  0.
         25    1    1    2    0    0 -0.56536533955E+02  0.10468238569E+03 -0.10658856348E+03  0.20283220506E+03  0.12500000000E+03 0.  0.
</event>
<event>
 4    0  0.2202290E-002  0.2187275E+03  0.7546771E-02  0.1134835E+00
         21   -1    0    0  502  501  0.00000000000E+00  0.00000000000E+00  0.14681398049E+03  0.14681398049E+03  0.00000000000E+00 0. -1.
         21   -1    0    0  501  502 -0.00000000000E+00 -0.00000000000E+00 -0.32586616955E+03  0.32586616955E+03  0.00000000000E+00 0. -1.
         25    1    1    2    0    0  0.16851440710E+03 -0.60512921283E+02 -0.75953141848E+02  0.23119861332E+03  0.12500000000E+03 0.  0.
         25    1    1    2    0    0 -0.16851440710E+03  0.60512921283E+02 -0.10309904722E+03  0.24148153673E+03  0.12500000000E+03 0.  0.
</event>
<event>
 4    0  0.2202290E-002  0.2291323E+03  0.7546771E-02  0.1127252E+00
         21   -1    0    0  502  501  0.00000000000E+00  0.00000000000E+00  0.15964315103E+03  0.15964315103E+03  0.00000000000E+00 0. -1.
         21   -1    0    0  501  502 -0.00000000000E+00 -0.00000000000E+00 -0.32886842792E+03  0.32886842792E+03  0.00000000000E+00 0. -1.
         25    1    1    2    0    0  0.12324532444E+03 -0.95064457700E+02 -0.20450809004E+03  0.28578876816E+03  0.12500000000E+03 0.  0.
         25    1    1    2    0    0 -0.12324532444E+03  0.95064457700E+02  0.35282813148E+02  0.20272281080E+03  0.12500000000E+03 0.  0.
</event>
<event>
 4    0  0.2202290E-002  0.1889078E+03  0.7546771E-02  0.1159450E+00
         21   -1    0    0  502  501  0.00000000000E+00  0.00000000000E+00  0.52825650422E+03  0.52825650422E+03  0.00000000000E+00 0. -1.
         21   -1    0    0  501  502 -0.00000000000E+00 -0.00000000000E+00 -0.67554590530E+02  0.67554590530E+02  0.00000000000E+00 0. -1.
         25    1    1    2    0    0 -0.82209676631E+02  0.42410655318E+01  0.48588088824E+02  0.15736015996E+03  0.12500000000E+03 0.  0.
         25    1    1    2    0    0  0.82209676631E+02 -0.42410655318E+01  0.41211382487E+03  0.43845093479E+03  0.12500000000E+03 0.  0.
</event>
<event>
 4    0  0.2202290E-002  0.2712343E+03  0.7546771E-02  0.1100575E+00
         21   -1    0    0  502  501  0.00000000000E+00  0.00000000000E+00  0.13174018639E+03  0.13174018639E+03  0.00000000000E+00 0.  1.
         21   -1    0    0  501  502 -0.00000000000E+00 -0.00000000000E+00 -0.55843274991E+03  0.55843274991E+03  0.00000000000E+00 0.  1.
         25    1    1    2    0    0  0.85210972685E+02  0.53088654134E+02  0.65000737676E+02  0.17300118775E+03  0.12500000000E+03 0.  0.
         25    1    1    2    0    0 -0.85210972685E+02 -0.53088654134E+02 -0.49169330119E+03  0.51717174855E+03  0.12500000000E+03 0.  0.
</event>
<event>
 4    0  0.2202290E-002  0.2849067E+03  0.7546771E-02  0.1093039E+00
         21   -1    0    0  502  501  0.00000000000E+00  0.00000000000E+00  0.99045147254E+03  0.99045147254E+03  0.00000000000E+00 0.  1.
         21   -1    0    0  501  502 -0.00000000000E+00 -0.00000000000E+00 -0.81954398153E+02  0.81954398153E+02  0.00000000000E+00 0.  1.
         25    1    1    2    0    0 -0.23193030309E+02  0.13553008625E+03  0.86069954779E+03  0.88053110820E+03  0.12500000000E+03 0.  0.
         25    1    1    2    0    0  0.23193030309E+02 -0.13553008625E+03  0.47797526596E+02  0.19187476250E+03  0.12500000000E+03 0.  0.
</event>
<event>
 4    0  0.2202290E-002  0.2389583E+03  0.7546771E-02  0.1120489E+00
         21   -1    0    0  502  501  0.00000000000E+00  0.00000000000E+00  0.93460162059E+03  0.93460162059E+03  0.00000000000E+00 0. -1.
         21   -1    0    0  501  502 -0.00000000000E+00 -0.00000000000E+00 -0.61096696157E+02  0.61096696157E+02  0.00000000000E+00 0. -1.
         25    1    1    2    0    0  0.45615214810E+02 -0.44271129518E+02  0.83985620752E+03  0.85148348783E+03  0.12500000000E+03 0.  0.
         25    1    1    2    0    0 -0.45615214810E+02  0.44271129518E+02  0.33648716915E+02  0.14421482892E+03  0.12500000000E+03 0.  0.
</event>
<event>
 4    0  0.2202290E-002  0.2055536E+03  0.7546771E-02  0.1145136E+00
         21   -1    0    0  502  501  0.00000000000E+00  0.00000000000E+00  0.98115035115E+02  0.98115035115E+02  0.00000000000E+00 0.  1.
         21   -1    0    0  501  502 -0.00000000000E+00 -0.00000000000E+00 -0.43064035490E+03  0.43064035490E+03  0.00000000000E+00 0.  1.
         25    1    1    2    0    0  0.14496459190E+03  0.72465874870E+02 -0.14181663925E+03  0.24900400618E+03  0.12500000000E+03 0.  0.
         25    1    1    2    0    0 -0.14496459190E+03 -0.72465874870E+02 -0.19070868053E+03  0.27975138383E+03  0.12500000000E+03 0.  0.
</event>
<event>
 4    0  0.2202290E-002  0.2135575E+03  0.7546771E-02  0.1138779E+00
         21   -1    0    0  502  501  0.00000000000E+00  0.00000000000E+00  0.56065018106E+02  0.56065018106E+02  0.00000000000E+00 0.  1.
         21   -1    0    0  501  502 -0.00000000000E+00 -0.00000000000E+00 -0.81346286772E+03  0.81346286772E+03  0.00000000000E+00 0.  1.
         25    1    1    2    0    0  0.76660934351E+02  0.15298574454E+03 -0.32482575609E+03  0.38783799286E+03  0.12500000000E+03 0.  0.
         25    1    1    2    0    0 -0.76660934351E+02 -0.15298574454E+03 -0.43257209352E+03  0.48168989296E+03  0.12500000000E+03 0.  0.
</event>
<event>
 4    0  0.2202290E-002  0.2132758E+03  0.7546771E-02  0.1138998E+00
         21   -1    0    0  502  501  0.00000000000E+00  0.00000000000E+00  0.15338488512E+03  0.15338488512E+03  0.00000000000E+00 0. -1.
         21   -1    0    0  501  502 -0.00000000000E+00 -0.00000000000E+00 -0.29655192631E+03  0.29655192631E+03  0.00000000000E+00 0. -1.
         25    1    1    2    0    0  0.78027578109E+02  0.14724566548E+03 -0.11982938715E+03  0.24031993461E+03  0.12500000000E+03 0.  0.
         25    1    1    2    0    0 -0.78027578109E+02 -0.14724566548E+03 -0.23337654039E+02  0.20961687681E+03  0.12500000000E+03 0.  0.
</event>
<event>
 4    0  0.2202290E-002  0.2104178E+03  0.7546771E-02  0.1141236E+00
         21   -1    0    0  502  501  0.00000000000E+00  0.00000000000E+00  0.21049808295E+03  0.21049808295E+03  0.00000000000E+00 0. -1.
         21   -1    0    0  501  502 -0.00000000000E+00 -0.00000000000E+00 -0.21033749352E+03  0.21033749352E+03  0.00000000000E+00 0. -1.
         25    1    1    2    0    0 -0.24061481620E+02  0.31176199075E+02  0.16470025954E+03  0.21048060666E+03  0.12500000000E+03 0.  0.
         25    1    1    2    0    0  0.24061481620E+02 -0.31176199075E+02 -0.16453967011E+03  0.21035496982E+03  0.12500000000E+03 0.  0.
</event>
<event>
 4    0  0.2202290E-002  0.1799045E+03  0.7546771E-02  0.1167896E+00
         21   -1    0    0  502  501  0.00000000000E+00  0.00000000000E+00  0.95057323487E+03  0.95057323487E+03  0.00000000000E+00 0. -1.
         21   -1    0    0  501  502 -0.00000000000E+00 -0.00000000000E+00 -0.34048532789E+02  0.34048532789E+02  0.00000000000E+00 0. -1.
         25    1    1    2    0    0  0.17634997224E+02  0.14880539780E+02  0.80665167942E+03  0.81660538542E+03  0.12500000000E+03 0.  0.
         25    1    1    2    0    0 -0.17634997224E+02 -0.14880539780E+02  0.10987302266E+03  0.16801638224E+03  0.12500000000E+03 0.  0.
</event>
<event>
 4    0  0.2202290E-002  0.2711949E+03  0.7546771E-02  0.1100598E+00
         21   -1    0    0  502  501  0.00000000000E+00  0.00000000000E+00  0.10767128466E+04  0.10767128466E+04  0.00000000000E+00 0. -1.
         21   -1    0    0  501  502 -0.00000000000E+00 -0.00000000000E+00 -0.68306682133E+02  0.68306682133E+02  0.00000000000E+00 0. -1.
         25    1    1    2    0    0 -0.18883523774E+03  0.14846411888E+03  0.53561047265E+03  0.60016990929E+03  0.12500000000E+03 0.  0.
         25    1    1    2    0    0  0.18883523774E+03 -0.14846411888E+03  0.47279569181E+03  0.54484961944E+03  0.12500000000E+03 0.  0.
</event>
<event>
 4    0  0.2202290E-002  0.1960132E+03  0.7546771E-02  0.1153147E+00
         21   -1    0    0  502  501  0.00000000000E+00  0.00000000000E+00  0.42983109219E+02  0.42983109219E+02  0.00000000000E+00 0. -1.
         21   -1    0    0  501  502 -0.00000000000E+00 -0.00000000000E+00 -0.89386660843E+03  0.89386660843E+03  0.00000000000E+00 0. -1.
         25    1    1    2    0    0 -0.81360865130E+02  0.10444663075E+03 -0.59888443468E+03  0.62595227865E+03  0.12500000000E+03 0.  0.
         25    1    1    2    0    0  0.81360865130E+02 -0.10444663075E+03 -0.25199906453E+03  0.31089743900E+03  0.12500000000E+03 0.  0.
</event>
<event>
 4    0  0.2202290E-002  0.1480179E+03  0.7546771E-02  0.1202930E+00
         21   -1    0    0  502  501  0.00000000000E+00  0.00000000000E+00  0.37298713391E+02  0.37298713391E+02  0.00000000000E+00 0. -1.
         21   -1    0    0  501  502 -0.00000000000E+00 -0.00000000000E+00 -0.58740099527E+03  0.58740099527E+03  0.00000000000E+00 0. -1.
         25    1    1    2    0    0 -0.21786864358E+02  0.14996678106E+02 -0.11735238324E+03  0.17348241889E+03  0.12500000000E+03 0.  0.
         25    1    1    2    0    0  0.21786864358E+02 -0.14996678106E+02 -0.43274989864E+03  0.45121728977E+03  0.12500000000E+03 0.  0.
</event>
<event>
 4    0  0.2202290E-002  0.1898038E+03  0.7546771E-02  0.1158638E+00
         21   -1    0    0  502  501  0.00000000000E+00  0.00000000000E+00  0.63379713788E+02  0.63379713788E+02  0.00000000000E+00 0.  1.
         21   -1    0    0  501  502 -0.00000000000E+00 -0.00000000000E+00 -0.56840688184E+03  0.56840688184E+03  0.00000000000E+00 0.  1.
         25    1    1    2    0    0  0.19549621369E+02 -0.13216234983E+03 -0.16844685929E+03  0.24869342334E+03  0.12500000000E+03 0.  0.
         25    1    1    2    0    0 -0.19549621369E+02  0.13216234983E+03 -0.33658030877E+03  0.38309317229E+03  0.12500000000E+03 0.  0.
</event>
<event>
 4    0  0.2202290E-002  0.2091933E+03  0.7546771E-02  0.1142206E+00
         21   -1    0    0  502  501  0.00000000000E+00  0.00000000000E+00  0.10488484414E+03  0.10488484414E+03  0.00000000000E+00 0.  1.
         21   -1    0    0  501  502 -0.00000000000E+00 -0.00000000000E+00 -0.41723703370E+03  0.41723703370E+03  0.00000000000E+00 0.  1.
         25    1    1    2    0    0  0.10821479614E+03  0.12551738898E+03 -0.12383095749E+03  0.24171090806E+03  0.12500000000E+03 0.  0.
         25    1    1    2    0    0 -0.10821479614E+03 -0.12551738898E+03 -0.18852123207E+03  0.28041096979E+03  0.12500000000E+03 0.  0.
</event>
<event>
 4    0  0.2202290E-002  0.2503014E+03  0.7546771E-02  0.1113114E+00
         21   -1    0    0  502  501  0.00000000000E+00  0.00000000000E+00  0.10774583628E+03  0.10774583628E+03  0.00000000000E+00 0. -1.
         21   -1    0    0  501  502 -0.00000000000E+00 -0.00000000000E+00 -0.58146836751E+03  0.58146836751E+03  0.00000000000E+00 0. -1.
         25    1    1    2    0    0  0.78734092183E+02  0.94707143087E+02  0.88728074035E+01  0.17570494283E+03  0.12500000000E+03 0.  0.
         25    1    1    2    0    0 -0.78734092183E+02 -0.94707143087E+02 -0.48259533863E+03  0.51350926096E+03  0.12500000000E+03 0.  0.
</event>
<event>
 4    0  0.2202290E-002  0.3415153E+03  0.7546771E-02  0.1066152E+00
         21   -1    0    0  502  501  0.00000000000E+00  0.00000000000E+00  0.55348604296E+03  0.55348604296E+03  0.00000000000E+00 0.  1.
         21   -1    0    0  501  502 -0.00000000000E+00 -0.00000000000E+00 -0.21072382375E+03  0.21072382375E+03  0.00000000000E+00 0.  1.
         25    1    1    2    0    0 -0.28179413247E+03  0.14341398171E+03  0.13543492844E+03  0.36598240816E+03  0.12500000000E+03 0.  0.
         25    1    1    2    0    0  0.28179413247E+03 -0.14341398171E+03  0.20732729077E+03  0.39822745855E+03  0.12500000000E+03 0.  0.
</event>
<event>
 4    0  0.2202290E-002  0.2747931E+03  0.7546771E-02  0.1098567E+00
         21   -1    0    0  502  501  0.00000000000E+00  0.00000000000E+00  0.84285081090E+03  0.84285081090E+03  0.00000000000E+00 0. -1.
         21   -1    0    0  501  502 -0.00000000000E+00 -0.00000000000E+00 -0.89590315391E+02  0.89590315391E+02  0.00000000000E+00 0. -1.
         25    1    1    2    0    0  0.12078498502E+03 -0.14738684212E+03  0.11613149896E+03  0.25578002050E+03  0.12500000000E+03 0.  0.
         25    1    1    2    0    0 -0.12078498502E+03  0.14738684212E+03  0.63712899655E+03  0.67666110579E+03  0.12500000000E+03 0.  0.
</event>
<event>
 4    0  0.2202290E-002  0.1814292E+03  0.7546771E-02  0.1166427E+00
         21   -1    0    0  502  501  0.00000000000E+00  0.00000000000E+00  0.23487943370E+03  0.23487943370E+03  0.00000000000E+00 0. -1.
         21   -1    0    0  501  502 -0.00000000000E+00 -0.00000000000E+00 -0.14014235839E+03  0.14014235839E+03  0.00000000000E+00 0. -1.
         25    1    1    2    0    0 -0.98120706241E+02  0.17239128518E+02 -0.41338017293E+02  0.16510206607E+03  0.12500000000E+03 0.  0.
         25    1    1    2    0    0  0.98120706241E+02 -0.17239128518E+02  0.13607509261E+03  0.20991972603E+03  0.12500000000E+03 0.  0.
</event>
<event>
 4    0  0.2202290E-002  0.2461680E+03  0.7546771E-02  0.1115751E+00
         21   -1    0    0  502  501  0.00000000000E+00  0.00000000000E+00  0.16774843529E+03  0.16774843529E+03  0.00000000000E+00 0. -1.
         21   -1    0    0  501  502 -0.00000000000E+00 -0.00000000000E+00 -0.36124751255E+03  0.36124751255E+03  0.00000000000E+00 0. -1.
         25    1    1    2    0    0  0.15362827039E+03 -0.14612655731E+03 -0.10144393358E+03  0.26621511579E+03  0.12500000000E+03 0.  0.
         25    1    1    2    0    0 -0.15362827039E+03  0.14612655731E+03 -0.92055143676E+02  0.26278083205E+03  0.12500000000E+03 0.  0.
</event>
<event>
 4    0  0.2202290E-002  0.2921739E+03  0.7546771E-02  0.1089220E+00
         21   -1    0    0  502  501  0.00000000000E+00  0.00000000000E+00  0.87501832560E+02  0.87501832560E+02  0.00000000000E+00 0. -1.
         21   -1    0    0  501  502 -0.00000000000E+00 -0.00000000000E+00 -0.97558637807E+03  0.97558637807E+03  0.00000000000E+00 0. -1.
         25    1    1    2    0    0 -0.86774705445E+02  0.21644674103E+03 -0.21855841633E+03  0.34317899492E+03  0.12500000000E+03 0.  0.
         25    1    1    2    0    0  0.86774705445E+02 -0.21644674103E+03 -0.66952612918E+03  0.71990921570E+03  0.12500000000E+03 0.  0.
</event>
<event>
 4    0  0.2202290E-002  0.2343287E+03  0.7546771E-02  0.1123630E+00
         21   -1    0    0  502  501  0.00000000000E+00  0.00000000000E+00  0.19088385727E+03  0.19088385727E+03  0.00000000000E+00 0. -1.
         21   -1    0    0  501  502 -0.00000000000E+00 -0.00000000000E+00 -0.28766145384E+03  0.28766145384E+03  0.00000000000E+00 0. -1.
         25    1    1    2    0    0 -0.17893040457E+03  0.82240589067E+02 -0.25435110107E+02  0.23463066508E+03  0.12500000000E+03 0.  0.
         25    1    1    2    0    0  0.17893040457E+03 -0.82240589067E+02 -0.71342486465E+02  0.24391464603E+03  0.12500000000E+03 0.  0.
</event>
<event>
 4    0  0.2202290E-002  0.1976773E+03  0.7546771E-02  0.1151714E+00
         21   -1    0    0  502  501  0.00000000000E+00  0.00000000000E+00  0.94133576910E+03  0.94133576910E+03  0.00000000000E+00 0. -1.
         21   -1    0    0  501  502 -0.00000000000E+00 -0.00000000000E+00 -0.41511559356E+02  0.41511559356E+02  0.00000000000E+00 0. -1.
         25    1    1    2    0    0 -0.45070582578E+02 -0.14473982910E+03  0.39599764366E+03  0.44206346753E+03  0.12500000000E+03 0.  0.
         25    1    1    2    0    0  0.45070582578E+02  0.14473982910E+03  0.50382656609E+03  0.54078386093E+03  0.12500000000E+03 0.  0.
</event>
<event>
 4    0  0.2202290E-002  0.1926271E+03  0.7546771E-02  0.1156113E+00
         21   -1    0    0  502  501  0.00000000000E+00  0.00000000000E+00  0.58326508034E+02  0.58326508034E+02  0.00000000000E+00 0.  1.
         21   -1    0    0  501  502 -0.00000000000E+00 -0.00000000000E+00 -0.63616368744E+03  0.63616368744E+03  0.00000000000E+00 0.  1.
         25    1    1    2    0    0  0.29940731565E+02  0.92950277474E+02 -0.48593104539E+03  0.51116551367E+03  0.12500000000E+03 0.  0.
         25    1    1    2    0    0 -0.29940731565E+02 -0.92950277474E+02 -0.91906134015E+02  0.18332468180E+03  0.12500000000E+03 0.  0.
</event>
<event>
 4    0  0.2202290E-002  0.2222123E+03  0.7546771E-02  0.1132244E+00
         21   -1    0    0  502  501  0.00000000000E+00  0.00000000000E+00  0.31405968254E+03  0.31405968254E+03  0.00000000000E+00 0. -1.
         21   -1    0    0  501  502 -0.00000000000E+00 -0.00000000000E+00 -0.15722582785E+03  0.15722582785E+03  0.00000000000E+00 0. -1.
         25    1    1    2    0    0 -0.41589651592E+02 -0.14808818197E+03 -0.28121583093E+02  0.20018899119E+03  0.12500000000E+03 0.  0.
         25    1    1    2    0    0  0.41589651592E+02  0.14808818197E+03  0.18495543777E+03  0.27109651920E+03  0.12500000000E+03 0.  0.
</event>
<event>
 4    0  0.2202290E-002  0.1692049E+03  0.7546771E-02  0.1178680E+00
         21   -1    0    0  502  501  0.00000000000E+00  0.00000000000E+00  0.67375273370E+02  0.67375273370E+02  0.00000000000E+00 0.  1.
         21   -1    0    0  501  502 -0.00000000000E+00 -0.00000000000E+00 -0.42493771757E+03  0.42493771757E+03  0.00000000000E+00 0.  1.
         25    1    1    2    0    0  0.48178771670E+02 -0.81557560900E+02 -0.27116244325E+03  0.31325213552E+03  0.12500000000E+03 0.  0.
         25    1    1    2    0    0 -0.48178771670E+02  0.81557560900E+02 -0.86400000954E+02  0.17906085542E+03  0.12500000000E+03 0.  0.
</event>
<event>
 4    0  0.2202290E-002  0.1369560E+03  0.7546771E-02  0.1217485E+00
         21   -1    0    0  502  501  0.00000000000E+00  0.00000000000E+00  0.19203416960E+03  0.19203416960E+03  0.00000000000E+00 0.  1.
         21   -1    0    0  501  502 -0.00000000000E+00 -0.00000000000E+00 -0.97674995379E+02  0.97674995379E+02  0.00000000000E+00 0.  1.
         25    1    1    2    0    0  0.20413311302E+02  0.11004576267E+02  0.10104963643E+03  0.16240022475E+03  0.12500000000E+03 0.  0.
         25    1    1    2    0    0 -0.20413311302E+02 -0.11004576267E+02 -0.66904622099E+01  0.12730894023E+03  0.12500000000E+03 0.  0.
</event>
<event>
 4    0  0.2202290E-002  0.2338185E+03  0.7546771E-02  0.1123981E+00
         21   -1    0    0  502  501  0.00000000000E+00  0.00000000000E+00  0.14657559858E+03  0.14657559858E+03  0.00000000000E+00 0. -1.
         21   -1    0    0  501  502 -0.00000000000E+00 -0.00000000000E+00 -0.37298895792E+03  0.37298895792E+03  0.00000000000E+00 0. -1.
         25    1    1    2    0    0  0.39070009073E+02  0.17078493190E+03 -0.11668566378E+02  0.21553448451E+03  0.12500000000E+03 0.  0.
         25    1    1    2    0    0 -0.39070009073E+02 -0.17078493190E+03 -0.21474479296E+03  0.30403007199E+03  0.12500000000E+03 0.  0.
</event>
<event>
 4    0  0.2202290E-002  0.1859571E+03  0.7546771E-02  0.1162159E+00
         21   -1    0    0  502  501  0.00000000000E+00  0.00000000000E+00  0.47808768256E+02  0.47808768256E+02  0.00000000000E+00 0.  1.
         21   -1    0    0  501  502 -0.00000000000E+00 -0.00000000000E+00 -0.72329888261E+03  0.72329888261E+03  0.00000000000E+00 0.  1.
         25    1    1    2    0    0  0.26738836742E+02 -0.10920204528E+03 -0.50250749684E+03  0.52988568245E+03  0.12500000000E+03 0.  0.
         25    1    1    2    0    0 -0.26738836742E+02  0.10920204528E+03 -0.17298261751E+03  0.24122196842E+03  0.12500000000E+03 0.  0.
</event>
<event>
 4    0  0.2202290E-002  0.1856969E+03  0.7546771E-02  0.1162401E+00
         21   -1    0    0  502  501  0.00000000000E+00  0.00000000000E+00  0.52579463441E+02  0.52579463441E+02  0.00000000000E+00 0. -1.
         21   -1    0    0  501  502 -0.00000000000E+00 -0.00000000000E+00 -0.65583302956E+03  0.65583302956E+03  0.00000000000E+00 0. -1.
         25    1    1    2    0    0  0.11630656580E+03 -0.69877640945E+02 -0.34201085635E+03  0.38859558388E+03  0.12500000000E+03 0.  0.
         25    1    1    2    0    0 -0.11630656580E+03  0.69877640945E+02 -0.26124270977E+03  0.31981690912E+03  0.12500000000E+03 0.  0.
</event>
<event>
 4    0  0.2202290E-002  0.3595964E+03  0.7546771E-02  0.1058744E+00
         21   -1    0    0  502  501  0.00000000000E+00  0.00000000000E+00  0.97344141356E+03  0.97344141356E+03  0.00000000000E+00 0. -1.
         21   -1    0    0  501  502 -0.00000000000E+00 -0.00000000000E+00 -0.13283751297E+03  0.13283751297E+03  0.00000000000E+00 0.  1.
         25    1    1    2    0    0  0.23567251332E+03  0.23967238886E+03  0.46100383935E+03  0.58406671486E+03  0.12500000000E+03 0.  0.
         25    1    1    2    0    0 -0.23567251332E+03 -0.23967238886E+03  0.37960006125E+03  0.52221221167E+03  0.12500000000E+03 0.  0.
</event>
<event>
 4    0  0.2202290E-002  0.1559082E+03  0.7546771E-02  0.1193395E+00
         21   -1    0    0  502  501  0.00000000000E+00  0.00000000000E+00  0.21596971760E+03  0.21596971760E+03  0.00000000000E+00 0. -1.
         21   -1    0    0  501  502 -0.00000000000E+00 -0.00000000000E+00 -0.11254995652E+03  0.11254995652E+03  0.00000000000E+00 0. -1.
         25    1    1    2    0    0 -0.13923730054E+02  0.79780916149E+02  0.31597711795E+01  0.14897600140E+03  0.12500000000E+03 0.  0.
         25    1    1    2    0    0  0.13923730054E+02 -0.79780916149E+02  0.10025998990E+03  0.17954367272E+03  0.12500000000E+03 0.  0.
</event>
<event>
 4    0  0.2202290E-002  0.3896900E+03  0.7546771E-02  0.1047409E+00
         21   -1    0    0  502  501  0.00000000000E+00  0.00000000000E+00  0.14155962505E+03  0.14155962505E+03  0.00000000000E+00 0. -1.
         21   -1    0    0  501  502 -0.00000000000E+00 -0.00000000000E+00 -0.10727514321E+04  0.10727514321E+04  0.00000000000E+00 0. -1.
         25    1    1    2    0    0 -0.31357158919E+03  0.17339675098E+03 -0.60354881083E+03  0.71294441709E+03  0.12500000000E+03 0.  0.
         25    1    1    2    0    0  0.31357158919E+03 -0.17339675098E+03 -0.32764299622E+03  0.50136664007E+03  0.12500000000E+03 0.  0.
</event>
<event>
 4    0  0.2365184E-002  0.1994225E+03  0.7546771E-02  0.1150227E+00
         21   -1    0    0  502  501  0.00000000000E+00  0.00000000000E+00  0.19612236089E+03  0.19612236089E+03  0.00000000000E+00 0. -1.
         21   -1    0    0  501  502 -0.00000000000E+00 -0.00000000000E+00 -0.20277824698E+03  0.20277824698E+03  0.00000000000E+00 0. -1.
         25    1    1    2    0    0  0.64415504195E+01  0.27114933139E+02  0.14955810250E+03  0.19689931232E+03  0.12500000000E+03 0.  0.
         25    1    1    2    0    0 -0.64415504195E+01 -0.27114933139E+02 -0.15621398859E+03  0.20200129555E+03  0.12500000000E+03 0.  0.
</event>
<event>
 4    0  0.2202290E-002  0.3843384E+03  0.7546771E-02  0.1049342E+00
         21   -1    0    0  502  501  0.00000000000E+00  0.00000000000E+00  0.15520054676E+04  0.15520054676E+04  0.00000000000E+00 0.  1.
         21   -1    0    0  501  502 -0.00000000000E+00 -0.00000000000E+00 -0.95177520283E+02  0.95177520283E+02  0.00000000000E+00 0.  1.
         25    1    1    2    0    0  0.17412702497E+03 -0.11210366228E+03  0.88400409575E+02  0.25754045184E+03  0.12500000000E+03 0.  0.
         25    1    1    2    0    0 -0.17412702497E+03  0.11210366228E+03  0.13684275378E+04  0.13896425361E+04  0.12500000000E+03 0.  0.
</event>
<event>
 4    0  0.2202290E-002  0.2875415E+03  0.7546771E-02  0.1091640E+00
         21   -1    0    0  502  501  0.00000000000E+00  0.00000000000E+00  0.23272972640E+03  0.23272972640E+03  0.00000000000E+00 0.  1.
         21   -1    0    0  501  502 -0.00000000000E+00 -0.00000000000E+00 -0.35526243024E+03  0.35526243024E+03  0.00000000000E+00 0. -1.
         25    1    1    2    0    0  0.85032411055E+02 -0.21160008152E+03 -0.18669869789E+03  0.32013514213E+03  0.12500000000E+03 0.  0.
         25    1    1    2    0    0 -0.85032411055E+02  0.21160008152E+03  0.64165994050E+02  0.26785701451E+03  0.12500000000E+03 0.  0.
</event>
<event>
 4    0  0.2202290E-002  0.2782889E+03  0.7546771E-02  0.1096627E+00
         21   -1    0    0  502  501  0.00000000000E+00  0.00000000000E+00  0.32696261155E+03  0.32696261155E+03  0.00000000000E+00 0. -1.
         21   -1    0    0  501  502 -0.00000000000E+00 -0.00000000000E+00 -0.23686109667E+03  0.23686109667E+03  0.00000000000E+00 0. -1.
         25    1    1    2    0    0 -0.23451687151E+03  0.30967084705E+01  0.12865990397E+03  0.29527296442E+03  0.12500000000E+03 0.  0.
         25    1    1    2    0    0  0.23451687151E+03 -0.30967084705E+01 -0.38558389087E+02  0.26855074380E+03  0.12500000000E+03 0.  0.
</event>
<event>
 4    0  0.2202290E-002  0.2228534E+03  0.7546771E-02  0.1131773E+00
         21   -1    0    0  502  501  0.00000000000E+00  0.00000000000E+00  0.11663838182E+03  0.11663838182E+03  0.00000000000E+00 0. -1.
         21   -1    0    0  501  502 -0.00000000000E+00 -0.00000000000E+00 -0.42579152811E+03  0.42579152811E+03  0.00000000000E+00 0. -1.
         25    1    1    2    0    0 -0.11104495502E+03 -0.18018247039E+02  0.23385991231E+02  0.16978675993E+03  0.12500000000E+03 0.  0.
         25    1    1    2    0    0  0.11104495502E+03  0.18018247039E+02 -0.33253913752E+03  0.37264315000E+03  0.12500000000E+03 0.  0.
</event>
<event>
 4    0  0.2202290E-002  0.2414179E+03  0.7546771E-02  0.1118852E+00
         21   -1    0    0  502  501  0.00000000000E+00  0.00000000000E+00  0.65841211302E+02  0.65841211302E+02  0.00000000000E+00 0. -1.
         21   -1    0    0  501  502 -0.00000000000E+00 -0.00000000000E+00 -0.88519973230E+03  0.88519973230E+03  0.00000000000E+00 0. -1.
         25    1    1    2    0    0 -0.10881605196E+03 -0.11934131431E+03 -0.15609762450E+03  0.25705009403E+03  0.12500000000E+03 0.  0.
         25    1    1    2    0    0  0.10881605196E+03  0.11934131431E+03 -0.66326089650E+03  0.69399084957E+03  0.12500000000E+03 0.  0.
</event>
<event>
 4    0  0.2202290E-002  0.2213402E+03  0.7546771E-02  0.1132888E+00
         21   -1    0    0  502  501  0.00000000000E+00  0.00000000000E+00  0.11610422091E+04  0.11610422091E+04  0.00000000000E+00 0. -1.
         21   -1    0    0  501  502 -0.00000000000E+00 -0.00000000000E+00 -0.42196124582E+02  0.42196124582E+02  0.00000000000E+00 0. -1.
         25    1    1    2    0    0  0.45213599990E+02  0.11142571288E+03  0.93316099779E+03  0.94914403908E+03  0.12500000000E+03 0.  0.
         25    1    1    2    0    0 -0.45213599990E+02 -0.11142571288E+03  0.18568508669E+03  0.25409429457E+03  0.12500000000E+03 0.  0.
</event>
<event>
 4    0  0.2202290E-002  0.2887723E+03  0.7546771E-02  0.1090992E+00
         21   -1    0    0  502  501  0.00000000000E+00  0.00000000000E+00  0.14602478747E+04  0.14602478747E+04  0.00000000000E+00 0. -1.
         21   -1    0    0  501  502 -0.00000000000E+00 -0.00000000000E+00 -0.57106344262E+02  0.57106344262E+02  0.00000000000E+00 0. -1.
         25    1    1    2    0    0  0.16411920541E+03  0.18160161950E+03  0.46879344993E+03  0.54342116308E+03  0.12500000000E+03 0.  0.
         25    1    1    2    0    0 -0.16411920541E+03 -0.18160161950E+03  0.93434808056E+03  0.97393305593E+03  0.12500000000E+03 0.  0.
</event>
<event>
 4    0  0.2202290E-002  0.2224008E+03  0.7546771E-02  0.1132106E+00
         21   -1    0    0  502  501  0.00000000000E+00  0.00000000000E+00  0.77146869247E+02  0.77146869247E+02  0.00000000000E+00 0. -1.
         21   -1    0    0  501  502 -0.00000000000E+00 -0.00000000000E+00 -0.64114207117E+03  0.64114207117E+03  0.00000000000E+00 0. -1.
         25    1    1    2    0    0 -0.14268752980E+03  0.14571872534E+02 -0.96008686934E+02  0.21310734055E+03  0.12500000000E+03 0.  0.
         25    1    1    2    0    0  0.14268752980E+03 -0.14571872534E+02 -0.46798651499E+03  0.50518159987E+03  0.12500000000E+03 0.  0.
</event>
<event>
 4    0  0.2202290E-002  0.1826296E+03  0.7546771E-02  0.1165282E+00
         21   -1    0    0  502  501  0.00000000000E+00  0.00000000000E+00  0.18034528196E+03  0.18034528196E+03  0.00000000000E+00 0. -1.
         21   -1    0    0  501  502 -0.00000000000E+00 -0.00000000000E+00 -0.18494281397E+03  0.18494281397E+03  0.00000000000E+00 0. -1.
         25    1    1    2    0    0 -0.27812340509E+02  0.10602734244E+03  0.73293200975E+02  0.18169264415E+03  0.12500000000E+03 0.  0.
         25    1    1    2    0    0  0.27812340509E+02 -0.10602734244E+03 -0.77890732991E+02  0.18359545178E+03  0.12500000000E+03 0.  0.
</event>
<event>
 4    0  0.2202290E-002  0.1818081E+03  0.7546771E-02  0.1166065E+00
         21   -1    0    0  502  501  0.00000000000E+00  0.00000000000E+00  0.12576140188E+04  0.12576140188E+04  0.00000000000E+00 0.  1.
         21   -1    0    0  501  502 -0.00000000000E+00 -0.00000000000E+00 -0.26283242627E+02  0.26283242627E+02  0.00000000000E+00 0.  1.
         25    1    1    2    0    0  0.43708536146E+02  0.58869415306E+02  0.22801783788E+03  0.27017249783E+03  0.12500000000E+03 0.  0.
         25    1    1    2    0    0 -0.43708536146E+02 -0.58869415306E+02  0.10033129383E+04  0.10137247636E+04  0.12500000000E+03 0.  0.
</event>
<event>
 4    0  0.2202290E-002  0.2889437E+03  0.7546771E-02  0.1090902E+00
         21   -1    0    0  502  501  0.00000000000E+00  0.00000000000E+00  0.29565350362E+03  0.29565350362E+03  0.00000000000E+00 0. -1.
         21   -1    0    0  501  502 -0.00000000000E+00 -0.00000000000E+00 -0.28238608509E+03  0.28238608509E+03  0.00000000000E+00 0. -1.
         25    1    1    2    0    0  0.22773431498E+03 -0.42911385413E+01  0.13308736632E+03  0.29192221423E+03  0.12500000000E+03 0.  0.
         25    1    1    2    0    0 -0.22773431498E+03  0.42911385413E+01 -0.11981994779E+03  0.28611737448E+03  0.12500000000E+03 0.  0.
</event>
<event>
 4    0  0.2202290E-002  0.2215250E+03  0.7546771E-02  0.1132751E+00
         21   -1    0    0  502  501  0.00000000000E+00  0.00000000000E+00  0.54823475975E+03  0.54823475975E+03  0.00000000000E+00 0.  1.
         21   -1    0    0  501  502 -0.00000000000E+00 -0.00000000000E+00 -0.89511485648E+02  0.89511485648E+02  0.00000000000E+00 0.  1.
         25    1    1    2    0    0  0.16438255397E+03 -0.79937485036E+02  0.22064350757E+03  0.31260227606E+03  0.12500000000E+03 0.  0.
         25    1    1    2    0    0 -0.16438255397E+03  0.79937485036E+02  0.23807976652E+03  0.32514396933E+03  0.12500000000E+03 0.  0.
</event>
<event>
 4    0  0.2202290E-002  0.1910805E+03  0.7546771E-02  0.1157490E+00
         21   -1    0    0  502  501  0.00000000000E+00  0.00000000000E+00  0.13633851050E+03  0.13633851050E+03  0.00000000000E+00 0. -1.
         21   -1    0    0  501  502 -0.00000000000E+00 -0.00000000000E+00 -0.26780224147E+03  0.26780224147E+03  0.00000000000E+00 0. -1.
         25    1    1    2    0    0 -0.26061525510E+02 -0.28362976945E+02 -0.21303832862E+03  0.24998798178E+03  0.12500000000E+03 0.  0.
         25    1    1    2    0    0  0.26061525510E+02  0.28362976945E+02  0.81574597658E+02  0.15415277019E+03  0.12500000000E+03 0.  0.
</event>
<event>
 4    0  0.2202290E-002  0.2172856E+03  0.7546771E-02  0.1135923E+00
         21   -1    0    0  502  501  0.00000000000E+00  0.00000000000E+00  0.13532582246E+04  0.13532582246E+04  0.00000000000E+00 0. -1.
         21   -1    0    0  501  502 -0.00000000000E+00 -0.00000000000E+00 -0.34888397412E+02  0.34888397412E+02  0.00000000000E+00 0. -1.
         25    1    1    2    0    0  0.20447974567E+02  0.17536615163E+03  0.59398662687E+03  0.63215229154E+03  0.12500000000E+03 0.  0.
         25    1    1    2    0    0 -0.20447974567E+02 -0.17536615163E+03  0.72438320028E+03  0.75599433044E+03  0.12500000000E+03 0.  0.
</event>
<event>
 4    0  0.2202290E-002  0.2570437E+03  0.7546771E-02  0.1108933E+00
         21   -1    0    0  502  501  0.00000000000E+00  0.00000000000E+00  0.76376830577E+02  0.76376830577E+02  0.00000000000E+00 0.  1.
         21   -1    0    0  501  502 -0.00000000000E+00 -0.00000000000E+00 -0.86507219021E+03  0.86507219021E+03  0.00000000000E+00 0.  1.
         25    1    1    2    0    0 -0.13590252461E+03  0.16328797092E+03 -0.26085077797E+03  0.35888798532E+03  0.12500000000E+03 0.  0.
         25    1    1    2    0    0  0.13590252461E+03 -0.16328797092E+03 -0.52784458167E+03  0.58256103546E+03  0.12500000000E+03 0.  0.
</event>
<event>
 4    0  0.2202290E-002  0.2139201E+03  0.7546771E-02  0.1138499E+00
         21   -1    0    0  502  501  0.00000000000E+00  0.00000000000E+00  0.14485002934E+03  0.14485002934E+03  0.00000000000E+00 0.  1.
         21   -1    0    0  501  502 -0.00000000000E+00 -0.00000000000E+00 -0.31592530361E+03  0.31592530361E+03  0.00000000000E+00 0.  1.
         25    1    1    2    0    0  0.54677069041E+02  0.15612599021E+02 -0.26218686751E+03  0.29597345932E+03  0.12500000000E+03 0.  0.
         25    1    1    2    0    0 -0.54677069041E+02 -0.15612599021E+02  0.91111593243E+02  0.16480187363E+03  0.12500000000E+03 0.  0.
</event>
<event>
 4    0  0.2202290E-002  0.2240357E+03  0.7546771E-02  0.1130910E+00
         21   -1    0    0  502  501  0.00000000000E+00  0.00000000000E+00  0.14738962765E+03  0.14738962765E+03  0.00000000000E+00 0. -1.
         21   -1    0    0  501  502 -0.00000000000E+00 -0.00000000000E+00 -0.34053962028E+03  0.34053962028E+03  0.00000000000E+00 0. -1.
         25    1    1    2    0    0 -0.51872714176E+02  0.12364732699E+03 -0.23682436925E+03  0.29948325800E+03  0.12500000000E+03 0.  0.
         25    1    1    2    0    0  0.51872714176E+02 -0.12364732699E+03  0.43674376622E+02  0.18844598993E+03  0.12500000000E+03 0.  0.
</event>
<event>
 4    0  0.2202290E-002  0.1798658E+03  0.7546771E-02  0.1167933E+00
         21   -1    0    0  502  501  0.00000000000E+00  0.00000000000E+00  0.25873323285E+03  0.25873323285E+03  0.00000000000E+00 0. -1.
         21   -1    0    0  501  502 -0.00000000000E+00 -0.00000000000E+00 -0.12503886651E+03  0.12503886651E+03  0.00000000000E+00 0. -1.
         25    1    1    2    0    0 -0.10050831715E+03  0.44765985761E+02 -0.56720369931E+01  0.16662258941E+03  0.12500000000E+03 0.  0.
         25    1    1    2    0    0  0.10050831715E+03 -0.44765985761E+02  0.13936640333E+03  0.21714950995E+03  0.12500000000E+03 0.  0.
</event>
<event>
 4    0  0.2202290E-002  0.2338367E+03  0.7546771E-02  0.1123968E+00
         21   -1    0    0  502  501  0.00000000000E+00  0.00000000000E+00  0.60056067307E+02  0.60056067307E+02  0.00000000000E+00 0. -1.
         21   -1    0    0  501  502 -0.00000000000E+00 -0.00000000000E+00 -0.91047613033E+03  0.91047613033E+03  0.00000000000E+00 0. -1.
         25    1    1    2    0    0  0.12830537322E+02 -0.17760689872E+03 -0.60307329668E+03  0.64111717676E+03  0.12500000000E+03 0.  0.
         25    1    1    2    0    0 -0.12830537322E+02  0.17760689872E+03 -0.24734676635E+03  0.32941502088E+03  0.12500000000E+03 0.  0.
</event>
<event>
 4    0  0.2202290E-002  0.2049196E+03  0.7546771E-02  0.1145653E+00
         21   -1    0    0  502  501  0.00000000000E+00  0.00000000000E+00  0.91714534122E+02  0.91714534122E+02  0.00000000000E+00 0. -1.
         21   -1    0    0  501  502 -0.00000000000E+00 -0.00000000000E+00 -0.45785605809E+03  0.45785605809E+03  0.00000000000E+00 0. -1.
         25    1    1    2    0    0 -0.96694457200E+02  0.12458918673E+03 -0.23491462305E+03  0.30932533622E+03  0.12500000000E+03 0.  0.
         25    1    1    2    0    0  0.96694457200E+02 -0.12458918673E+03 -0.13122690091E+03  0.24024525599E+03  0.12500000000E+03 0.  0.
</event>
<event>
 4    0  0.2202290E-002  0.1803679E+03  0.7546771E-02  0.1167447E+00
         21   -1    0    0  502  501  0.00000000000E+00  0.00000000000E+00  0.35358297937E+03  0.35358297937E+03  0.00000000000E+00 0. -1.
         21   -1    0    0  501  502 -0.00000000000E+00 -0.00000000000E+00 -0.92008349157E+02  0.92008349157E+02  0.00000000000E+00 0. -1.
         25    1    1    2    0    0 -0.81957084647E+02 -0.75062921818E+02  0.21416462706E+03  0.27174048915E+03  0.12500000000E+03 0.  0.
         25    1    1    2    0    0  0.81957084647E+02  0.75062921818E+02  0.47410003151E+02  0.17385083938E+03  0.12500000000E+03 0.  0.
</event>
<event>
 4    0  0.2202290E-002  0.2046287E+03  0.7546771E-02  0.1145891E+00
         21   -1    0    0  502  501  0.00000000000E+00  0.00000000000E+00  0.83863214500E+03  0.83863214500E+03  0.00000000000E+00 0.  1.
         21   -1    0    0  501  502 -0.00000000000E+00 -0.00000000000E+00 -0.49930002832E+02  0.49930002832E+02  0.00000000000E+00 0.  1.
         25    1    1    2    0    0 -0.59422359247E+02  0.10213326515E+03  0.63500388746E+03  0.65788840826E+03  0.12500000000E+03 0.  0.
         25    1    1    2    0    0  0.59422359247E+02 -0.10213326515E+03  0.15369825470E+03  0.23067373957E+03  0.12500000000E+03 0.  0.
</event>
<event>
 4    0  0.2202290E-002  0.2626643E+03  0.7546771E-02  0.1105553E+00
         21   -1    0    0  502  501  0.00000000000E+00  0.00000000000E+00  0.45429179334E+03  0.45429179334E+03  0.00000000000E+00 0. -1.
         21   -1    0    0  501  502 -0.00000000000E+00 -0.00000000000E+00 -0.15186831873E+03  0.15186831873E+03  0.00000000000E+00 0. -1.
         25    1    1    2    0    0 -0.15339022957E+03 -0.43988673095E+02  0.34395947069E+03  0.39924514194E+03  0.12500000000E+03 0.  0.
         25    1    1    2    0    0  0.15339022957E+03  0.43988673095E+02 -0.41535996082E+02  0.20691497012E+03  0.12500000000E+03 0.  0.
</event>
<event>
 4    0  0.2202290E-002  0.3610470E+03  0.7546771E-02  0.1058170E+00
         21   -1    0    0  502  501  0.00000000000E+00  0.00000000000E+00  0.14748280933E+04  0.14748280933E+04  0.00000000000E+00 0.  1.
         21   -1    0    0  501  502 -0.00000000000E+00 -0.00000000000E+00 -0.88386509892E+02  0.88386509892E+02  0.00000000000E+00 0.  1.
         25    1    1    2    0    0 -0.21423419295E+03 -0.69533491622E+02  0.12408801726E+04  0.12673357087E+04  0.12500000000E+03 0.  0.
         25    1    1    2    0    0  0.21423419295E+03  0.69533491622E+02  0.14556141086E+03  0.29587889451E+03  0.12500000000E+03 0.  0.
</event>
<event>
 4    0  0.2202290E-002  0.2106920E+03  0.7546771E-02  0.1141019E+00
         21   -1    0    0  502  501  0.00000000000E+00  0.00000000000E+00  0.45525637925E+04  0.45525637925E+04  0.00000000000E+00 0. -1.
         21   -1    0    0  501  502 -0.00000000000E+00 -0.00000000000E+00 -0.97507995208E+01  0.97507995208E+01  0.00000000000E+00 0. -1.
         25    1    1    2    0    0  0.10589841551E+02 -0.62928521106E+01  0.41028746075E+04  0.41047968025E+04  0.12500000000E+03 0.  0.
         25    1    1    2    0    0 -0.10589841551E+02  0.62928521106E+01  0.43993838542E+03  0.45751778949E+03  0.12500000000E+03 0.  0.
</event>
<event>
 4    0  0.2202290E-002  0.2089363E+03  0.7546771E-02  0.1142411E+00
         21   -1    0    0  502  501  0.00000000000E+00  0.00000000000E+00  0.25783630146E+02  0.25783630146E+02  0.00000000000E+00 0. -1.
         21   -1    0    0  501  502 -0.00000000000E+00 -0.00000000000E+00 -0.16931042961E+04  0.16931042961E+04  0.00000000000E+00 0. -1.
         25    1    1    2    0    0 -0.33688709880E+02 -0.54864949949E+01 -0.15078650698E+04  0.15134223137E+04  0.12500000000E+03 0.  0.
         25    1    1    2    0    0  0.33688709880E+02  0.54864949949E+01 -0.15945559610E+03  0.20546561252E+03  0.12500000000E+03 0.  0.
</event>
<event>
 4    0  0.2202290E-002  0.1959714E+03  0.7546771E-02  0.1153183E+00
         21   -1    0    0  502  501  0.00000000000E+00  0.00000000000E+00  0.78768072178E+02  0.78768072178E+02  0.00000000000E+00 0. -1.
         21   -1    0    0  501  502 -0.00000000000E+00 -0.00000000000E+00 -0.48756795176E+03  0.48756795176E+03  0.00000000000E+00 0. -1.
         25    1    1    2    0    0  0.52760936264E+02 -0.22445320891E+02 -0.40613566555E+03  0.42878746210E+03  0.12500000000E+03 0.  0.
         25    1    1    2    0    0 -0.52760936264E+02  0.22445320891E+02 -0.26642140273E+01  0.13754856183E+03  0.12500000000E+03 0.  0.
</event>
<event>
 4    0  0.2202290E-002  0.4044367E+03  0.7546771E-02  0.1042254E+00
         21   -1    0    0  502  501  0.00000000000E+00  0.00000000000E+00  0.13319533213E+04  0.13319533213E+04  0.00000000000E+00 0.  1.
         21   -1    0    0  501  502 -0.00000000000E+00 -0.00000000000E+00 -0.12280388449E+03  0.12280388449E+03  0.00000000000E+00 0. -1.
         25    1    1    2    0    0 -0.34143383926E+03 -0.15536561122E+03  0.75748409639E+03  0.85447217393E+03  0.12500000000E+03 0.  0.
         25    1    1    2    0    0  0.34143383926E+03  0.15536561122E+03  0.45166534044E+03  0.60028503188E+03  0.12500000000E+03 0.  0.
</event>
<event>
 4    0  0.2202290E-002  0.1848188E+03  0.7546771E-02  0.1163219E+00
         21   -1    0    0  502  501  0.00000000000E+00  0.00000000000E+00  0.65239633393E+02  0.65239633393E+02  0.00000000000E+00 0. -1.
         21   -1    0    0  501  502 -0.00000000000E+00 -0.00000000000E+00 -0.52357734398E+03  0.52357734398E+03  0.00000000000E+00 0. -1.
         25    1    1    2    0    0 -0.16734952485E+02 -0.10283952563E+03 -0.36874107798E+03  0.40305211730E+03  0.12500000000E+03 0.  0.
         25    1    1    2    0    0  0.16734952485E+02  0.10283952563E+03 -0.89596632607E+02  0.18576486008E+03  0.12500000000E+03 0.  0.
</event>
<event>
 4    0  0.2202290E-002  0.2019508E+03  0.7546771E-02  0.1148103E+00
         21   -1    0    0  502  501  0.00000000000E+00  0.00000000000E+00  0.42967522274E+03  0.42967522274E+03  0.00000000000E+00 0.  1.
         21   -1    0    0  501  502 -0.00000000000E+00 -0.00000000000E+00 -0.94918542313E+02  0.94918542313E+02  0.00000000000E+00 0.  1.
         25    1    1    2    0    0  0.13175939138E+03  0.62085846671E+02  0.24894515198E+03  0.31434674846E+03  0.12500000000E+03 0.  0.
         25    1    1    2    0    0 -0.13175939138E+03 -0.62085846671E+02  0.85811528450E+02  0.21024701660E+03  0.12500000000E+03 0.  0.
</event>
<event>
 4    0  0.2202290E-002  0.1728468E+03  0.7546771E-02  0.1174911E+00
         21   -1    0    0  502  501  0.00000000000E+00  0.00000000000E+00  0.58715303467E+02  0.58715303467E+02  0.00000000000E+00 0.  1.
         21   -1    0    0  501  502 -0.00000000000E+00 -0.00000000000E+00 -0.50882815364E+03  0.50882815364E+03  0.00000000000E+00 0.  1.
         25    1    1    2    0    0 -0.77528302069E+02 -0.74634890487E+02 -0.14022375735E+03  0.21649181653E+03  0.12500000000E+03 0.  0.
         25    1    1    2    0    0  0.77528302069E+02  0.74634890487E+02 -0.30988909283E+03  0.35105164058E+03  0.12500000000E+03 0.  0.
</event>
<event>
 4    0  0.2202290E-002  0.1689158E+03  0.7546771E-02  0.1178983E+00
         21   -1    0    0  502  501  0.00000000000E+00  0.00000000000E+00  0.15480214835E+03  0.15480214835E+03  0.00000000000E+00 0. -1.
         21   -1    0    0  501  502 -0.00000000000E+00 -0.00000000000E+00 -0.18431628503E+03  0.18431628503E+03  0.00000000000E+00 0. -1.
         25    1    1    2    0    0 -0.88958166514E+01  0.11326122202E+03 -0.15322177597E+02  0.16960839924E+03  0.12500000000E+03 0.  0.
         25    1    1    2    0    0  0.88958166514E+01 -0.11326122202E+03 -0.14191959085E+02  0.16951003413E+03  0.12500000000E+03 0.  0.
</event>
<event>
 4    0  0.2202290E-002  0.1947092E+03  0.7546771E-02  0.1154281E+00
         21   -1    0    0  502  501  0.00000000000E+00  0.00000000000E+00  0.22598515529E+03  0.22598515529E+03  0.00000000000E+00 0. -1.
         21   -1    0    0  501  502 -0.00000000000E+00 -0.00000000000E+00 -0.16776171201E+03  0.16776171201E+03  0.00000000000E+00 0. -1.
         25    1    1    2    0    0  0.14454427624E+03 -0.34757364276E+02  0.15339216961E+02  0.19483689010E+03  0.12500000000E+03 0.  0.
         25    1    1    2    0    0 -0.14454427624E+03  0.34757364276E+02  0.42884226315E+02  0.19890997720E+03  0.12500000000E+03 0.  0.
</event>
<event>
 4    0  0.2202290E-002  0.1838390E+03  0.7546771E-02  0.1164139E+00
         21   -1    0    0  502  501  0.00000000000E+00  0.00000000000E+00  0.48941531734E+03  0.48941531734E+03  0.00000000000E+00 0.  1.
         21   -1    0    0  501  502 -0.00000000000E+00 -0.00000000000E+00 -0.69055406475E+02  0.69055406475E+02  0.00000000000E+00 0.  1.
         25    1    1    2    0    0  0.60164538625E+02 -0.10234862739E+03  0.11319812203E+03  0.20623731008E+03  0.12500000000E+03 0.  0.
         25    1    1    2    0    0 -0.60164538625E+02  0.10234862739E+03  0.30716178884E+03  0.35223341374E+03  0.12500000000E+03 0.  0.
</event>
<event>
 4    0  0.2202290E-002  0.2669222E+03  0.7546771E-02  0.1103054E+00
         21   -1    0    0  502  501  0.00000000000E+00  0.00000000000E+00  0.28534109595E+03  0.28534109595E+03  0.00000000000E+00 0.  1.
         21   -1    0    0  501  502 -0.00000000000E+00 -0.00000000000E+00 -0.24969216420E+03  0.24969216420E+03  0.00000000000E+00 0.  1.
         25    1    1    2    0    0 -0.94680634351E+02  0.83739358605E+02  0.21738028295E+03  0.28081290945E+03  0.12500000000E+03 0.  0.
         25    1    1    2    0    0  0.94680634351E+02 -0.83739358605E+02 -0.18173135119E+03  0.25422035069E+03  0.12500000000E+03 0.  0.
</event>
<event>
 4    0  0.2202290E-002  0.3774554E+03  0.7546771E-02  0.1051878E+00
         21   -1    0    0  502  501  0.00000000000E+00  0.00000000000E+00  0.46912001028E+03  0.46912001028E+03  0.00000000000E+00 0. -1.
         21   -1    0    0  501  502 -0.00000000000E+00 -0.00000000000E+00 -0.30370178069E+03  0.30370178069E+03  0.00000000000E+00 0. -1.
         25    1    1    2    0    0  0.33534774705E+03 -0.77599316739E+02 -0.10937008630E+02  0.36636646076E+03  0.12500000000E+03 0.  0.
         25    1    1    2    0    0 -0.33534774705E+03  0.77599316739E+02  0.17635523822E+03  0.40645533021E+03  0.12500000000E+03 0.  0.
</event>
<event>
 4    0  0.2202290E-002  0.1933620E+03  0.7546771E-02  0.1155463E+00
         21   -1    0    0  502  501  0.00000000000E+00  0.00000000000E+00  0.15253036380E+03  0.15253036380E+03  0.00000000000E+00 0. -1.
         21   -1    0    0  501  502 -0.00000000000E+00 -0.00000000000E+00 -0.24512416446E+03  0.24512416446E+03  0.00000000000E+00 0. -1.
         25    1    1    2    0    0  0.12347704423E+03  0.77520828458E+02 -0.23125138389E+02  0.19343172264E+03  0.12500000000E+03 0.  0.
         25    1    1    2    0    0 -0.12347704423E+03 -0.77520828458E+02 -0.69468662279E+02  0.20422280562E+03  0.12500000000E+03 0.  0.
</event>
<event>
 4    0  0.2202290E-002  0.2275429E+03  0.7546771E-02  0.1128381E+00
         21   -1    0    0  502  501  0.00000000000E+00  0.00000000000E+00  0.85844358181E+02  0.85844358181E+02  0.00000000000E+00 0.  1.
         21   -1    0    0  501  502 -0.00000000000E+00 -0.00000000000E+00 -0.60313563325E+03  0.60313563325E+03  0.00000000000E+00 0.  1.
         25    1    1    2    0    0  0.37191514266E+02  0.57691714730E+02 -0.52708692975E+03  0.54603770401E+03  0.12500000000E+03 0.  0.
         25    1    1    2    0    0 -0.37191514266E+02 -0.57691714730E+02  0.97956546884E+01  0.14294228742E+03  0.12500000000E+03 0.  0.
</event>
<event>
 4    0  0.2202290E-002  0.3472987E+03  0.7546771E-02  0.1063729E+00
         21   -1    0    0  502  501  0.00000000000E+00  0.00000000000E+00  0.15594346486E+03  0.15594346486E+03  0.00000000000E+00 0. -1.
         21   -1    0    0  501  502 -0.00000000000E+00 -0.00000000000E+00 -0.77346239433E+03  0.77346239433E+03  0.00000000000E+00 0. -1.
         25    1    1    2    0    0  0.30856540712E+03  0.39403382311E+02 -0.18740073417E+03  0.38406935855E+03  0.12500000000E+03 0.  0.
         25    1    1    2    0    0 -0.30856540712E+03 -0.39403382311E+02 -0.43011819530E+03  0.54533650064E+03  0.12500000000E+03 0.  0.
</event>
<event>
 4    0  0.2202290E-002  0.3085928E+03  0.7546771E-02  0.1081022E+00
         21   -1    0    0  502  501  0.00000000000E+00  0.00000000000E+00  0.89862365610E+02  0.89862365610E+02  0.00000000000E+00 0. -1.
         21   -1    0    0  501  502 -0.00000000000E+00 -0.00000000000E+00 -0.10597263265E+04  0.10597263265E+04  0.00000000000E+00 0. -1.
         25    1    1    2    0    0  0.27012840174E+03  0.65819794725E+02 -0.57431720412E+03  0.65020523664E+03  0.12500000000E+03 0.  0.
         25    1    1    2    0    0 -0.27012840174E+03 -0.65819794725E+02 -0.39554675675E+03  0.49938345545E+03  0.12500000000E+03 0.  0.
</event>
<event>
 4    0  0.2202290E-002  0.2148096E+03  0.7546771E-02  0.1137813E+00
         21   -1    0    0  502  501  0.00000000000E+00  0.00000000000E+00  0.60702208624E+03  0.60702208624E+03  0.00000000000E+00 0.  1.
         21   -1    0    0  501  502 -0.00000000000E+00 -0.00000000000E+00 -0.76015632135E+02  0.76015632135E+02  0.00000000000E+00 0.  1.
         25    1    1    2    0    0  0.83909310085E+02  0.47134305925E+02  0.33710806318E+02  0.16131904282E+03  0.12500000000E+03 0.  0.
         25    1    1    2    0    0 -0.83909310085E+02 -0.47134305925E+02  0.49729564779E+03  0.52171867555E+03  0.12500000000E+03 0.  0.
</event>
<event>
 4    0  0.2202290E-002  0.1954582E+03  0.7546771E-02  0.1153629E+00
         21   -1    0    0  502  501  0.00000000000E+00  0.00000000000E+00  0.80709932235E+03  0.80709932235E+03  0.00000000000E+00 0.  1.
         21   -1    0    0  501  502 -0.00000000000E+00 -0.00000000000E+00 -0.47334821382E+02  0.47334821382E+02  0.00000000000E+00 0.  1.
         25    1    1    2    0    0 -0.52343823933E+02  0.63851898028E+02  0.10547229254E+03  0.18321120403E+03  0.12500000000E+03 0.  0.
         25    1    1    2    0    0  0.52343823933E+02 -0.63851898028E+02  0.65429220842E+03  0.67122293970E+03  0.12500000000E+03 0.  0.
</event>
<event>
 4    0  0.2202290E-002  0.3220681E+03  0.7546771E-02  0.1074701E+00
         21   -1    0    0  502  501  0.00000000000E+00  0.00000000000E+00  0.33763711546E+03  0.33763711546E+03  0.00000000000E+00 0.  1.
         21   -1    0    0  501  502 -0.00000000000E+00 -0.00000000000E+00 -0.30721693852E+03  0.30721693852E+03  0.00000000000E+00 0.  1.
         25    1    1    2    0    0 -0.26410490337E+03  0.10206405324E+02  0.15044310069E+03  0.32880647384E+03  0.12500000000E+03 0.  0.
         25    1    1    2    0    0  0.26410490337E+03 -0.10206405324E+02 -0.12002292375E+03  0.31604758015E+03  0.12500000000E+03 0.  0.
</event>
<event>
 4    0  0.2202290E-002  0.3881163E+03  0.7546771E-02  0.1047974E+00
         21   -1    0    0  502  501  0.00000000000E+00  0.00000000000E+00  0.46645646669E+03  0.46645646669E+03  0.00000000000E+00 0.  1.
         21   -1    0    0  501  502 -0.00000000000E+00 -0.00000000000E+00 -0.32293321422E+03  0.32293321422E+03  0.00000000000E+00 0.  1.
         25    1    1    2    0    0 -0.16773886583E+03 -0.21707456313E+03 -0.17682300604E+03  0.34949830977E+03  0.12500000000E+03 0.  0.
         25    1    1    2    0    0  0.16773886583E+03  0.21707456313E+03  0.32034625851E+03  0.43989137114E+03  0.12500000000E+03 0.  0.
</event>
<event>
 4    0  0.2202290E-002  0.1149690E+04  0.7546771E-02  0.9158070E-01
         21   -1    0    0  502  501  0.00000000000E+00  0.00000000000E+00  0.11282456384E+04  0.11282456384E+04  0.00000000000E+00 0.  1.
         21   -1    0    0  501  502 -0.00000000000E+00 -0.00000000000E+00 -0.11715413328E+04  0.11715413328E+04  0.00000000000E+00 0. -1.
         25    1    1    2    0    0  0.87430625405E+03  0.41737691630E+03  0.58471573483E+03  0.11384781099E+04  0.12500000000E+03 0.  0.
         25    1    1    2    0    0 -0.87430625405E+03 -0.41737691630E+03 -0.62801142918E+03  0.11613088613E+04  0.12500000000E+03 0.  0.
</event>
<event>
 4    0  0.2202290E-002  0.2155633E+03  0.7546771E-02  0.1137235E+00
         21   -1    0    0  502  501  0.00000000000E+00  0.00000000000E+00  0.53989517123E+02  0.53989517123E+02  0.00000000000E+00 0. -1.
         21   -1    0    0  501  502 -0.00000000000E+00 -0.00000000000E+00 -0.86067703207E+03  0.86067703207E+03  0.00000000000E+00 0. -1.
         25    1    1    2    0    0  0.13885526412E+03 -0.10730328860E+03 -0.38868228459E+03  0.44440263104E+03  0.12500000000E+03 0.  0.
         25    1    1    2    0    0 -0.13885526412E+03  0.10730328860E+03 -0.41800523035E+03  0.47026391815E+03  0.12500000000E+03 0.  0.
</event>
<event>
 4    0  0.2202290E-002  0.2947394E+03  0.7546771E-02  0.1087900E+00
         21   -1    0    0  502  501  0.00000000000E+00  0.00000000000E+00  0.28290155287E+03  0.28290155287E+03  0.00000000000E+00 0.  1.
         21   -1    0    0  501  502 -0.00000000000E+00 -0.00000000000E+00 -0.30707261461E+03  0.30707261461E+03  0.00000000000E+00 0.  1.
         25    1    1    2    0    0 -0.99892340148E+02  0.73199444276E+02 -0.24873650663E+03  0.30468260205E+03  0.12500000000E+03 0.  0.
         25    1    1    2    0    0  0.99892340148E+02 -0.73199444276E+02  0.22456544489E+03  0.28529156542E+03  0.12500000000E+03 0.  0.
</event>
<event>
 4    0  0.2202290E-002  0.2752225E+03  0.7546771E-02  0.1098327E+00
         21   -1    0    0  502  501  0.00000000000E+00  0.00000000000E+00  0.12894476468E+03  0.12894476468E+03  0.00000000000E+00 0.  1.
         21   -1    0    0  501  502 -0.00000000000E+00 -0.00000000000E+00 -0.58744088393E+03  0.58744088393E+03  0.00000000000E+00 0.  1.
         25    1    1    2    0    0 -0.11958725230E+03  0.19060162768E+02 -0.50673223803E+03  0.53578630234E+03  0.12500000000E+03 0.  0.
         25    1    1    2    0    0  0.11958725230E+03 -0.19060162768E+02  0.48236118778E+02  0.18059934627E+03  0.12500000000E+03 0.  0.
</event>
<event>
 4    0  0.2202290E-002  0.1996525E+03  0.7546771E-02  0.1150033E+00
         21   -1    0    0  502  501  0.00000000000E+00  0.00000000000E+00  0.44215371208E+03  0.44215371208E+03  0.00000000000E+00 0. -1.
         21   -1    0    0  501  502 -0.00000000000E+00 -0.00000000000E+00 -0.90152190171E+02  0.90152190171E+02  0.00000000000E+00 0. -1.
         25    1    1    2    0    0  0.11626069199E+02  0.71463391957E+02  0.35972399433E+03  0.38764485547E+03  0.12500000000E+03 0.  0.
         25    1    1    2    0    0 -0.11626069199E+02 -0.71463391957E+02 -0.77224724233E+01  0.14466104678E+03  0.12500000000E+03 0.  0.
</event>
<event>
 4    0  0.2202290E-002  0.2686897E+03  0.7546771E-02  0.1102032E+00
         21   -1    0    0  502  501  0.00000000000E+00  0.00000000000E+00  0.78862818009E+03  0.78862818009E+03  0.00000000000E+00 0.  1.
         21   -1    0    0  501  502 -0.00000000000E+00 -0.00000000000E+00 -0.91543957914E+02  0.91543957914E+02  0.00000000000E+00 0.  1.
         25    1    1    2    0    0  0.77037169494E+02  0.17686735367E+03  0.57639449915E+03  0.62054202511E+03  0.12500000000E+03 0.  0.
         25    1    1    2    0    0 -0.77037169494E+02 -0.17686735367E+03  0.12068972303E+03  0.25963011289E+03  0.12500000000E+03 0.  0.
</event>
<event>
 4    0  0.2202290E-002  0.1444181E+03  0.7546771E-02  0.1207505E+00
         21   -1    0    0  502  501  0.00000000000E+00  0.00000000000E+00  0.34352274618E+02  0.34352274618E+02  0.00000000000E+00 0. -1.
         21   -1    0    0  501  502 -0.00000000000E+00 -0.00000000000E+00 -0.60713809653E+03  0.60713809653E+03  0.00000000000E+00 0. -1.
         25    1    1    2    0    0  0.23423694912E+02 -0.62784210394E+02 -0.34685203397E+03  0.37472904882E+03  0.12500000000E+03 0.  0.
         25    1    1    2    0    0 -0.23423694912E+02  0.62784210394E+02 -0.22593378794E+03  0.26676132233E+03  0.12500000000E+03 0.  0.
</event>
<event>
 4    0  0.2202290E-002  0.1911106E+03  0.7546771E-02  0.1157463E+00
         21   -1    0    0  502  501  0.00000000000E+00  0.00000000000E+00  0.31445644157E+03  0.31445644157E+03  0.00000000000E+00 0. -1.
         21   -1    0    0  501  502 -0.00000000000E+00 -0.00000000000E+00 -0.11614722349E+03  0.11614722349E+03  0.00000000000E+00 0. -1.
         25    1    1    2    0    0  0.23479040989E+02 -0.12967298171E+03  0.16610713354E+03  0.24613599364E+03  0.12500000000E+03 0.  0.
         25    1    1    2    0    0 -0.23479040989E+02  0.12967298171E+03  0.32202084537E+02  0.18446767142E+03  0.12500000000E+03 0.  0.
</event>
<event>
 4    0  0.2202290E-002  0.3312467E+03  0.7546771E-02  0.1070587E+00
         21   -1    0    0  502  501  0.00000000000E+00  0.00000000000E+00  0.23073713524E+03  0.23073713524E+03  0.00000000000E+00 0. -1.
         21   -1    0    0  501  502 -0.00000000000E+00 -0.00000000000E+00 -0.47553848007E+03  0.47553848007E+03  0.00000000000E+00 0. -1.
         25    1    1    2    0    0  0.20201135754E+03 -0.12014716530E+03  0.87744125972E+02  0.28029977086E+03  0.12500000000E+03 0.  0.
         25    1    1    2    0    0 -0.20201135754E+03  0.12014716530E+03 -0.33254547081E+03  0.42597584445E+03  0.12500000000E+03 0.  0.
</event>
<event>
 4    0  0.2202290E-002  0.2218708E+03  0.7546771E-02  0.1132496E+00
         21   -1    0    0  502  501  0.00000000000E+00  0.00000000000E+00  0.88462576880E+03  0.88462576880E+03  0.00000000000E+00 0. -1.
         21   -1    0    0  501  502 -0.00000000000E+00 -0.00000000000E+00 -0.55646885721E+02  0.55646885721E+02  0.00000000000E+00 0. -1.
         25    1    1    2    0    0 -0.31766931917E+02 -0.84229531203E+02  0.76131839660E+02  0.17182784670E+03  0.12500000000E+03 0.  0.
         25    1    1    2    0    0  0.31766931917E+02  0.84229531203E+02  0.75284704342E+03  0.76844480783E+03  0.12500000000E+03 0.  0.
</event>
<event>
 4    0  0.2202290E-002  0.2596537E+03  0.7546771E-02  0.1107351E+00
         21   -1    0    0  502  501  0.00000000000E+00  0.00000000000E+00  0.47259265876E+03  0.47259265876E+03  0.00000000000E+00 0.  1.
         21   -1    0    0  501  502 -0.00000000000E+00 -0.00000000000E+00 -0.14265995399E+03  0.14265995399E+03  0.00000000000E+00 0.  1.
         25    1    1    2    0    0  0.52719756685E+01  0.54048580970E+02  0.42681085872E+03  0.44804190871E+03  0.12500000000E+03 0.  0.
         25    1    1    2    0    0 -0.52719756685E+01 -0.54048580970E+02 -0.96878153961E+02  0.16721070404E+03  0.12500000000E+03 0.  0.
</event>
<event>
 4    0  0.2202290E-002  0.5377196E+03  0.7546771E-02  0.1004377E+00
         21   -1    0    0  502  501  0.00000000000E+00  0.00000000000E+00  0.76039640450E+03  0.76039640450E+03  0.00000000000E+00 0. -1.
         21   -1    0    0  501  502 -0.00000000000E+00 -0.00000000000E+00 -0.38025214694E+03  0.38025214694E+03  0.00000000000E+00 0.  1.
         25    1    1    2    0    0  0.45808338010E+03 -0.25231964409E+03  0.18643190689E+03  0.56911109797E+03  0.12500000000E+03 0.  0.
         25    1    1    2    0    0 -0.45808338010E+03  0.25231964409E+03  0.19371235067E+03  0.57153745347E+03  0.12500000000E+03 0.  0.
</event>
<event>
 4    0  0.2202290E-002  0.2612339E+03  0.7546771E-02  0.1106404E+00
         21   -1    0    0  502  501  0.00000000000E+00  0.00000000000E+00  0.14995300018E+03  0.14995300018E+03  0.00000000000E+00 0. -1.
         21   -1    0    0  501  502 -0.00000000000E+00 -0.00000000000E+00 -0.45509702890E+03  0.45509702890E+03  0.00000000000E+00 0. -1.
         25    1    1    2    0    0 -0.16487083500E+03 -0.12410289547E+03 -0.26857630123E+03  0.36102929310E+03  0.12500000000E+03 0.  0.
         25    1    1    2    0    0  0.16487083500E+03  0.12410289547E+03 -0.36567727492E+02  0.24402073599E+03  0.12500000000E+03 0.  0.
</event>
<event>
 4    0  0.2202290E-002  0.2269450E+03  0.7546771E-02  0.1128809E+00
         21   -1    0    0  502  501  0.00000000000E+00  0.00000000000E+00  0.44752818130E+03  0.44752818130E+03  0.00000000000E+00 0.  1.
         21   -1    0    0  501  502 -0.00000000000E+00 -0.00000000000E+00 -0.11508558264E+03  0.11508558264E+03  0.00000000000E+00 0.  1.
         25    1    1    2    0    0  0.50195543980E+02 -0.91619550963E+02 -0.29630765955E+02  0.16557994155E+03  0.12500000000E+03 0.  0.
         25    1    1    2    0    0 -0.50195543980E+02  0.91619550963E+02  0.36207336461E+03  0.39703382238E+03  0.12500000000E+03 0.  0.
</event>
<event>
 4    0  0.2202290E-002  0.3299438E+03  0.7546771E-02  0.1071162E+00
         21   -1    0    0  502  501  0.00000000000E+00  0.00000000000E+00  0.11272183200E+04  0.11272183200E+04  0.00000000000E+00 0.  1.
         21   -1    0    0  501  502 -0.00000000000E+00 -0.00000000000E+00 -0.96576618885E+02  0.96576618885E+02  0.00000000000E+00 0.  1.
         25    1    1    2    0    0  0.11995795914E+03  0.10189254929E+03  0.10005824183E+04  0.10205695368E+04  0.12500000000E+03 0.  0.
         25    1    1    2    0    0 -0.11995795914E+03 -0.10189254929E+03  0.30059282749E+02  0.20322540206E+03  0.12500000000E+03 0.  0.
</event>
<event>
 4    0  0.2202290E-002  0.2702805E+03  0.7546771E-02  0.1101119E+00
         21   -1    0    0  502  501  0.00000000000E+00  0.00000000000E+00  0.14111145421E+03  0.14111145421E+03  0.00000000000E+00 0. -1.
         21   -1    0    0  501  502 -0.00000000000E+00 -0.00000000000E+00 -0.51768700240E+03  0.51768700240E+03  0.00000000000E+00 0. -1.
         25    1    1    2    0    0 -0.11377580616E+02 -0.14585195066E+03 -0.41960380851E+03  0.46162170332E+03  0.12500000000E+03 0.  0.
         25    1    1    2    0    0  0.11377580616E+02  0.14585195066E+03  0.43028260326E+02  0.19717675329E+03  0.12500000000E+03 0.  0.
</event>
<event>
 4    0  0.2202290E-002  0.2523746E+03  0.7546771E-02  0.1111813E+00
         21   -1    0    0  502  501  0.00000000000E+00  0.00000000000E+00  0.73103710023E+03  0.73103710023E+03  0.00000000000E+00 0.  1.
         21   -1    0    0  501  502 -0.00000000000E+00 -0.00000000000E+00 -0.87126796169E+02  0.87126796169E+02  0.00000000000E+00 0.  1.
         25    1    1    2    0    0 -0.46241823896E+02  0.30321965841E+02  0.66584564498E+03  0.67973020444E+03  0.12500000000E+03 0.  0.
         25    1    1    2    0    0  0.46241823896E+02 -0.30321965841E+02 -0.21935340914E+02  0.13843369196E+03  0.12500000000E+03 0.  0.
</event>
<event>
 4    0  0.2202290E-002  0.1834740E+03  0.7546771E-02  0.1164483E+00
         21   -1    0    0  502  501  0.00000000000E+00  0.00000000000E+00  0.19479449961E+03  0.19479449961E+03  0.00000000000E+00 0. -1.
         21   -1    0    0  501  502 -0.00000000000E+00 -0.00000000000E+00 -0.17281143937E+03  0.17281143937E+03  0.00000000000E+00 0. -1.
         25    1    1    2    0    0 -0.14552388839E+02 -0.13044278369E+03  0.39514070583E+02  0.18550863487E+03  0.12500000000E+03 0.  0.
         25    1    1    2    0    0  0.14552388839E+02  0.13044278369E+03 -0.17531010347E+02  0.18209730410E+03  0.12500000000E+03 0.  0.
</event>
<event>
 4    0  0.2202290E-002  0.2967191E+03  0.7546771E-02  0.1086892E+00
         21   -1    0    0  502  501  0.00000000000E+00  0.00000000000E+00  0.45934814678E+03  0.45934814678E+03  0.00000000000E+00 0.  1.
         21   -1    0    0  501  502 -0.00000000000E+00 -0.00000000000E+00 -0.19166772090E+03  0.19166772090E+03  0.00000000000E+00 0.  1.
         25    1    1    2    0    0 -0.97117589378E+02  0.12680223401E+03 -0.10375242963E+03  0.22781615257E+03  0.12500000000E+03 0.  0.
         25    1    1    2    0    0  0.97117589378E+02 -0.12680223401E+03  0.37143285551E+03  0.42319971511E+03  0.12500000000E+03 0.  0.
</event>
<event>
 4    0  0.2202290E-002  0.1891982E+03  0.7546771E-02  0.1159186E+00
         21   -1    0    0  502  501  0.00000000000E+00  0.00000000000E+00  0.30766770417E+03  0.30766770417E+03  0.00000000000E+00 0. -1.
         21   -1    0    0  501  502 -0.00000000000E+00 -0.00000000000E+00 -0.11634621297E+03  0.11634621297E+03  0.00000000000E+00 0. -1.
         25    1    1    2    0    0 -0.29248236018E+02  0.13526485139E+03  0.13142966557E+03  0.22814643615E+03  0.12500000000E+03 0.  0.
         25    1    1    2    0    0  0.29248236018E+02 -0.13526485139E+03  0.59891825628E+02  0.19586748099E+03  0.12500000000E+03 0.  0.
</event>
<event>
 4    0  0.2202290E-002  0.2082010E+03  0.7546771E-02  0.1142999E+00
         21   -1    0    0  502  501  0.00000000000E+00  0.00000000000E+00  0.98028225832E+03  0.98028225832E+03  0.00000000000E+00 0. -1.
         21   -1    0    0  501  502 -0.00000000000E+00 -0.00000000000E+00 -0.44219576958E+02  0.44219576958E+02  0.00000000000E+00 0. -1.
         25    1    1    2    0    0  0.48560530261E+01  0.12400979596E+03  0.74112825827E+03  0.76177300159E+03  0.12500000000E+03 0.  0.
         25    1    1    2    0    0 -0.48560530261E+01 -0.12400979596E+03  0.19493442310E+03  0.26272883369E+03  0.12500000000E+03 0.  0.
</event>
<event>
 4    0  0.2202290E-002  0.1895923E+03  0.7546771E-02  0.1158830E+00
         21   -1    0    0  502  501  0.00000000000E+00  0.00000000000E+00  0.28334698242E+03  0.28334698242E+03  0.00000000000E+00 0. -1.
         21   -1    0    0  501  502 -0.00000000000E+00 -0.00000000000E+00 -0.12685938230E+03  0.12685938230E+03  0.00000000000E+00 0. -1.
         25    1    1    2    0    0  0.18013787419E+02  0.75490297216E+02  0.20759586890E+03  0.25444906425E+03  0.12500000000E+03 0.  0.
         25    1    1    2    0    0 -0.18013787419E+02 -0.75490297216E+02 -0.51108268781E+02  0.15575730047E+03  0.12500000000E+03 0.  0.
</event>
<event>
 4    0  0.2202290E-002  0.1868517E+03  0.7546771E-02  0.1161332E+00
         21   -1    0    0  502  501  0.00000000000E+00  0.00000000000E+00  0.25044520297E+02  0.25044520297E+02  0.00000000000E+00 0. -1.
         21   -1    0    0  501  502 -0.00000000000E+00 -0.00000000000E+00 -0.13940602800E+04  0.13940602800E+04  0.00000000000E+00 0. -1.
         25    1    1    2    0    0  0.12553607617E+03  0.10461546130E+02 -0.90657742376E+03  0.92378372774E+03  0.12500000000E+03 0.  0.
         25    1    1    2    0    0 -0.12553607617E+03 -0.10461546130E+02 -0.46243833592E+03  0.49532107253E+03  0.12500000000E+03 0.  0.
</event>
<event>
 4    0  0.2202290E-002  0.1510995E+03  0.7546771E-02  0.1199128E+00
         21   -1    0    0  502  501  0.00000000000E+00  0.00000000000E+00  0.38157492237E+02  0.38157492237E+02  0.00000000000E+00 0.  1.
         21   -1    0    0  501  502 -0.00000000000E+00 -0.00000000000E+00 -0.59833714828E+03  0.59833714828E+03  0.00000000000E+00 0.  1.
         25    1    1    2    0    0  0.37469772488E+02 -0.69703827263E+02 -0.21539665179E+03  0.26131078238E+03  0.12500000000E+03 0.  0.
         25    1    1    2    0    0 -0.37469772488E+02  0.69703827263E+02 -0.34478300425E+03  0.37518385814E+03  0.12500000000E+03 0.  0.
</event>
<event>
 4    0  0.2202290E-002  0.2068966E+03  0.7546771E-02  0.1144047E+00
         21   -1    0    0  502  501  0.00000000000E+00  0.00000000000E+00  0.11758363555E+04  0.11758363555E+04  0.00000000000E+00 0. -1.
         21   -1    0    0  501  502 -0.00000000000E+00 -0.00000000000E+00 -0.36404914632E+02  0.36404914632E+02  0.00000000000E+00 0. -1.
         25    1    1    2    0    0  0.10835785977E+03  0.10898286290E+03  0.74457351796E+03  0.77047609556E+03  0.12500000000E+03 0.  0.
         25    1    1    2    0    0 -0.10835785977E+03 -0.10898286290E+03  0.39485792290E+03  0.44176517457E+03  0.12500000000E+03 0.  0.
</event>
<event>
 4    0  0.2202290E-002  0.2113311E+03  0.7546771E-02  0.1140516E+00
         21   -1    0    0  502  501  0.00000000000E+00  0.00000000000E+00  0.21451645239E+03  0.21451645239E+03  0.00000000000E+00 0.  1.
         21   -1    0    0  501  502 -0.00000000000E+00 -0.00000000000E+00 -0.20819310755E+03  0.20819310755E+03  0.00000000000E+00 0.  1.
         25    1    1    2    0    0 -0.15175915860E+03  0.75109535365E+02 -0.15907771636E+02  0.21106951869E+03  0.12500000000E+03 0.  0.
         25    1    1    2    0    0  0.15175915860E+03 -0.75109535365E+02  0.22231116474E+02  0.21164004125E+03  0.12500000000E+03 0.  0.
</event>
<event>
 4    0  0.2202290E-002  0.1819352E+03  0.7546771E-02  0.1165943E+00
         21   -1    0    0  502  501  0.00000000000E+00  0.00000000000E+00  0.35678645140E+02  0.35678645140E+02  0.00000000000E+00 0. -1.
         21   -1    0    0  501  502 -0.00000000000E+00 -0.00000000000E+00 -0.92773746471E+03  0.92773746471E+03  0.00000000000E+00 0. -1.
         25    1    1    2    0    0  0.93224212693E+02  0.65176534181E+02 -0.26769451833E+03  0.31658188449E+03  0.12500000000E+03 0.  0.
         25    1    1    2    0    0 -0.93224212693E+02 -0.65176534181E+02 -0.62436430124E+03  0.64683422536E+03  0.12500000000E+03 0.  0.
</event>
<event>
 4    0  0.2202290E-002  0.2652021E+03  0.7546771E-02  0.1104057E+00
         21   -1    0    0  502  501  0.00000000000E+00  0.00000000000E+00  0.75515804526E+02  0.75515804526E+02  0.00000000000E+00 0. -1.
         21   -1    0    0  501  502 -0.00000000000E+00 -0.00000000000E+00 -0.93135640296E+03  0.93135640296E+03  0.00000000000E+00 0. -1.
         25    1    1    2    0    0  0.12123802730E+03  0.12348156424E+03 -0.72663016721E+03  0.75733926075E+03  0.12500000000E+03 0.  0.
         25    1    1    2    0    0 -0.12123802730E+03 -0.12348156424E+03 -0.12921043123E+03  0.24953294674E+03  0.12500000000E+03 0.  0.
</event>
<event>
 4    0  0.2202290E-002  0.2517894E+03  0.7546771E-02  0.1112179E+00
         21   -1    0    0  502  501  0.00000000000E+00  0.00000000000E+00  0.20792005181E+03  0.20792005181E+03  0.00000000000E+00 0.  1.
         21   -1    0    0  501  502 -0.00000000000E+00 -0.00000000000E+00 -0.30491492217E+03  0.30491492217E+03  0.00000000000E+00 0.  1.
         25    1    1    2    0    0  0.19340138989E+03 -0.95362147286E+02 -0.12135548121E+02  0.24954019371E+03  0.12500000000E+03 0.  0.
         25    1    1    2    0    0 -0.19340138989E+03  0.95362147286E+02 -0.84859322241E+02  0.26329478027E+03  0.12500000000E+03 0.  0.
</event>
<event>
 4    0  0.2202290E-002  0.2467852E+03  0.7546771E-02  0.1115354E+00
         21   -1    0    0  502  501  0.00000000000E+00  0.00000000000E+00  0.65685525205E+03  0.65685525205E+03  0.00000000000E+00 0. -1.
         21   -1    0    0  501  502 -0.00000000000E+00 -0.00000000000E+00 -0.92718933463E+02  0.92718933463E+02  0.00000000000E+00 0. -1.
         25    1    1    2    0    0  0.61253990978E+02 -0.88303044401E+02  0.31584089095E+01  0.16487708940E+03  0.12500000000E+03 0.  0.
         25    1    1    2    0    0 -0.61253990978E+02  0.88303044401E+02  0.56097790968E+03  0.58469709612E+03  0.12500000000E+03 0.  0.
</event>
<event>
 4    0  0.2202290E-002  0.2699212E+03  0.7546771E-02  0.1101325E+00
         21   -1    0    0  502  501  0.00000000000E+00  0.00000000000E+00  0.45267739358E+03  0.45267739358E+03  0.00000000000E+00 0.  1.
         21   -1    0    0  501  502 -0.00000000000E+00 -0.00000000000E+00 -0.16094786660E+03  0.16094786660E+03  0.00000000000E+00 0.  1.
         25    1    1    2    0    0  0.62224477778E+02  0.15035846372E+03  0.34519781217E+03  0.40157948500E+03  0.12500000000E+03 0.  0.
         25    1    1    2    0    0 -0.62224477778E+02 -0.15035846372E+03 -0.53468285188E+02  0.21204577517E+03  0.12500000000E+03 0.  0.
</event>
<event>
 4    0  0.2202290E-002  0.1878674E+03  0.7546771E-02  0.1160399E+00
         21   -1    0    0  502  501  0.00000000000E+00  0.00000000000E+00  0.93799617090E+02  0.93799617090E+02  0.00000000000E+00 0.  1.
         21   -1    0    0  501  502 -0.00000000000E+00 -0.00000000000E+00 -0.37627180566E+03  0.37627180566E+03  0.00000000000E+00 0.  1.
         25    1    1    2    0    0 -0.35124405338E+02 -0.35772028330E+02 -0.30510171075E+03  0.33350474624E+03  0.12500000000E+03 0.  0.
         25    1    1    2    0    0  0.35124405338E+02  0.35772028330E+02  0.22629522174E+02  0.13656667652E+03  0.12500000000E+03 0.  0.
</event>
<event>
 4    0  0.2202290E-002  0.1852116E+03  0.7546771E-02  0.1162852E+00
         21   -1    0    0  502  501  0.00000000000E+00  0.00000000000E+00  0.10617175431E+03  0.10617175431E+03  0.00000000000E+00 0.  1.
         21   -1    0    0  501  502 -0.00000000000E+00 -0.00000000000E+00 -0.32309292682E+03  0.32309292682E+03  0.00000000000E+00 0.  1.
         25    1    1    2    0    0  0.57072125081E+02 -0.12361579934E+03 -0.12218448992E+03  0.22156746802E+03  0.12500000000E+03 0.  0.
         25    1    1    2    0    0 -0.57072125081E+02  0.12361579934E+03 -0.94736682586E+02  0.20769721311E+03  0.12500000000E+03 0.  0.
</event>
<event>
 4    0  0.2202290E-002  0.2556886E+03  0.7546771E-02  0.1109762E+00
         21   -1    0    0  502  501  0.00000000000E+00  0.00000000000E+00  0.93590384765E+02  0.93590384765E+02  0.00000000000E+00 0.  1.
         21   -1    0    0  501  502 -0.00000000000E+00 -0.00000000000E+00 -0.69854061799E+03  0.69854061799E+03  0.00000000000E+00 0.  1.
         25    1    1    2    0    0 -0.58377988756E+02  0.21330657638E+03 -0.25747363430E+03  0.36169788147E+03  0.12500000000E+03 0.  0.
         25    1    1    2    0    0  0.58377988756E+02 -0.21330657638E+03 -0.34747659893E+03  0.43043312129E+03  0.12500000000E+03 0.  0.
</event>
<event>
 4    0  0.2202290E-002  0.3867564E+03  0.7546771E-02  0.1048464E+00
         21   -1    0    0  502  501  0.00000000000E+00  0.00000000000E+00  0.12184971659E+03  0.12184971659E+03  0.00000000000E+00 0.  1.
         21   -1    0    0  501  502 -0.00000000000E+00 -0.00000000000E+00 -0.12275816351E+04  0.12275816351E+04  0.00000000000E+00 0.  1.
         25    1    1    2    0    0 -0.15507057079E+03  0.28698253506E+03 -0.84242766746E+03  0.91198422808E+03  0.12500000000E+03 0.  0.
         25    1    1    2    0    0  0.15507057079E+03 -0.28698253506E+03 -0.26330425107E+03  0.43744712365E+03  0.12500000000E+03 0.  0.
</event>
<event>
 4    0  0.2202290E-002  0.2056434E+03  0.7546771E-02  0.1145063E+00
         21   -1    0    0  502  501  0.00000000000E+00  0.00000000000E+00  0.24729829443E+03  0.24729829443E+03  0.00000000000E+00 0. -1.
         21   -1    0    0  501  502 -0.00000000000E+00 -0.00000000000E+00 -0.17100483648E+03  0.17100483648E+03  0.00000000000E+00 0. -1.
         25    1    1    2    0    0  0.42604577619E+02  0.70939741626E+02 -0.10502623476E+03  0.18303853956E+03  0.12500000000E+03 0.  0.
         25    1    1    2    0    0 -0.42604577619E+02 -0.70939741626E+02  0.18131969272E+03  0.23526459135E+03  0.12500000000E+03 0.  0.
</event>
<event>
 4    0  0.2202290E-002  0.2663289E+03  0.7546771E-02  0.1103399E+00
         21   -1    0    0  502  501  0.00000000000E+00  0.00000000000E+00  0.52580569211E+02  0.52580569211E+02  0.00000000000E+00 0.  1.
         21   -1    0    0  501  502 -0.00000000000E+00 -0.00000000000E+00 -0.13489982442E+04  0.13489982442E+04  0.00000000000E+00 0.  1.
         25    1    1    2    0    0  0.22686691583E+03 -0.34456896098E+02 -0.78366856187E+03  0.82608552224E+03  0.12500000000E+03 0.  0.
         25    1    1    2    0    0 -0.22686691583E+03  0.34456896098E+02 -0.51274911316E+03  0.57549329121E+03  0.12500000000E+03 0.  0.
</event>
<event>
 4    0  0.2202290E-002  0.2915145E+03  0.7546771E-02  0.1089561E+00
         21   -1    0    0  502  501  0.00000000000E+00  0.00000000000E+00  0.57934993182E+03  0.57934993182E+03  0.00000000000E+00 0. -1.
         21   -1    0    0  501  502 -0.00000000000E+00 -0.00000000000E+00 -0.14668282875E+03  0.14668282875E+03  0.00000000000E+00 0. -1.
         25    1    1    2    0    0  0.11413034294E+03  0.86703142712E+02 -0.58792492430E+02  0.19905960741E+03  0.12500000000E+03 0.  0.
         25    1    1    2    0    0 -0.11413034294E+03 -0.86703142712E+02  0.49145959550E+03  0.52697315316E+03  0.12500000000E+03 0.  0.
</event>
<event>
 4    0  0.2202290E-002  0.2173029E+03  0.7546771E-02  0.1135910E+00
         21   -1    0    0  502  501  0.00000000000E+00  0.00000000000E+00  0.11358878272E+03  0.11358878272E+03  0.00000000000E+00 0. -1.
         21   -1    0    0  501  502 -0.00000000000E+00 -0.00000000000E+00 -0.41571479498E+03  0.41571479498E+03  0.00000000000E+00 0. -1.
         25    1    1    2    0    0  0.13329954741E+03  0.48310829129E+01 -0.29415088991E+03  0.34632622588E+03  0.12500000000E+03 0.  0.
         25    1    1    2    0    0 -0.13329954741E+03 -0.48310829129E+01 -0.79751223506E+01  0.18297735182E+03  0.12500000000E+03 0.  0.
</event>
<event>
 4    0  0.2202290E-002  0.1871081E+03  0.7546771E-02  0.1161096E+00
         21   -1    0    0  502  501  0.00000000000E+00  0.00000000000E+00  0.18792637300E+02  0.18792637300E+02  0.00000000000E+00 0.  1.
         21   -1    0    0  501  502 -0.00000000000E+00 -0.00000000000E+00 -0.18629338024E+04  0.18629338024E+04  0.00000000000E+00 0.  1.
         25    1    1    2    0    0  0.98808580878E+01  0.81168192447E+02 -0.35542607905E+03  0.38553677450E+03  0.12500000000E+03 0.  0.
         25    1    1    2    0    0 -0.98808580878E+01 -0.81168192447E+02 -0.14887150861E+04  0.14961896652E+04  0.12500000000E+03 0.  0.
</event>
<event>
 4    0  0.2202290E-002  0.1951308E+03  0.7546771E-02  0.1153913E+00
         21   -1    0    0  502  501  0.00000000000E+00  0.00000000000E+00  0.14053564933E+03  0.14053564933E+03  0.00000000000E+00 0. -1.
         21   -1    0    0  501  502 -0.00000000000E+00 -0.00000000000E+00 -0.27093500056E+03  0.27093500056E+03  0.00000000000E+00 0. -1.
         25    1    1    2    0    0 -0.23724022808E+02 -0.76092250262E+02 -0.19897353744E+03  0.24812966048E+03  0.12500000000E+03 0.  0.
         25    1    1    2    0    0  0.23724022808E+02  0.76092250262E+02  0.68574186209E+02  0.16334098941E+03  0.12500000000E+03 0.  0.
</event>
<event>
 4    0  0.2202290E-002  0.3588208E+03  0.7546771E-02  0.1059052E+00
         21   -1    0    0  502  501  0.00000000000E+00  0.00000000000E+00  0.16220419307E+04  0.16220419307E+04  0.00000000000E+00 0.  1.
         21   -1    0    0  501  502 -0.00000000000E+00 -0.00000000000E+00 -0.79376734166E+02  0.79376734166E+02  0.00000000000E+00 0.  1.
         25    1    1    2    0    0 -0.26667555582E+03 -0.17409291117E+02  0.12555223579E+04  0.12897210267E+04  0.12500000000E+03 0.  0.
         25    1    1    2    0    0  0.26667555582E+03  0.17409291117E+02  0.28714283858E+03  0.41169763813E+03  0.12500000000E+03 0.  0.
</event>
<event>
 4    0  0.2202290E-002  0.2579602E+03  0.7546771E-02  0.1108375E+00
         21   -1    0    0  502  501  0.00000000000E+00  0.00000000000E+00  0.69799063560E+03  0.69799063560E+03  0.00000000000E+00 0. -1.
         21   -1    0    0  501  502 -0.00000000000E+00 -0.00000000000E+00 -0.95335754346E+02  0.95335754346E+02  0.00000000000E+00 0. -1.
         25    1    1    2    0    0 -0.15162741604E+01  0.21335343928E+03  0.41428733401E+03  0.48247381718E+03  0.12500000000E+03 0.  0.
         25    1    1    2    0    0  0.15162741604E+01 -0.21335343928E+03  0.18836754725E+03  0.31085257277E+03  0.12500000000E+03 0.  0.
</event>
<event>
 4    0  0.2202290E-002  0.2138210E+03  0.7546771E-02  0.1138575E+00
         21   -1    0    0  502  501  0.00000000000E+00  0.00000000000E+00  0.86047676356E+03  0.86047676356E+03  0.00000000000E+00 0.  1.
         21   -1    0    0  501  502 -0.00000000000E+00 -0.00000000000E+00 -0.53132683856E+02  0.53132683856E+02  0.00000000000E+00 0.  1.
         25    1    1    2    0    0  0.25372545843E+02 -0.22869539023E+01  0.77026927612E+03  0.78076164991E+03  0.12500000000E+03 0.  0.
         25    1    1    2    0    0 -0.25372545843E+02  0.22869539023E+01  0.37074803585E+02  0.13284779750E+03  0.12500000000E+03 0.  0.
</event>
<event>
 4    0  0.2202290E-002  0.1975391E+03  0.7546771E-02  0.1151832E+00
         21   -1    0    0  502  501  0.00000000000E+00  0.00000000000E+00  0.16424059045E+03  0.16424059045E+03  0.00000000000E+00 0.  1.
         21   -1    0    0  501  502 -0.00000000000E+00 -0.00000000000E+00 -0.23758872241E+03  0.23758872241E+03  0.00000000000E+00 0.  1.
         25    1    1    2    0    0 -0.14945021428E+02  0.12105760793E+03  0.57198314123E+02  0.18377961052E+03  0.12500000000E+03 0.  0.
         25    1    1    2    0    0  0.14945021428E+02 -0.12105760793E+03 -0.13054644608E+03  0.21804970234E+03  0.12500000000E+03 0.  0.
</event>
<event>
 4    0  0.2202290E-002  0.1948409E+03  0.7546771E-02  0.1154166E+00
         21   -1    0    0  502  501  0.00000000000E+00  0.00000000000E+00  0.28352586762E+02  0.28352586762E+02  0.00000000000E+00 0.  1.
         21   -1    0    0  501  502 -0.00000000000E+00 -0.00000000000E+00 -0.13389604098E+04  0.13389604098E+04  0.00000000000E+00 0.  1.
         25    1    1    2    0    0  0.21242895763E+02  0.92408416238E+02 -0.24992951147E+03  0.29509377613E+03  0.12500000000E+03 0.  0.
         25    1    1    2    0    0 -0.21242895763E+02 -0.92408416238E+02 -0.10606783115E+04  0.10722192204E+04  0.12500000000E+03 0.  0.
</event>
<event>
 4    0  0.2202290E-002  0.2237988E+03  0.7546771E-02  0.1131082E+00
         21   -1    0    0  502  501  0.00000000000E+00  0.00000000000E+00  0.68893324461E+03  0.68893324461E+03  0.00000000000E+00 0.  1.
         21   -1    0    0  501  502 -0.00000000000E+00 -0.00000000000E+00 -0.72700686800E+02  0.72700686800E+02  0.00000000000E+00 0.  1.
         25    1    1    2    0    0  0.99930615406E+02 -0.15369730945E+03  0.25845016089E+03  0.34063246541E+03  0.12500000000E+03 0.  0.
         25    1    1    2    0    0 -0.99930615406E+02  0.15369730945E+03  0.35778239692E+03  0.42100146600E+03  0.12500000000E+03 0.  0.
</event>
<event>
 4    0  0.2202290E-002  0.2596945E+03  0.7546771E-02  0.1107327E+00
         21   -1    0    0  502  501  0.00000000000E+00  0.00000000000E+00  0.20658089275E+03  0.20658089275E+03  0.00000000000E+00 0.  1.
         21   -1    0    0  501  502 -0.00000000000E+00 -0.00000000000E+00 -0.32646402217E+03  0.32646402217E+03  0.00000000000E+00 0.  1.
         25    1    1    2    0    0 -0.66663114567E+02  0.21750220253E+03 -0.51664137013E+02  0.26466084335E+03  0.12500000000E+03 0.  0.
         25    1    1    2    0    0  0.66663114567E+02 -0.21750220253E+03 -0.68218992412E+02  0.26838407157E+03  0.12500000000E+03 0.  0.
</event>
<event>
 4    0  0.2202290E-002  0.1967037E+03  0.7546771E-02  0.1152550E+00
         21   -1    0    0  502  501  0.00000000000E+00  0.00000000000E+00  0.43478904701E+02  0.43478904701E+02  0.00000000000E+00 0.  1.
         21   -1    0    0  501  502 -0.00000000000E+00 -0.00000000000E+00 -0.88991070226E+03  0.88991070226E+03  0.00000000000E+00 0.  1.
         25    1    1    2    0    0 -0.55364415838E+02  0.46631178099E+02 -0.10642872353E+03  0.17942061895E+03  0.12500000000E+03 0.  0.
         25    1    1    2    0    0  0.55364415838E+02 -0.46631178099E+02 -0.74000307402E+03  0.75396898801E+03  0.12500000000E+03 0.  0.
</event>
<event>
 4    0  0.2202290E-002  0.3015729E+03  0.7546771E-02  0.1084457E+00
         21   -1    0    0  502  501  0.00000000000E+00  0.00000000000E+00  0.35767799273E+03  0.35767799273E+03  0.00000000000E+00 0. -1.
         21   -1    0    0  501  502 -0.00000000000E+00 -0.00000000000E+00 -0.25426844899E+03  0.25426844899E+03  0.00000000000E+00 0. -1.
         25    1    1    2    0    0  0.34955188433E+02 -0.26058998446E+03 -0.28134096805E+02  0.29248167909E+03  0.12500000000E+03 0.  0.
         25    1    1    2    0    0 -0.34955188433E+02  0.26058998446E+03  0.13154364055E+03  0.31946476264E+03  0.12500000000E+03 0.  0.
</event>
<event>
 4    0  0.2202290E-002  0.2508454E+03  0.7546771E-02  0.1112772E+00
         21   -1    0    0  502  501  0.00000000000E+00  0.00000000000E+00  0.10925864726E+03  0.10925864726E+03  0.00000000000E+00 0. -1.
         21   -1    0    0  501  502 -0.00000000000E+00 -0.00000000000E+00 -0.57591243723E+03  0.57591243723E+03  0.00000000000E+00 0. -1.
         25    1    1    2    0    0 -0.61409868254E+02  0.14630033485E+03 -0.43646404630E+03  0.48093744251E+03  0.12500000000E+03 0.  0.
         25    1    1    2    0    0  0.61409868254E+02 -0.14630033485E+03 -0.30189743679E+02  0.20423364199E+03  0.12500000000E+03 0.  0.
</event>
<event>
 4    0  0.2202290E-002  0.1763106E+03  0.7546771E-02  0.1171422E+00
         21   -1    0    0  502  501  0.00000000000E+00  0.00000000000E+00  0.18050778037E+03  0.18050778037E+03  0.00000000000E+00 0.  1.
         21   -1    0    0  501  502 -0.00000000000E+00 -0.00000000000E+00 -0.17221108925E+03  0.17221108925E+03  0.00000000000E+00 0.  1.
         25    1    1    2    0    0 -0.23675332136E+02 -0.64789054707E+02 -0.99332199776E+02  0.17392535432E+03  0.12500000000E+03 0.  0.
         25    1    1    2    0    0  0.23675332136E+02  0.64789054707E+02  0.10762889089E+03  0.17879351530E+03  0.12500000000E+03 0.  0.
</event>
<event>
 4    0  0.2202290E-002  0.4646200E+03  0.7546771E-02  0.1023450E+00
         21   -1    0    0  502  501  0.00000000000E+00  0.00000000000E+00  0.39861272118E+03  0.39861272118E+03  0.00000000000E+00 0. -1.
         21   -1    0    0  501  502 -0.00000000000E+00 -0.00000000000E+00 -0.54155764907E+03  0.54155764907E+03  0.00000000000E+00 0.  1.
         25    1    1    2    0    0 -0.18980850685E+03 -0.23896877314E+03 -0.40260403677E+03  0.52043093128E+03  0.12500000000E+03 0.  0.
         25    1    1    2    0    0  0.18980850685E+03  0.23896877314E+03  0.25965910888E+03  0.41973943898E+03  0.12500000000E+03 0.  0.
</event>
<event>
 4    0  0.2202290E-002  0.2420570E+03  0.7546771E-02  0.1118430E+00
         21   -1    0    0  502  501  0.00000000000E+00  0.00000000000E+00  0.21023045029E+03  0.21023045029E+03  0.00000000000E+00 0. -1.
         21   -1    0    0  501  502 -0.00000000000E+00 -0.00000000000E+00 -0.27870179375E+03  0.27870179375E+03  0.00000000000E+00 0. -1.
         25    1    1    2    0    0 -0.50900336220E+02 -0.12587193689E+02 -0.23677416036E+03  0.27283013889E+03  0.12500000000E+03 0.  0.
         25    1    1    2    0    0  0.50900336220E+02  0.12587193689E+02  0.16830281690E+03  0.21610210515E+03  0.12500000000E+03 0.  0.
</event>
<event>
 4    0  0.2202290E-002  0.3174196E+03  0.7546771E-02  0.1076843E+00
         21   -1    0    0  502  501  0.00000000000E+00  0.00000000000E+00  0.27809378968E+03  0.27809378968E+03  0.00000000000E+00 0.  1.
         21   -1    0    0  501  502 -0.00000000000E+00 -0.00000000000E+00 -0.36230662361E+03  0.36230662361E+03  0.00000000000E+00 0.  1.
         25    1    1    2    0    0 -0.25200334936E+03 -0.17030878084E+02 -0.18944920663E+03  0.33957582480E+03  0.12500000000E+03 0.  0.
         25    1    1    2    0    0  0.25200334936E+03  0.17030878084E+02  0.10523637270E+03  0.30082458849E+03  0.12500000000E+03 0.  0.
</event>
<event>
 4    0  0.2202290E-002  0.2067750E+03  0.7546771E-02  0.1144146E+00
         21   -1    0    0  502  501  0.00000000000E+00  0.00000000000E+00  0.35258109571E+03  0.35258109571E+03  0.00000000000E+00 0.  1.
         21   -1    0    0  501  502 -0.00000000000E+00 -0.00000000000E+00 -0.12126541942E+03  0.12126541942E+03  0.00000000000E+00 0.  1.
         25    1    1    2    0    0 -0.16135683221E+03  0.71426140509E+01  0.15267718822E+03  0.25499483924E+03  0.12500000000E+03 0.  0.
         25    1    1    2    0    0  0.16135683221E+03 -0.71426140509E+01  0.78638488073E+02  0.21885167589E+03  0.12500000000E+03 0.  0.
</event>
<event>
 4    0  0.2202290E-002  0.2274645E+03  0.7546771E-02  0.1128437E+00
         21   -1    0    0  502  501  0.00000000000E+00  0.00000000000E+00  0.27684106551E+03  0.27684106551E+03  0.00000000000E+00 0.  1.
         21   -1    0    0  501  502 -0.00000000000E+00 -0.00000000000E+00 -0.18689458493E+03  0.18689458493E+03  0.00000000000E+00 0.  1.
         25    1    1    2    0    0 -0.86963753712E+02  0.16693878608E+03  0.18316615287E+02  0.22669748820E+03  0.12500000000E+03 0.  0.
         25    1    1    2    0    0  0.86963753712E+02 -0.16693878608E+03  0.71629865294E+02  0.23703816225E+03  0.12500000000E+03 0.  0.
</event>
<event>
 4    0  0.2202290E-002  0.1951475E+03  0.7546771E-02  0.1153899E+00
         21   -1    0    0  502  501  0.00000000000E+00  0.00000000000E+00  0.58144562576E+03  0.58144562576E+03  0.00000000000E+00 0. -1.
         21   -1    0    0  501  502 -0.00000000000E+00 -0.00000000000E+00 -0.65496296365E+02  0.65496296365E+02  0.00000000000E+00 0. -1.
         25    1    1    2    0    0 -0.48969539413E+02 -0.13709331077E+03  0.19902139237E+03  0.27645452839E+03  0.12500000000E+03 0.  0.
         25    1    1    2    0    0  0.48969539413E+02  0.13709331077E+03  0.31692793702E+03  0.37048739373E+03  0.12500000000E+03 0.  0.
</event>
<event>
 4    0  0.2202290E-002  0.1917216E+03  0.7546771E-02  0.1156918E+00
         21   -1    0    0  502  501  0.00000000000E+00  0.00000000000E+00  0.12219716059E+03  0.12219716059E+03  0.00000000000E+00 0. -1.
         21   -1    0    0  501  502 -0.00000000000E+00 -0.00000000000E+00 -0.30080202143E+03  0.30080202143E+03  0.00000000000E+00 0. -1.
         25    1    1    2    0    0 -0.87086264451E+02 -0.17498101779E+02 -0.21624713881E+03  0.26510003030E+03  0.12500000000E+03 0.  0.
         25    1    1    2    0    0  0.87086264451E+02  0.17498101779E+02  0.37642277978E+02  0.15789915172E+03  0.12500000000E+03 0.  0.
</event>
<event>
 4    0  0.2202290E-002  0.1596768E+03  0.7546771E-02  0.1189062E+00
         21   -1    0    0  502  501  0.00000000000E+00  0.00000000000E+00  0.51595315175E+03  0.51595315175E+03  0.00000000000E+00 0. -1.
         21   -1    0    0  501  502 -0.00000000000E+00 -0.00000000000E+00 -0.49416638722E+02  0.49416638722E+02  0.00000000000E+00 0. -1.
         25    1    1    2    0    0  0.40063011022E+02 -0.85081183865E+02  0.29002519150E+03  0.32952005160E+03  0.12500000000E+03 0.  0.
         25    1    1    2    0    0 -0.40063011022E+02  0.85081183865E+02  0.17651132153E+03  0.23584973887E+03  0.12500000000E+03 0.  0.
</event>
<event>
 4    0  0.2202290E-002  0.1766928E+03  0.7546771E-02  0.1171043E+00
         21   -1    0    0  502  501  0.00000000000E+00  0.00000000000E+00  0.43136901405E+03  0.43136901405E+03  0.00000000000E+00 0.  1.
         21   -1    0    0  501  502 -0.00000000000E+00 -0.00000000000E+00 -0.72375027337E+02  0.72375027337E+02  0.00000000000E+00 0.  1.
         25    1    1    2    0    0 -0.64835165765E+02 -0.10346268537E+03  0.21686572950E+03  0.27850290953E+03  0.12500000000E+03 0.  0.
         25    1    1    2    0    0  0.64835165765E+02  0.10346268537E+03  0.14212825721E+03  0.22524113186E+03  0.12500000000E+03 0.  0.
</event>
<event>
 4    0  0.2202290E-002  0.1583598E+03  0.7546771E-02  0.1190561E+00
         21   -1    0    0  502  501  0.00000000000E+00  0.00000000000E+00  0.34936570780E+02  0.34936570780E+02  0.00000000000E+00 0. -1.
         21   -1    0    0  501  502 -0.00000000000E+00 -0.00000000000E+00 -0.71781060150E+03  0.71781060150E+03  0.00000000000E+00 0. -1.
         25    1    1    2    0    0  0.40386402557E+02  0.78046430940E+02 -0.44030692403E+03  0.46606597627E+03  0.12500000000E+03 0.  0.
         25    1    1    2    0    0 -0.40386402557E+02 -0.78046430940E+02 -0.24256710669E+03  0.28668119601E+03  0.12500000000E+03 0.  0.
</event>
<event>
 4    0  0.2202290E-002  0.2195503E+03  0.7546771E-02  0.1134219E+00
         21   -1    0    0  502  501  0.00000000000E+00  0.00000000000E+00  0.47011982517E+03  0.47011982517E+03  0.00000000000E+00 0. -1.
         21   -1    0    0  501  502 -0.00000000000E+00 -0.00000000000E+00 -0.10253199566E+03  0.10253199566E+03  0.00000000000E+00 0.  1.
         25    1    1    2    0    0 -0.39729387413E+02 -0.14566058544E+03  0.54809235764E+02  0.20353005355E+03  0.12500000000E+03 0.  0.
         25    1    1    2    0    0  0.39729387413E+02  0.14566058544E+03  0.31277859375E+03  0.36912176728E+03  0.12500000000E+03 0.  0.
</event>
<event>
 4    0  0.2202290E-002  0.2155278E+03  0.7546771E-02  0.1137262E+00
         21   -1    0    0  502  501  0.00000000000E+00  0.00000000000E+00  0.19243551995E+03  0.19243551995E+03  0.00000000000E+00 0.  1.
         21   -1    0    0  501  502 -0.00000000000E+00 -0.00000000000E+00 -0.24139114803E+03  0.24139114803E+03  0.00000000000E+00 0.  1.
         25    1    1    2    0    0 -0.22809307109E+02 -0.12697673683E+03 -0.14433950678E+03  0.23043925317E+03  0.12500000000E+03 0.  0.
         25    1    1    2    0    0  0.22809307109E+02  0.12697673683E+03  0.95383878688E+02  0.20338741480E+03  0.12500000000E+03 0.  0.
</event>
<event>
 4    0  0.2202290E-002  0.1854848E+03  0.7546771E-02  0.1162598E+00
         21   -1    0    0  502  501  0.00000000000E+00  0.00000000000E+00  0.36220892159E+03  0.36220892159E+03  0.00000000000E+00 0.  1.
         21   -1    0    0  501  502 -0.00000000000E+00 -0.00000000000E+00 -0.94985495935E+02  0.94985495935E+02  0.00000000000E+00 0.  1.
         25    1    1    2    0    0  0.13218937336E+03  0.25071071223E+02  0.10154468973E+03  0.20985450449E+03  0.12500000000E+03 0.  0.
         25    1    1    2    0    0 -0.13218937336E+03 -0.25071071223E+02  0.16567873592E+03  0.24733991303E+03  0.12500000000E+03 0.  0.
</event>
<event>
 4    0  0.2202290E-002  0.2179331E+03  0.7546771E-02  0.1135433E+00
         21   -1    0    0  502  501  0.00000000000E+00  0.00000000000E+00  0.28117274218E+03  0.28117274218E+03  0.00000000000E+00 0. -1.
         21   -1    0    0  501  502 -0.00000000000E+00 -0.00000000000E+00 -0.16891692733E+03  0.16891692733E+03  0.00000000000E+00 0. -1.
         25    1    1    2    0    0 -0.78642715997E+02  0.16015236185E+03  0.49899508351E+02  0.22349142427E+03  0.12500000000E+03 0.  0.
         25    1    1    2    0    0  0.78642715997E+02 -0.16015236185E+03  0.62356306496E+02  0.22659824524E+03  0.12500000000E+03 0.  0.
</event>
<event>
 4    0  0.2202290E-002  0.1953044E+03  0.7546771E-02  0.1153762E+00
         21   -1    0    0  502  501  0.00000000000E+00  0.00000000000E+00  0.13697374418E+03  0.13697374418E+03  0.00000000000E+00 0.  1.
         21   -1    0    0  501  502 -0.00000000000E+00 -0.00000000000E+00 -0.27847521976E+03  0.27847521976E+03  0.00000000000E+00 0.  1.
         25    1    1    2    0    0 -0.11115813882E+03  0.16484194025E+02 -0.17652849974E+03  0.24375227527E+03  0.12500000000E+03 0.  0.
         25    1    1    2    0    0  0.11115813882E+03 -0.16484194025E+02  0.35027024159E+02  0.17169668867E+03  0.12500000000E+03 0.  0.
</event>
<event>
 4    0  0.2202290E-002  0.1717171E+03  0.7546771E-02  0.1176069E+00
         21   -1    0    0  502  501  0.00000000000E+00  0.00000000000E+00  0.13561603526E+02  0.13561603526E+02  0.00000000000E+00 0.  1.
         21   -1    0    0  501  502 -0.00000000000E+00 -0.00000000000E+00 -0.21742827945E+04  0.21742827945E+04  0.00000000000E+00 0.  1.
         25    1    1    2    0    0  0.42301401135E+02 -0.56295754811E+02 -0.16814575350E+04  0.16875672023E+04  0.12500000000E+03 0.  0.
         25    1    1    2    0    0 -0.42301401135E+02  0.56295754811E+02 -0.47926365607E+03  0.50027719574E+03  0.12500000000E+03 0.  0.
</event>
<event>
 4    0  0.2202290E-002  0.2476347E+03  0.7546771E-02  0.1114809E+00
         21   -1    0    0  502  501  0.00000000000E+00  0.00000000000E+00  0.84513309870E+03  0.84513309870E+03  0.00000000000E+00 0. -1.
         21   -1    0    0  501  502 -0.00000000000E+00 -0.00000000000E+00 -0.72560099581E+02  0.72560099581E+02  0.00000000000E+00 0. -1.
         25    1    1    2    0    0  0.43034235581E+02  0.13212669558E+03  0.68728452590E+03  0.71224604503E+03  0.12500000000E+03 0.  0.
         25    1    1    2    0    0 -0.43034235581E+02 -0.13212669558E+03  0.85288473221E+02  0.20544715326E+03  0.12500000000E+03 0.  0.
</event>
<event>
 4    0  0.2202290E-002  0.1910291E+03  0.7546771E-02  0.1157536E+00
         21   -1    0    0  502  501  0.00000000000E+00  0.00000000000E+00  0.80609771897E+02  0.80609771897E+02  0.00000000000E+00 0. -1.
         21   -1    0    0  501  502 -0.00000000000E+00 -0.00000000000E+00 -0.45270086642E+03  0.45270086642E+03  0.00000000000E+00 0. -1.
         25    1    1    2    0    0 -0.96425722160E+02  0.21529584181E+02 -0.38942002506E+02  0.16402110367E+03  0.12500000000E+03 0.  0.
         25    1    1    2    0    0  0.96425722160E+02 -0.21529584181E+02 -0.33314909201E+03  0.36928953464E+03  0.12500000000E+03 0.  0.
</event>
<event>
 4    0  0.2202290E-002  0.2209178E+03  0.7546771E-02  0.1133201E+00
         21   -1    0    0  502  501  0.00000000000E+00  0.00000000000E+00  0.38318711409E+02  0.38318711409E+02  0.00000000000E+00 0. -1.
         21   -1    0    0  501  502 -0.00000000000E+00 -0.00000000000E+00 -0.12736507342E+04  0.12736507342E+04  0.00000000000E+00 0. -1.
         25    1    1    2    0    0 -0.11073363467E+03  0.12542908569E+03 -0.83148606551E+03  0.85731468582E+03  0.12500000000E+03 0.  0.
         25    1    1    2    0    0  0.11073363467E+03 -0.12542908569E+03 -0.40384595726E+03  0.45465475977E+03  0.12500000000E+03 0.  0.
</event>
<event>
 4    0  0.2202290E-002  0.2414244E+03  0.7546771E-02  0.1118848E+00
         21   -1    0    0  502  501  0.00000000000E+00  0.00000000000E+00  0.17348271047E+02  0.17348271047E+02  0.00000000000E+00 0. -1.
         21   -1    0    0  501  502 -0.00000000000E+00 -0.00000000000E+00 -0.33597444927E+04  0.33597444927E+04  0.00000000000E+00 0. -1.
         25    1    1    2    0    0 -0.19799269293E+03 -0.66108068797E+01 -0.12624201699E+04  0.12839682607E+04  0.12500000000E+03 0.  0.
         25    1    1    2    0    0  0.19799269293E+03  0.66108068797E+01 -0.20799760518E+04  0.20931245031E+04  0.12500000000E+03 0.  0.
</event>
<event>
 4    0  0.2202290E-002  0.1824809E+03  0.7546771E-02  0.1165423E+00
         21   -1    0    0  502  501  0.00000000000E+00  0.00000000000E+00  0.52279667105E+02  0.52279667105E+02  0.00000000000E+00 0. -1.
         21   -1    0    0  501  502 -0.00000000000E+00 -0.00000000000E+00 -0.63694479278E+03  0.63694479278E+03  0.00000000000E+00 0. -1.
         25    1    1    2    0    0  0.75698494933E+02  0.88269905727E+01 -0.86617027744E+02  0.17010493054E+03  0.12500000000E+03 0.  0.
         25    1    1    2    0    0 -0.75698494933E+02 -0.88269905727E+01 -0.49804809793E+03  0.51911952935E+03  0.12500000000E+03 0.  0.
</event>
<event>
 4    0  0.2202290E-002  0.2074058E+03  0.7546771E-02  0.1143637E+00
         21   -1    0    0  502  501  0.00000000000E+00  0.00000000000E+00  0.30599200336E+02  0.30599200336E+02  0.00000000000E+00 0.  1.
         21   -1    0    0  501  502 -0.00000000000E+00 -0.00000000000E+00 -0.14058260539E+04  0.14058260539E+04  0.00000000000E+00 0.  1.
         25    1    1    2    0    0 -0.40228720044E+01  0.91485871288E+02 -0.11650119268E+04  0.11752717293E+04  0.12500000000E+03 0.  0.
         25    1    1    2    0    0  0.40228720044E+01 -0.91485871288E+02 -0.21021492677E+03  0.26115352493E+03  0.12500000000E+03 0.  0.
</event>
<event>
 4    0  0.2202290E-002  0.1587363E+03  0.7546771E-02  0.1190131E+00
         21   -1    0    0  502  501  0.00000000000E+00  0.00000000000E+00  0.65254622267E+03  0.65254622267E+03  0.00000000000E+00 0.  1.
         21   -1    0    0  501  502 -0.00000000000E+00 -0.00000000000E+00 -0.38613679271E+02  0.38613679271E+02  0.00000000000E+00 0.  1.
         25    1    1    2    0    0 -0.84134680763E+02 -0.16410764277E+02  0.20429134889E+03  0.25437750082E+03  0.12500000000E+03 0.  0.
         25    1    1    2    0    0  0.84134680763E+02  0.16410764277E+02  0.40964119451E+03  0.43678240112E+03  0.12500000000E+03 0.  0.
</event>
<event>
 4    0  0.2202290E-002  0.1609279E+03  0.7546771E-02  0.1187653E+00
         21   -1    0    0  502  501  0.00000000000E+00  0.00000000000E+00  0.23325831267E+02  0.23325831267E+02  0.00000000000E+00 0.  1.
         21   -1    0    0  501  502 -0.00000000000E+00 -0.00000000000E+00 -0.11102625546E+04  0.11102625546E+04  0.00000000000E+00 0.  1.
         25    1    1    2    0    0  0.31853604847E+02  0.67529650443E+02 -0.78487291481E+03  0.79826399032E+03  0.12500000000E+03 0.  0.
         25    1    1    2    0    0 -0.31853604847E+02 -0.67529650443E+02 -0.30206380849E+03  0.33532439552E+03  0.12500000000E+03 0.  0.
</event>
<event>
 4    0  0.2202290E-002  0.1917895E+03  0.7546771E-02  0.1156857E+00
         21   -1    0    0  502  501  0.00000000000E+00  0.00000000000E+00  0.11209181364E+03  0.11209181364E+03  0.00000000000E+00 0.  1.
         21   -1    0    0  501  502 -0.00000000000E+00 -0.00000000000E+00 -0.32815243508E+03  0.32815243508E+03  0.00000000000E+00 0.  1.
         25    1    1    2    0    0  0.12342076623E+03  0.41418703119E+01 -0.19809216108E+02  0.17682546669E+03  0.12500000000E+03 0.  0.
         25    1    1    2    0    0 -0.12342076623E+03 -0.41418703119E+01 -0.19625140534E+03  0.26341878203E+03  0.12500000000E+03 0.  0.
</event>
<event>
 4    0  0.2202290E-002  0.1765663E+03  0.7546771E-02  0.1171168E+00
         21   -1    0    0  502  501  0.00000000000E+00  0.00000000000E+00  0.35217015438E+03  0.35217015438E+03  0.00000000000E+00 0. -1.
         21   -1    0    0  501  502 -0.00000000000E+00 -0.00000000000E+00 -0.88524457033E+02  0.88524457033E+02  0.00000000000E+00 0. -1.
         25    1    1    2    0    0 -0.17187386400E+02 -0.19769003442E+02  0.28397366459E+03  0.31137158176E+03  0.12500000000E+03 0.  0.
         25    1    1    2    0    0  0.17187386400E+02  0.19769003442E+02 -0.20327967234E+02  0.12932302966E+03  0.12500000000E+03 0.  0.
</event>
<event>
 4    0  0.2202290E-002  0.2171178E+03  0.7546771E-02  0.1136050E+00
         21   -1    0    0  502  501  0.00000000000E+00  0.00000000000E+00  0.29881034414E+02  0.29881034414E+02  0.00000000000E+00 0.  1.
         21   -1    0    0  501  502 -0.00000000000E+00 -0.00000000000E+00 -0.15775941004E+04  0.15775941004E+04  0.00000000000E+00 0.  1.
         25    1    1    2    0    0 -0.66925078972E+02 -0.16321508446E+03 -0.84761663633E+03  0.87475544707E+03  0.12500000000E+03 0.  0.
         25    1    1    2    0    0  0.66925078972E+02  0.16321508446E+03 -0.70009642962E+03  0.73271968771E+03  0.12500000000E+03 0.  0.
</event>
<event>
 4    0  0.2202290E-002  0.1627526E+03  0.7546771E-02  0.1185624E+00
         21   -1    0    0  502  501  0.00000000000E+00  0.00000000000E+00  0.21520484018E+04  0.21520484018E+04  0.00000000000E+00 0. -1.
         21   -1    0    0  501  502 -0.00000000000E+00 -0.00000000000E+00 -0.12308460404E+02  0.12308460404E+02  0.00000000000E+00 0. -1.
         25    1    1    2    0    0 -0.75326793347E+02  0.25669234632E+02  0.15174159802E+04  0.15246341503E+04  0.12500000000E+03 0.  0.
         25    1    1    2    0    0  0.75326793347E+02 -0.25669234632E+02  0.62232396124E+03  0.63972271191E+03  0.12500000000E+03 0.  0.
</event>
<event>
 4    0  0.2202290E-002  0.2252703E+03  0.7546771E-02  0.1130014E+00
         21   -1    0    0  502  501  0.00000000000E+00  0.00000000000E+00  0.67236185770E+03  0.67236185770E+03  0.00000000000E+00 0.  1.
         21   -1    0    0  501  502 -0.00000000000E+00 -0.00000000000E+00 -0.75475265854E+02  0.75475265854E+02  0.00000000000E+00 0.  1.
         25    1    1    2    0    0 -0.55274824353E+02 -0.17386028959E+03  0.22726262524E+03  0.31710567219E+03  0.12500000000E+03 0.  0.
         25    1    1    2    0    0  0.55274824353E+02  0.17386028959E+03  0.36962396661E+03  0.43073145137E+03  0.12500000000E+03 0.  0.
</event>
<event>
 4    0  0.2202290E-002  0.2852480E+03  0.7546771E-02  0.1092857E+00
         21   -1    0    0  502  501  0.00000000000E+00  0.00000000000E+00  0.36385695299E+02  0.36385695299E+02  0.00000000000E+00 0. -1.
         21   -1    0    0  501  502 -0.00000000000E+00 -0.00000000000E+00 -0.22362196366E+04  0.22362196366E+04  0.00000000000E+00 0. -1.
         25    1    1    2    0    0  0.13241644028E+03 -0.55848025679E+02 -0.25404751325E+03  0.31751890435E+03  0.12500000000E+03 0.  0.
         25    1    1    2    0    0 -0.13241644028E+03  0.55848025679E+02 -0.19457864280E+04  0.19550864275E+04  0.12500000000E+03 0.  0.
</event>
<event>
 4    0  0.2202290E-002  0.2088444E+03  0.7546771E-02  0.1142484E+00
         21   -1    0    0  502  501  0.00000000000E+00  0.00000000000E+00  0.41208489025E+03  0.41208489025E+03  0.00000000000E+00 0. -1.
         21   -1    0    0  501  502 -0.00000000000E+00 -0.00000000000E+00 -0.10584226929E+03  0.10584226929E+03  0.00000000000E+00 0. -1.
         25    1    1    2    0    0  0.64356402330E+02 -0.11497398849E+03  0.28096733081E+03  0.33455702882E+03  0.12500000000E+03 0.  0.
         25    1    1    2    0    0 -0.64356402330E+02  0.11497398849E+03  0.25275290148E+02  0.18337013072E+03  0.12500000000E+03 0.  0.
</event>
<event>
 4    0  0.2202290E-002  0.2831203E+03  0.7546771E-02  0.1093997E+00
         21   -1    0    0  502  501  0.00000000000E+00  0.00000000000E+00  0.82445215516E+03  0.82445215516E+03  0.00000000000E+00 0.  1.
         21   -1    0    0  501  502 -0.00000000000E+00 -0.00000000000E+00 -0.97224655840E+02  0.97224655840E+02  0.00000000000E+00 0.  1.
         25    1    1    2    0    0 -0.87885796974E+02 -0.10846295323E+02 -0.23940903615E+02  0.15504748401E+03  0.12500000000E+03 0.  0.
         25    1    1    2    0    0  0.87885796974E+02  0.10846295323E+02  0.75116840293E+03  0.76662932699E+03  0.12500000000E+03 0.  0.
</event>
<event>
 4    0  0.2202290E-002  0.2825298E+03  0.7546771E-02  0.1094315E+00
         21   -1    0    0  502  501  0.00000000000E+00  0.00000000000E+00  0.17864477411E+03  0.17864477411E+03  0.00000000000E+00 0. -1.
         21   -1    0    0  501  502 -0.00000000000E+00 -0.00000000000E+00 -0.44682570114E+03  0.44682570114E+03  0.00000000000E+00 0. -1.
         25    1    1    2    0    0 -0.16251808004E+02 -0.25271155700E+03 -0.14340590074E+03  0.31672938713E+03  0.12500000000E+03 0.  0.
         25    1    1    2    0    0  0.16251808004E+02  0.25271155700E+03 -0.12477502629E+03  0.30874108812E+03  0.12500000000E+03 0.  0.
</event>
<event>
 4    0  0.2202290E-002  0.1632595E+03  0.7546771E-02  0.1185065E+00
         21   -1    0    0  502  501  0.00000000000E+00  0.00000000000E+00  0.13716593892E+03  0.13716593892E+03  0.00000000000E+00 0.  1.
         21   -1    0    0  501  502 -0.00000000000E+00 -0.00000000000E+00 -0.19431695989E+03  0.19431695989E+03  0.00000000000E+00 0.  1.
         25    1    1    2    0    0 -0.41474468967E+02  0.51771528792E+02  0.54076216165E+02  0.15149145165E+03  0.12500000000E+03 0.  0.
         25    1    1    2    0    0  0.41474468967E+02 -0.51771528792E+02 -0.11122723714E+03  0.17999144716E+03  0.12500000000E+03 0.  0.
</event>
<event>
 4    0  0.2202290E-002  0.2312120E+03  0.7546771E-02  0.1125790E+00
         21   -1    0    0  502  501  0.00000000000E+00  0.00000000000E+00  0.22840144894E+03  0.22840144894E+03  0.00000000000E+00 0.  1.
         21   -1    0    0  501  502 -0.00000000000E+00 -0.00000000000E+00 -0.23405715785E+03  0.23405715785E+03  0.00000000000E+00 0.  1.
         25    1    1    2    0    0  0.11756168730E+03  0.11626833981E+03 -0.10528021766E+03  0.23248226038E+03  0.12500000000E+03 0.  0.
         25    1    1    2    0    0 -0.11756168730E+03 -0.11626833981E+03  0.99624508755E+02  0.22997634641E+03  0.12500000000E+03 0.  0.
</event>
<event>
 4    0  0.2202290E-002  0.2633279E+03  0.7546771E-02  0.1105160E+00
         21   -1    0    0  502  501  0.00000000000E+00  0.00000000000E+00  0.48966827996E+03  0.48966827996E+03  0.00000000000E+00 0. -1.
         21   -1    0    0  501  502 -0.00000000000E+00 -0.00000000000E+00 -0.14160930363E+03  0.14160930363E+03  0.00000000000E+00 0. -1.
         25    1    1    2    0    0  0.45927023452E+02  0.96607952523E+01  0.44608402213E+03  0.46563781767E+03  0.12500000000E+03 0.  0.
         25    1    1    2    0    0 -0.45927023452E+02 -0.96607952523E+01 -0.98025045802E+02  0.16563976592E+03  0.12500000000E+03 0.  0.
</event>
<event>
 4    0  0.2202290E-002  0.2113725E+03  0.7546771E-02  0.1140484E+00
         21   -1    0    0  502  501  0.00000000000E+00  0.00000000000E+00  0.26721134524E+03  0.26721134524E+03  0.00000000000E+00 0. -1.
         21   -1    0    0  501  502 -0.00000000000E+00 -0.00000000000E+00 -0.16720219888E+03  0.16720219888E+03  0.00000000000E+00 0. -1.
         25    1    1    2    0    0 -0.33779202346E+02  0.27003246317E+02 -0.11941927083E+03  0.17820261521E+03  0.12500000000E+03 0.  0.
         25    1    1    2    0    0  0.33779202346E+02 -0.27003246317E+02  0.21942841719E+03  0.25621092891E+03  0.12500000000E+03 0.  0.
</event>
<event>
 4    0  0.2202290E-002  0.1665642E+03  0.7546771E-02  0.1181479E+00
         21   -1    0    0  502  501  0.00000000000E+00  0.00000000000E+00  0.27898684819E+03  0.27898684819E+03  0.00000000000E+00 0.  1.
         21   -1    0    0  501  502 -0.00000000000E+00 -0.00000000000E+00 -0.99444284774E+02  0.99444284774E+02  0.00000000000E+00 0.  1.
         25    1    1    2    0    0  0.33758113771E+02 -0.99300151440E+02  0.12776365534E+03  0.20724063778E+03  0.12500000000E+03 0.  0.
         25    1    1    2    0    0 -0.33758113771E+02  0.99300151440E+02  0.51778908083E+02  0.17119049519E+03  0.12500000000E+03 0.  0.
</event>
<event>
 4    0  0.2202290E-002  0.1518692E+03  0.7546771E-02  0.1198195E+00
         21   -1    0    0  502  501  0.00000000000E+00  0.00000000000E+00  0.25691862856E+03  0.25691862856E+03  0.00000000000E+00 0.  1.
         21   -1    0    0  501  502 -0.00000000000E+00 -0.00000000000E+00 -0.89772553056E+02  0.89772553056E+02  0.00000000000E+00 0.  1.
         25    1    1    2    0    0 -0.78199207071E+02 -0.58500887237E+01  0.12456715316E+03  0.19310959368E+03  0.12500000000E+03 0.  0.
         25    1    1    2    0    0  0.78199207071E+02  0.58500887237E+01  0.42578922344E+02  0.15358158793E+03  0.12500000000E+03 0.  0.
</event>
<event>
 4    0  0.2202290E-002  0.2891881E+03  0.7546771E-02  0.1090774E+00
         21   -1    0    0  502  501  0.00000000000E+00  0.00000000000E+00  0.32159530072E+03  0.32159530072E+03  0.00000000000E+00 0.  1.
         21   -1    0    0  501  502 -0.00000000000E+00 -0.00000000000E+00 -0.26004655680E+03  0.26004655680E+03  0.00000000000E+00 0.  1.
         25    1    1    2    0    0 -0.76875215178E+01 -0.18884680200E+03  0.21146228083E+03  0.30994113768E+03  0.12500000000E+03 0.  0.
         25    1    1    2    0    0  0.76875215178E+01  0.18884680200E+03 -0.14991353691E+03  0.27170071984E+03  0.12500000000E+03 0.  0.
</event>
<event>
 4    0  0.2202290E-002  0.2511880E+03  0.7546771E-02  0.1112556E+00
         21   -1    0    0  502  501  0.00000000000E+00  0.00000000000E+00  0.43006025194E+03  0.43006025194E+03  0.00000000000E+00 0. -1.
         21   -1    0    0  501  502 -0.00000000000E+00 -0.00000000000E+00 -0.14671294619E+03  0.14671294619E+03  0.00000000000E+00 0. -1.
         25    1    1    2    0    0 -0.56005989685E+02 -0.68044590451E+02 -0.87092372592E+02  0.17600232537E+03  0.12500000000E+03 0.  0.
         25    1    1    2    0    0  0.56005989685E+02  0.68044590451E+02  0.37043967833E+03  0.40077087276E+03  0.12500000000E+03 0.  0.
</event>
<event>
 4    0  0.2202290E-002  0.2653312E+03  0.7546771E-02  0.1103982E+00
         21   -1    0    0  502  501  0.00000000000E+00  0.00000000000E+00  0.42237140483E+03  0.42237140483E+03  0.00000000000E+00 0.  1.
         21   -1    0    0  501  502 -0.00000000000E+00 -0.00000000000E+00 -0.16667943374E+03  0.16667943374E+03  0.00000000000E+00 0.  1.
         25    1    1    2    0    0  0.18781302567E+03  0.13383396909E+03  0.83578728699E+02  0.27531013019E+03  0.12500000000E+03 0.  0.
         25    1    1    2    0    0 -0.18781302567E+03 -0.13383396909E+03  0.17211324239E+03  0.31374070839E+03  0.12500000000E+03 0.  0.
</event>
<event>
 4    0  0.2202290E-002  0.1603476E+03  0.7546771E-02  0.1188305E+00
         21   -1    0    0  502  501  0.00000000000E+00  0.00000000000E+00  0.61099677102E+02  0.61099677102E+02  0.00000000000E+00 0.  1.
         21   -1    0    0  501  502 -0.00000000000E+00 -0.00000000000E+00 -0.42081001943E+03  0.42081001943E+03  0.00000000000E+00 0.  1.
         25    1    1    2    0    0 -0.84336382923E+02  0.54493594076E+02 -0.17678324435E+03  0.23866187958E+03  0.12500000000E+03 0.  0.
         25    1    1    2    0    0  0.84336382923E+02 -0.54493594076E+02 -0.18292709798E+03  0.24324781696E+03  0.12500000000E+03 0.  0.
</event>
<event>
 4    0  0.2202290E-002  0.2484291E+03  0.7546771E-02  0.1114302E+00
         21   -1    0    0  502  501  0.00000000000E+00  0.00000000000E+00  0.26665024881E+03  0.26665024881E+03  0.00000000000E+00 0.  1.
         21   -1    0    0  501  502 -0.00000000000E+00 -0.00000000000E+00 -0.23145311535E+03  0.23145311535E+03  0.00000000000E+00 0.  1.
         25    1    1    2    0    0 -0.16005973812E+03  0.12129083671E+03  0.93692956433E+02  0.25442868730E+03  0.12500000000E+03 0.  0.
         25    1    1    2    0    0  0.16005973812E+03 -0.12129083671E+03 -0.58495822965E+02  0.24367467686E+03  0.12500000000E+03 0.  0.
</event>
<event>
 4    0  0.2202290E-002  0.2966710E+03  0.7546771E-02  0.1086917E+00
         21   -1    0    0  502  501  0.00000000000E+00  0.00000000000E+00  0.64193358950E+03  0.64193358950E+03  0.00000000000E+00 0.  1.
         21   -1    0    0  501  502 -0.00000000000E+00 -0.00000000000E+00 -0.13710717695E+03  0.13710717695E+03  0.00000000000E+00 0.  1.
         25    1    1    2    0    0 -0.26026470524E+03 -0.32125090611E+02  0.33139867065E+03  0.44070377483E+03  0.12500000000E+03 0.  0.
         25    1    1    2    0    0  0.26026470524E+03  0.32125090611E+02  0.17342774191E+03  0.33833699163E+03  0.12500000000E+03 0.  0.
</event>
<event>
 4    0  0.2202290E-002  0.1900329E+03  0.7546771E-02  0.1158432E+00
         21   -1    0    0  502  501  0.00000000000E+00  0.00000000000E+00  0.49595753805E+02  0.49595753805E+02  0.00000000000E+00 0. -1.
         21   -1    0    0  501  502 -0.00000000000E+00 -0.00000000000E+00 -0.72813710199E+03  0.72813710199E+03  0.00000000000E+00 0. -1.
         25    1    1    2    0    0  0.13962132112E+03 -0.29058665855E+02 -0.36424816644E+03  0.41065830824E+03  0.12500000000E+03 0.  0.
         25    1    1    2    0    0 -0.13962132112E+03  0.29058665855E+02 -0.31429318175E+03  0.36707454756E+03  0.12500000000E+03 0.  0.
</event>
<event>
 4    0  0.2202290E-002  0.2478223E+03  0.7546771E-02  0.1114689E+00
         21   -1    0    0  502  501  0.00000000000E+00  0.00000000000E+00  0.10282890294E+03  0.10282890294E+03  0.00000000000E+00 0.  1.
         21   -1    0    0  501  502 -0.00000000000E+00 -0.00000000000E+00 -0.59726313789E+03  0.59726313789E+03  0.00000000000E+00 0.  1.
         25    1    1    2    0    0 -0.72448321398E+02  0.45166879004E+02 -0.52437480934E+03  0.54578635646E+03  0.12500000000E+03 0.  0.
         25    1    1    2    0    0  0.72448321398E+02 -0.45166879004E+02  0.29940574388E+02  0.15430568436E+03  0.12500000000E+03 0.  0.
</event>
<event>
 4    0  0.2202290E-002  0.1794226E+03  0.7546771E-02  0.1168363E+00
         21   -1    0    0  502  501  0.00000000000E+00  0.00000000000E+00  0.13561413361E+03  0.13561413361E+03  0.00000000000E+00 0.  1.
         21   -1    0    0  501  502 -0.00000000000E+00 -0.00000000000E+00 -0.23738272828E+03  0.23738272828E+03  0.00000000000E+00 0.  1.
         25    1    1    2    0    0  0.10986730331E+03 -0.49093234461E+02 -0.34048587913E+01  0.17354412428E+03  0.12500000000E+03 0.  0.
         25    1    1    2    0    0 -0.10986730331E+03  0.49093234461E+02 -0.98363735874E+02  0.19945273762E+03  0.12500000000E+03 0.  0.
</event>
<event>
 4    0  0.2202290E-002  0.2425063E+03  0.7546771E-02  0.1118134E+00
         21   -1    0    0  502  501  0.00000000000E+00  0.00000000000E+00  0.10696898330E+04  0.10696898330E+04  0.00000000000E+00 0. -1.
         21   -1    0    0  501  502 -0.00000000000E+00 -0.00000000000E+00 -0.54977893840E+02  0.54977893840E+02  0.00000000000E+00 0. -1.
         25    1    1    2    0    0 -0.80993192645E+02 -0.12002281162E+03  0.85300292953E+03  0.87418783471E+03  0.12500000000E+03 0.  0.
         25    1    1    2    0    0  0.80993192645E+02  0.12002281162E+03  0.16170900960E+03  0.25047989211E+03  0.12500000000E+03 0.  0.
</event>
<event>
 4    0  0.2202290E-002  0.1992140E+03  0.7546771E-02  0.1150404E+00
         21   -1    0    0  502  501  0.00000000000E+00  0.00000000000E+00  0.84102588273E+03  0.84102588273E+03  0.00000000000E+00 0.  1.
         21   -1    0    0  501  502 -0.00000000000E+00 -0.00000000000E+00 -0.47187860779E+02  0.47187860779E+02  0.00000000000E+00 0.  1.
         25    1    1    2    0    0  0.35068794229E+01  0.15498227936E+03  0.38482990717E+03  0.43330227621E+03  0.12500000000E+03 0.  0.
         25    1    1    2    0    0 -0.35068794229E+01 -0.15498227936E+03  0.40900811478E+03  0.45491146730E+03  0.12500000000E+03 0.  0.
</event>
<event>
 4    0  0.2202290E-002  0.2104756E+03  0.7546771E-02  0.1141190E+00
         21   -1    0    0  502  501  0.00000000000E+00  0.00000000000E+00  0.27070895077E+02  0.27070895077E+02  0.00000000000E+00 0. -1.
         21   -1    0    0  501  502 -0.00000000000E+00 -0.00000000000E+00 -0.16364425014E+04  0.16364425014E+04  0.00000000000E+00 0. -1.
         25    1    1    2    0    0 -0.11107961136E+03 -0.10622644847E+03 -0.52379600958E+03  0.56000892677E+03  0.12500000000E+03 0.  0.
         25    1    1    2    0    0  0.11107961136E+03  0.10622644847E+03 -0.10855755968E+04  0.11035044697E+04  0.12500000000E+03 0.  0.
</event>
<event>
 4    0  0.2202290E-002  0.1868087E+03  0.7546771E-02  0.1161372E+00
         21   -1    0    0  502  501  0.00000000000E+00  0.00000000000E+00  0.11921005704E+03  0.11921005704E+03  0.00000000000E+00 0. -1.
         21   -1    0    0  501  502 -0.00000000000E+00 -0.00000000000E+00 -0.29273944497E+03  0.29273944497E+03  0.00000000000E+00 0. -1.
         25    1    1    2    0    0  0.19006085424E+02 -0.84741322880E+02  0.32653070480E+02  0.15567127577E+03  0.12500000000E+03 0.  0.
         25    1    1    2    0    0 -0.19006085424E+02  0.84741322880E+02 -0.20618245841E+03  0.25627822624E+03  0.12500000000E+03 0.  0.
</event>
<event>
 4    0  0.2202290E-002  0.2291061E+03  0.7546771E-02  0.1127270E+00
         21   -1    0    0  502  501  0.00000000000E+00  0.00000000000E+00  0.77353777850E+02  0.77353777850E+02  0.00000000000E+00 0. -1.
         21   -1    0    0  501  502 -0.00000000000E+00 -0.00000000000E+00 -0.67856576137E+03  0.67856576137E+03  0.00000000000E+00 0. -1.
         25    1    1    2    0    0 -0.10690476189E+03 -0.15901971007E+03 -0.32072499481E+03  0.39396118921E+03  0.12500000000E+03 0.  0.
         25    1    1    2    0    0  0.10690476189E+03  0.15901971007E+03 -0.28048698872E+03  0.36195835002E+03  0.12500000000E+03 0.  0.
</event>
<event>
 4    0  0.2202290E-002  0.2612234E+03  0.7546771E-02  0.1106410E+00
         21   -1    0    0  502  501  0.00000000000E+00  0.00000000000E+00  0.15377686261E+03  0.15377686261E+03  0.00000000000E+00 0. -1.
         21   -1    0    0  501  502 -0.00000000000E+00 -0.00000000000E+00 -0.44374455217E+03  0.44374455217E+03  0.00000000000E+00 0. -1.
         25    1    1    2    0    0  0.80740579652E+02  0.82263613487E+02 -0.37178904995E+03  0.40882568531E+03  0.12500000000E+03 0.  0.
         25    1    1    2    0    0 -0.80740579652E+02 -0.82263613487E+02  0.81821360390E+02  0.18869572948E+03  0.12500000000E+03 0.  0.
</event>
<event>
 4    0  0.2202290E-002  0.1855680E+03  0.7546771E-02  0.1162521E+00
         21   -1    0    0  502  501  0.00000000000E+00  0.00000000000E+00  0.14024004697E+03  0.14024004697E+03  0.00000000000E+00 0.  1.
         21   -1    0    0  501  502 -0.00000000000E+00 -0.00000000000E+00 -0.24554661741E+03  0.24554661741E+03  0.00000000000E+00 0.  1.
         25    1    1    2    0    0 -0.97918391329E+02 -0.86609572094E+02 -0.95277095278E+01  0.18112152436E+03  0.12500000000E+03 0.  0.
         25    1    1    2    0    0  0.97918391329E+02  0.86609572094E+02 -0.95778860919E+02  0.20466514002E+03  0.12500000000E+03 0.  0.
</event>
<event>
 4    0  0.2202290E-002  0.2229923E+03  0.7546771E-02  0.1131672E+00
         21   -1    0    0  502  501  0.00000000000E+00  0.00000000000E+00  0.13029055268E+03  0.13029055268E+03  0.00000000000E+00 0. -1.
         21   -1    0    0  501  502 -0.00000000000E+00 -0.00000000000E+00 -0.38165119433E+03  0.38165119433E+03  0.00000000000E+00 0. -1.
         25    1    1    2    0    0  0.14658321604E+03  0.26758105237E+02 -0.25088948234E+03  0.31744789773E+03  0.12500000000E+03 0.  0.
         25    1    1    2    0    0 -0.14658321604E+03 -0.26758105237E+02 -0.47115931004E+00  0.19449384929E+03  0.12500000000E+03 0.  0.
</event>
<event>
 4    0  0.2202290E-002  0.2639443E+03  0.7546771E-02  0.1104796E+00
         21   -1    0    0  502  501  0.00000000000E+00  0.00000000000E+00  0.24335082896E+03  0.24335082896E+03  0.00000000000E+00 0.  1.
         21   -1    0    0  501  502 -0.00000000000E+00 -0.00000000000E+00 -0.28628049784E+03  0.28628049784E+03  0.00000000000E+00 0.  1.
         25    1    1    2    0    0  0.22497421276E+03 -0.42396946523E+02 -0.61980061087E+02  0.26809965582E+03  0.12500000000E+03 0.  0.
         25    1    1    2    0    0 -0.22497421276E+03  0.42396946523E+02  0.19050392216E+02  0.26153167098E+03  0.12500000000E+03 0.  0.
</event>
<event>
 4    0  0.2202290E-002  0.3722669E+03  0.7546771E-02  0.1053830E+00
         21   -1    0    0  502  501  0.00000000000E+00  0.00000000000E+00  0.10689040467E+03  0.10689040467E+03  0.00000000000E+00 0. -1.
         21   -1    0    0  501  502 -0.00000000000E+00 -0.00000000000E+00 -0.12964926553E+04  0.12964926553E+04  0.00000000000E+00 0. -1.
         25    1    1    2    0    0  0.11031748132E+03  0.28321697515E+03 -0.26520589351E+03  0.42230435429E+03  0.12500000000E+03 0.  0.
         25    1    1    2    0    0 -0.11031748132E+03 -0.28321697515E+03 -0.92439635716E+03  0.98107870573E+03  0.12500000000E+03 0.  0.
</event>
<event>
 4    0  0.2202290E-002  0.3024754E+03  0.7546771E-02  0.1084010E+00
         21   -1    0    0  502  501  0.00000000000E+00  0.00000000000E+00  0.13585723952E+03  0.13585723952E+03  0.00000000000E+00 0.  1.
         21   -1    0    0  501  502 -0.00000000000E+00 -0.00000000000E+00 -0.67343749534E+03  0.67343749534E+03  0.00000000000E+00 0.  1.
         25    1    1    2    0    0 -0.12873637480E+03  0.72557279642E+02  0.42166003007E+02  0.19809236440E+03  0.12500000000E+03 0.  0.
         25    1    1    2    0    0  0.12873637480E+03 -0.72557279642E+02 -0.57974625883E+03  0.61120237046E+03  0.12500000000E+03 0.  0.
</event>
<event>
 4    0  0.2202290E-002  0.2971928E+03  0.7546771E-02  0.1086652E+00
         21   -1    0    0  502  501  0.00000000000E+00  0.00000000000E+00  0.39545019734E+03  0.39545019734E+03  0.00000000000E+00 0. -1.
         21   -1    0    0  501  502 -0.00000000000E+00 -0.00000000000E+00 -0.22334933316E+03  0.22334933316E+03  0.00000000000E+00 0. -1.
         25    1    1    2    0    0  0.14368329803E+03 -0.56363047671E+02  0.31621230151E+03  0.37341251037E+03  0.12500000000E+03 0.  0.
         25    1    1    2    0    0 -0.14368329803E+03  0.56363047671E+02 -0.14411143734E+03  0.24538702013E+03  0.12500000000E+03 0.  0.
</event>
<event>
 4    0  0.2202290E-002  0.2547938E+03  0.7546771E-02  0.1110312E+00
         21   -1    0    0  502  501  0.00000000000E+00  0.00000000000E+00  0.37430938191E+02  0.37430938191E+02  0.00000000000E+00 0.  1.
         21   -1    0    0  501  502 -0.00000000000E+00 -0.00000000000E+00 -0.17343905027E+04  0.17343905027E+04  0.00000000000E+00 0. -1.
         25    1    1    2    0    0  0.64149725908E+02  0.16498023771E+03 -0.38249814595E+03  0.43961744486E+03  0.12500000000E+03 0.  0.
         25    1    1    2    0    0 -0.64149725908E+02 -0.16498023771E+03 -0.13144614186E+04  0.13322039960E+04  0.12500000000E+03 0.  0.
</event>
<event>
 4    0  0.2202290E-002  0.1800717E+03  0.7546771E-02  0.1167734E+00
         21   -1    0    0  502  501  0.00000000000E+00  0.00000000000E+00  0.62715865819E+03  0.62715865819E+03  0.00000000000E+00 0.  1.
         21   -1    0    0  501  502 -0.00000000000E+00 -0.00000000000E+00 -0.51702705204E+02  0.51702705204E+02  0.00000000000E+00 0.  1.
         25    1    1    2    0    0 -0.78340446040E+02 -0.71213546554E+02  0.14676752734E+03  0.21994158720E+03  0.12500000000E+03 0.  0.
         25    1    1    2    0    0  0.78340446040E+02  0.71213546554E+02  0.42868842565E+03  0.45891977620E+03  0.12500000000E+03 0.  0.
</event>
<event>
 4    0  0.2202290E-002  0.2203428E+03  0.7546771E-02  0.1133628E+00
         21   -1    0    0  502  501  0.00000000000E+00  0.00000000000E+00  0.17835043752E+04  0.17835043752E+04  0.00000000000E+00 0. -1.
         21   -1    0    0  501  502 -0.00000000000E+00 -0.00000000000E+00 -0.27222226329E+02  0.27222226329E+02  0.00000000000E+00 0. -1.
         25    1    1    2    0    0  0.11566784628E+02 -0.13289113164E+03  0.37269618128E+03  0.41511599212E+03  0.12500000000E+03 0.  0.
         25    1    1    2    0    0 -0.11566784628E+02  0.13289113164E+03  0.13835859676E+04  0.13956106094E+04  0.12500000000E+03 0.  0.
</event>
<event>
 4    0  0.2202290E-002  0.2189112E+03  0.7546771E-02  0.1134697E+00
         21   -1    0    0  502  501  0.00000000000E+00  0.00000000000E+00  0.34224612225E+02  0.34224612225E+02  0.00000000000E+00 0.  1.
         21   -1    0    0  501  502 -0.00000000000E+00 -0.00000000000E+00 -0.14002239617E+04  0.14002239617E+04  0.00000000000E+00 0.  1.
         25    1    1    2    0    0  0.15644285877E+03 -0.88131826384E+02 -0.70741549261E+03  0.74047502731E+03  0.12500000000E+03 0.  0.
         25    1    1    2    0    0 -0.15644285877E+03  0.88131826384E+02 -0.65858385687E+03  0.69397354662E+03  0.12500000000E+03 0.  0.
</event>
<event>
 4    0  0.2202290E-002  0.1785748E+03  0.7546771E-02  0.1169190E+00
         21   -1    0    0  502  501  0.00000000000E+00  0.00000000000E+00  0.29087174968E+02  0.29087174968E+02  0.00000000000E+00 0. -1.
         21   -1    0    0  501  502 -0.00000000000E+00 -0.00000000000E+00 -0.10963235046E+04  0.10963235046E+04  0.00000000000E+00 0. -1.
         25    1    1    2    0    0  0.93390850045E+02  0.47699987142E+02 -0.30493463300E+03  0.34584284010E+03  0.12500000000E+03 0.  0.
         25    1    1    2    0    0 -0.93390850045E+02 -0.47699987142E+02 -0.76230169664E+03  0.77956783947E+03  0.12500000000E+03 0.  0.
</event>
<event>
 4    0  0.2202290E-002  0.3310952E+03  0.7546771E-02  0.1070653E+00
         21   -1    0    0  502  501  0.00000000000E+00  0.00000000000E+00  0.13356914856E+03  0.13356914856E+03  0.00000000000E+00 0. -1.
         21   -1    0    0  501  502 -0.00000000000E+00 -0.00000000000E+00 -0.82072887488E+03  0.82072887488E+03  0.00000000000E+00 0. -1.
         25    1    1    2    0    0 -0.12152944718E+03  0.17207939459E+03 -0.66459253447E+03  0.70830005044E+03  0.12500000000E+03 0.  0.
         25    1    1    2    0    0  0.12152944718E+03 -0.17207939459E+03 -0.22567191844E+02  0.24599797300E+03  0.12500000000E+03 0.  0.
</event>
<event>
 4    0  0.2202290E-002  0.2370087E+03  0.7546771E-02  0.1121802E+00
         21   -1    0    0  502  501  0.00000000000E+00  0.00000000000E+00  0.30236446805E+03  0.30236446805E+03  0.00000000000E+00 0. -1.
         21   -1    0    0  501  502 -0.00000000000E+00 -0.00000000000E+00 -0.18577958678E+03  0.18577958678E+03  0.00000000000E+00 0. -1.
         25    1    1    2    0    0 -0.19873751150E+03 -0.32420071651E+02  0.59010656482E+02  0.24424356102E+03  0.12500000000E+03 0.  0.
         25    1    1    2    0    0  0.19873751150E+03  0.32420071651E+02  0.57574224787E+02  0.24390049381E+03  0.12500000000E+03 0.  0.
</event>
<event>
 4    0  0.2202290E-002  0.4097946E+03  0.7546771E-02  0.1040440E+00
         21   -1    0    0  502  501  0.00000000000E+00  0.00000000000E+00  0.53542451923E+03  0.53542451923E+03  0.00000000000E+00 0. -1.
         21   -1    0    0  501  502 -0.00000000000E+00 -0.00000000000E+00 -0.31364198593E+03  0.31364198593E+03  0.00000000000E+00 0. -1.
         25    1    1    2    0    0  0.35229088899E+02  0.37650775964E+03  0.21083609463E+03  0.45063959055E+03  0.12500000000E+03 0.  0.
         25    1    1    2    0    0 -0.35229088899E+02 -0.37650775964E+03  0.10946438673E+02  0.39842691462E+03  0.12500000000E+03 0.  0.
</event>
<event>
 4    0  0.2202290E-002  0.1945636E+03  0.7546771E-02  0.1154408E+00
         21   -1    0    0  502  501  0.00000000000E+00  0.00000000000E+00  0.97858812017E+01  0.97858812017E+01  0.00000000000E+00 0.  1.
         21   -1    0    0  501  502 -0.00000000000E+00 -0.00000000000E+00 -0.38683284472E+04  0.38683284472E+04  0.00000000000E+00 0.  1.
         25    1    1    2    0    0 -0.42947159267E+02 -0.14200901052E+03 -0.17817902294E+04  0.17923204064E+04  0.12500000000E+03 0.  0.
         25    1    1    2    0    0  0.42947159267E+02  0.14200901052E+03 -0.20767523366E+04  0.20857939220E+04  0.12500000000E+03 0.  0.
</event>
<event>
 4    0  0.2202290E-002  0.2457827E+03  0.7546771E-02  0.1115999E+00
         21   -1    0    0  502  501  0.00000000000E+00  0.00000000000E+00  0.61962570087E+03  0.61962570087E+03  0.00000000000E+00 0. -1.
         21   -1    0    0  501  502 -0.00000000000E+00 -0.00000000000E+00 -0.97492911049E+02  0.97492911049E+02  0.00000000000E+00 0. -1.
         25    1    1    2    0    0 -0.18981579311E+03 -0.82557171076E+02  0.32529530011E+03  0.40532425795E+03  0.12500000000E+03 0.  0.
         25    1    1    2    0    0  0.18981579311E+03  0.82557171076E+02  0.19683748971E+03  0.31179435396E+03  0.12500000000E+03 0.  0.
</event>
<event>
 4    0  0.2202290E-002  0.2246271E+03  0.7546771E-02  0.1130480E+00
         21   -1    0    0  502  501  0.00000000000E+00  0.00000000000E+00  0.36924076649E+03  0.36924076649E+03  0.00000000000E+00 0.  1.
         21   -1    0    0  501  502 -0.00000000000E+00 -0.00000000000E+00 -0.13665158378E+03  0.13665158378E+03  0.00000000000E+00 0.  1.
         25    1    1    2    0    0  0.16536158586E+03  0.75960251742E+02  0.69621385527E+02  0.23148769134E+03  0.12500000000E+03 0.  0.
         25    1    1    2    0    0 -0.16536158586E+03 -0.75960251742E+02  0.16296779719E+03  0.27440465893E+03  0.12500000000E+03 0.  0.
</event>
<event>
 4    0  0.2202290E-002  0.2374549E+03  0.7546771E-02  0.1121500E+00
         21   -1    0    0  502  501  0.00000000000E+00  0.00000000000E+00  0.11765518115E+03  0.11765518115E+03  0.00000000000E+00 0. -1.
         21   -1    0    0  501  502 -0.00000000000E+00 -0.00000000000E+00 -0.47923778800E+03  0.47923778800E+03  0.00000000000E+00 0. -1.
         25    1    1    2    0    0 -0.57491277122E+02 -0.19106418137E+03 -0.21951062733E+03  0.32190166799E+03  0.12500000000E+03 0.  0.
         25    1    1    2    0    0  0.57491277122E+02  0.19106418137E+03 -0.14207197952E+03  0.27499130116E+03  0.12500000000E+03 0.  0.
</event>
<event>
 4    0  0.2202290E-002  0.2683949E+03  0.7546771E-02  0.1102202E+00
         21   -1    0    0  502  501  0.00000000000E+00  0.00000000000E+00  0.72240992253E+02  0.72240992253E+02  0.00000000000E+00 0. -1.
         21   -1    0    0  501  502 -0.00000000000E+00 -0.00000000000E+00 -0.99715999016E+03  0.99715999016E+03  0.00000000000E+00 0. -1.
         25    1    1    2    0    0  0.15342888081E+03 -0.18879850736E+02 -0.82168836079E+03  0.84539554795E+03  0.12500000000E+03 0.  0.
         25    1    1    2    0    0 -0.15342888081E+03  0.18879850736E+02 -0.10323063712E+03  0.22400543446E+03  0.12500000000E+03 0.  0.
</event>
<event>
 4    0  0.2202290E-002  0.1882672E+03  0.7546771E-02  0.1160034E+00
         21   -1    0    0  502  501  0.00000000000E+00  0.00000000000E+00  0.13937063791E+03  0.13937063791E+03  0.00000000000E+00 0. -1.
         21   -1    0    0  501  502 -0.00000000000E+00 -0.00000000000E+00 -0.25431844459E+03  0.25431844459E+03  0.00000000000E+00 0. -1.
         25    1    1    2    0    0 -0.43433400741E+02  0.81816261922E+02 -0.16831882078E+03  0.22920860901E+03  0.12500000000E+03 0.  0.
         25    1    1    2    0    0  0.43433400741E+02 -0.81816261922E+02  0.53371014105E+02  0.16448047350E+03  0.12500000000E+03 0.  0.
</event>
<event>
 4    0  0.2202290E-002  0.2693770E+03  0.7546771E-02  0.1101637E+00
         21   -1    0    0  502  501  0.00000000000E+00  0.00000000000E+00  0.61711023528E+03  0.61711023528E+03  0.00000000000E+00 0. -1.
         21   -1    0    0  501  502 -0.00000000000E+00 -0.00000000000E+00 -0.11758669125E+03  0.11758669125E+03  0.00000000000E+00 0. -1.
         25    1    1    2    0    0  0.16742098870E+03 -0.12088289631E+03  0.86707395899E+02  0.25648710413E+03  0.12500000000E+03 0.  0.
         25    1    1    2    0    0 -0.16742098870E+03  0.12088289631E+03  0.41281614813E+03  0.47820982240E+03  0.12500000000E+03 0.  0.
</event>
<event>
 4    0  0.2202290E-002  0.1963508E+03  0.7546771E-02  0.1152855E+00
         21   -1    0    0  502  501  0.00000000000E+00  0.00000000000E+00  0.34351068817E+03  0.34351068817E+03  0.00000000000E+00 0.  1.
         21   -1    0    0  501  502 -0.00000000000E+00 -0.00000000000E+00 -0.11223417043E+03  0.11223417043E+03  0.00000000000E+00 0.  1.
         25    1    1    2    0    0  0.56743126150E+02  0.69327800160E+02 -0.26035308092E+02  0.15597744551E+03  0.12500000000E+03 0.  0.
         25    1    1    2    0    0 -0.56743126150E+02 -0.69327800160E+02  0.25731182582E+03  0.29976741309E+03  0.12500000000E+03 0.  0.
</event>
<event>
 4    0  0.2202290E-002  0.4210968E+03  0.7546771E-02  0.1036710E+00
         21   -1    0    0  502  501  0.00000000000E+00  0.00000000000E+00  0.18886191619E+03  0.18886191619E+03  0.00000000000E+00 0. -1.
         21   -1    0    0  501  502 -0.00000000000E+00 -0.00000000000E+00 -0.93890050140E+03  0.93890050140E+03  0.00000000000E+00 0. -1.
         25    1    1    2    0    0  0.29344968331E+03 -0.64090277057E+02 -0.17013864361E+02  0.32578328967E+03  0.12500000000E+03 0.  0.
         25    1    1    2    0    0 -0.29344968331E+03  0.64090277057E+02 -0.73302472084E+03  0.80197912792E+03  0.12500000000E+03 0.  0.
</event>
<event>
 4    0  0.2202290E-002  0.2187325E+03  0.7546771E-02  0.1134832E+00
         21   -1    0    0  502  501  0.00000000000E+00  0.00000000000E+00  0.20858522186E+02  0.20858522186E+02  0.00000000000E+00 0. -1.
         21   -1    0    0  501  502 -0.00000000000E+00 -0.00000000000E+00 -0.22937338104E+04  0.22937338104E+04  0.00000000000E+00 0. -1.
         25    1    1    2    0    0  0.40486862882E+02 -0.12265669434E+03 -0.17958962225E+04  0.18048689960E+04  0.12500000000E+03 0.  0.
         25    1    1    2    0    0 -0.40486862882E+02  0.12265669434E+03 -0.47697906575E+03  0.50972333662E+03  0.12500000000E+03 0.  0.
</event>
<event>
 4    0  0.2202290E-002  0.1977251E+03  0.7546771E-02  0.1151673E+00
         21   -1    0    0  502  501  0.00000000000E+00  0.00000000000E+00  0.30621210096E+03  0.30621210096E+03  0.00000000000E+00 0. -1.
         21   -1    0    0  501  502 -0.00000000000E+00 -0.00000000000E+00 -0.12767365402E+03  0.12767365402E+03  0.00000000000E+00 0. -1.
         25    1    1    2    0    0 -0.94311577785E+02  0.80319991462E+02  0.18816438241E+03  0.25763697239E+03  0.12500000000E+03 0.  0.
         25    1    1    2    0    0  0.94311577785E+02 -0.80319991462E+02 -0.96259354771E+01  0.17624878260E+03  0.12500000000E+03 0.  0.
</event>
<event>
 4    0  0.2202290E-002  0.2122905E+03  0.7546771E-02  0.1139765E+00
         21   -1    0    0  502  501  0.00000000000E+00  0.00000000000E+00  0.18869467136E+03  0.18869467136E+03  0.00000000000E+00 0. -1.
         21   -1    0    0  501  502 -0.00000000000E+00 -0.00000000000E+00 -0.23883693168E+03  0.23883693168E+03  0.00000000000E+00 0. -1.
         25    1    1    2    0    0 -0.17113056750E+03 -0.44972728166E+01 -0.13312662067E+02  0.21238673115E+03  0.12500000000E+03 0.  0.
         25    1    1    2    0    0  0.17113056750E+03  0.44972728166E+01 -0.36829598249E+02  0.21514487190E+03  0.12500000000E+03 0.  0.
</event>
<event>
 4    0  0.2202290E-002  0.2882102E+03  0.7546771E-02  0.1091287E+00
         21   -1    0    0  502  501  0.00000000000E+00  0.00000000000E+00  0.91513097571E+03  0.91513097571E+03  0.00000000000E+00 0.  1.
         21   -1    0    0  501  502 -0.00000000000E+00 -0.00000000000E+00 -0.90768582633E+02  0.90768582633E+02  0.00000000000E+00 0.  1.
         25    1    1    2    0    0 -0.18807368264E+03  0.95505785408E+02  0.67653094295E+03  0.71959167721E+03  0.12500000000E+03 0.  0.
         25    1    1    2    0    0  0.18807368264E+03 -0.95505785408E+02  0.14783145013E+03  0.28630788113E+03  0.12500000000E+03 0.  0.
</event>
<event>
 4    0  0.2202290E-002  0.1997682E+03  0.7546771E-02  0.1149935E+00
         21   -1    0    0  502  501  0.00000000000E+00  0.00000000000E+00  0.77719021384E+02  0.77719021384E+02  0.00000000000E+00 0. -1.
         21   -1    0    0  501  502 -0.00000000000E+00 -0.00000000000E+00 -0.51348238059E+03  0.51348238059E+03  0.00000000000E+00 0. -1.
         25    1    1    2    0    0  0.10846959152E+03 -0.87910324553E+02 -0.11548698838E+03  0.22012751289E+03  0.12500000000E+03 0.  0.
         25    1    1    2    0    0 -0.10846959152E+03  0.87910324553E+02 -0.32027637082E+03  0.37107388908E+03  0.12500000000E+03 0.  0.
</event>
<event>
 4    0  0.2202290E-002  0.2027330E+03  0.7546771E-02  0.1147453E+00
         21   -1    0    0  502  501  0.00000000000E+00  0.00000000000E+00  0.23591631098E+04  0.23591631098E+04  0.00000000000E+00 0. -1.
         21   -1    0    0  501  502 -0.00000000000E+00 -0.00000000000E+00 -0.17421720847E+02  0.17421720847E+02  0.00000000000E+00 0. -1.
         25    1    1    2    0    0 -0.93248426109E+02  0.60234618574E+02  0.49867137983E+03  0.52594830859E+03  0.12500000000E+03 0.  0.
         25    1    1    2    0    0  0.93248426109E+02 -0.60234618574E+02  0.18430700091E+04  0.18506365220E+04  0.12500000000E+03 0.  0.
</event>
<event>
 4    0  0.2202290E-002  0.2126814E+03  0.7546771E-02  0.1139460E+00
         21   -1    0    0  502  501  0.00000000000E+00  0.00000000000E+00  0.55221219641E+03  0.55221219641E+03  0.00000000000E+00 0. -1.
         21   -1    0    0  501  502 -0.00000000000E+00 -0.00000000000E+00 -0.81913002846E+02  0.81913002846E+02  0.00000000000E+00 0. -1.
         25    1    1    2    0    0  0.11514658891E+03  0.10898106745E+03  0.13544782651E+03  0.24311874404E+03  0.12500000000E+03 0.  0.
         25    1    1    2    0    0 -0.11514658891E+03 -0.10898106745E+03  0.33485136705E+03  0.39100645521E+03  0.12500000000E+03 0.  0.
</event>
<event>
 4    0  0.2202290E-002  0.2532454E+03  0.7546771E-02  0.1111271E+00
         21   -1    0    0  502  501  0.00000000000E+00  0.00000000000E+00  0.70920063394E+03  0.70920063394E+03  0.00000000000E+00 0. -1.
         21   -1    0    0  501  502 -0.00000000000E+00 -0.00000000000E+00 -0.90430330315E+02  0.90430330315E+02  0.00000000000E+00 0. -1.
         25    1    1    2    0    0 -0.12885742726E+03  0.14948415616E+03  0.46373735041E+03  0.51925627552E+03  0.12500000000E+03 0.  0.
         25    1    1    2    0    0  0.12885742726E+03 -0.14948415616E+03  0.15503295321E+03  0.28037468873E+03  0.12500000000E+03 0.  0.
</event>
<event>
 4    0  0.2202290E-002  0.2318124E+03  0.7546771E-02  0.1125371E+00
         21   -1    0    0  502  501  0.00000000000E+00  0.00000000000E+00  0.55740871592E+03  0.55740871592E+03  0.00000000000E+00 0.  1.
         21   -1    0    0  501  502 -0.00000000000E+00 -0.00000000000E+00 -0.96405003235E+02  0.96405003235E+02  0.00000000000E+00 0.  1.
         25    1    1    2    0    0  0.14843908777E+03 -0.71562525174E+02  0.37811529336E+03  0.43098901710E+03  0.12500000000E+03 0.  0.
         25    1    1    2    0    0 -0.14843908777E+03  0.71562525174E+02  0.82888419323E+02  0.22282470205E+03  0.12500000000E+03 0.  0.
</event>
<event>
 4    0  0.2202290E-002  0.2693204E+03  0.7546771E-02  0.1101669E+00
         21   -1    0    0  502  501  0.00000000000E+00  0.00000000000E+00  0.13312858434E+04  0.13312858434E+04  0.00000000000E+00 0. -1.
         21   -1    0    0  501  502 -0.00000000000E+00 -0.00000000000E+00 -0.54483755979E+02  0.54483755979E+02  0.00000000000E+00 0. -1.
         25    1    1    2    0    0  0.23529736595E+03  0.18634265245E+02  0.72738752362E+03  0.77487398703E+03  0.12500000000E+03 0.  0.
         25    1    1    2    0    0 -0.23529736595E+03 -0.18634265245E+02  0.54941456381E+03  0.61089561235E+03  0.12500000000E+03 0.  0.
</event>
<event>
 4    0  0.2202290E-002  0.2147756E+03  0.7546771E-02  0.1137839E+00
         21   -1    0    0  502  501  0.00000000000E+00  0.00000000000E+00  0.10195573904E+03  0.10195573904E+03  0.00000000000E+00 0. -1.
         21   -1    0    0  501  502 -0.00000000000E+00 -0.00000000000E+00 -0.45243709255E+03  0.45243709255E+03  0.00000000000E+00 0. -1.
         25    1    1    2    0    0  0.68091141185E+02 -0.78655049136E+02  0.58187547351E+01  0.16273253568E+03  0.12500000000E+03 0.  0.
         25    1    1    2    0    0 -0.68091141185E+02  0.78655049136E+02 -0.35630010824E+03  0.39166029591E+03  0.12500000000E+03 0.  0.
</event>
<event>
 4    0  0.2202290E-002  0.2018531E+03  0.7546771E-02  0.1148185E+00
         21   -1    0    0  502  501  0.00000000000E+00  0.00000000000E+00  0.39662557261E+03  0.39662557261E+03  0.00000000000E+00 0. -1.
         21   -1    0    0  501  502 -0.00000000000E+00 -0.00000000000E+00 -0.10272826806E+03  0.10272826806E+03  0.00000000000E+00 0. -1.
         25    1    1    2    0    0 -0.94689053382E+02 -0.12406177179E+03  0.11279704306E+03  0.22957681280E+03  0.12500000000E+03 0.  0.
         25    1    1    2    0    0  0.94689053382E+02  0.12406177179E+03  0.18110026150E+03  0.26977702787E+03  0.12500000000E+03 0.  0.
</event>
<event>
 4    0  0.2202290E-002  0.1783010E+03  0.7546771E-02  0.1169458E+00
         21   -1    0    0  502  501  0.00000000000E+00  0.00000000000E+00  0.43490309051E+03  0.43490309051E+03  0.00000000000E+00 0. -1.
         21   -1    0    0  501  502 -0.00000000000E+00 -0.00000000000E+00 -0.73099643114E+02  0.73099643114E+02  0.00000000000E+00 0. -1.
         25    1    1    2    0    0  0.48680515669E+02 -0.46783505677E+01  0.13707457675E+02  0.13492432681E+03  0.12500000000E+03 0.  0.
         25    1    1    2    0    0 -0.48680515669E+02  0.46783505677E+01  0.34809598972E+03  0.37307840682E+03  0.12500000000E+03 0.  0.
</event>
<event>
 4    0  0.2202290E-002  0.1852108E+03  0.7546771E-02  0.1162853E+00
         21   -1    0    0  502  501  0.00000000000E+00  0.00000000000E+00  0.25658045701E+03  0.25658045701E+03  0.00000000000E+00 0.  1.
         21   -1    0    0  501  502 -0.00000000000E+00 -0.00000000000E+00 -0.13369307755E+03  0.13369307755E+03  0.00000000000E+00 0.  1.
         25    1    1    2    0    0  0.10823500765E+03  0.81970941511E+02  0.77900622906E+02  0.20031864412E+03  0.12500000000E+03 0.  0.
         25    1    1    2    0    0 -0.10823500765E+03 -0.81970941511E+02  0.44986756558E+02  0.18995489043E+03  0.12500000000E+03 0.  0.
</event>
<event>
 4    0  0.2202290E-002  0.3652484E+03  0.7546771E-02  0.1056525E+00
         21   -1    0    0  502  501  0.00000000000E+00  0.00000000000E+00  0.81233652596E+03  0.81233652596E+03  0.00000000000E+00 0. -1.
         21   -1    0    0  501  502 -0.00000000000E+00 -0.00000000000E+00 -0.16422553169E+03  0.16422553169E+03  0.00000000000E+00 0. -1.
         25    1    1    2    0    0  0.17535307049E+03 -0.24625966031E+03  0.54122157449E+03  0.63240676176E+03  0.12500000000E+03 0.  0.
         25    1    1    2    0    0 -0.17535307049E+03  0.24625966031E+03  0.10688941978E+03  0.34415529589E+03  0.12500000000E+03 0.  0.
</event>
<event>
 4    0  0.2202290E-002  0.1826548E+03  0.7546771E-02  0.1165258E+00
         21   -1    0    0  502  501  0.00000000000E+00  0.00000000000E+00  0.16327639304E+03  0.16327639304E+03  0.00000000000E+00 0. -1.
         21   -1    0    0  501  502 -0.00000000000E+00 -0.00000000000E+00 -0.20433320807E+03  0.20433320807E+03  0.00000000000E+00 0. -1.
         25    1    1    2    0    0  0.73574691622E+02  0.96562582315E+02  0.34590721222E+02  0.17764877018E+03  0.12500000000E+03 0.  0.
         25    1    1    2    0    0 -0.73574691622E+02 -0.96562582315E+02 -0.75647536249E+02  0.18996083094E+03  0.12500000000E+03 0.  0.
</event>
<event>
 4    0  0.2202290E-002  0.2244222E+03  0.7546771E-02  0.1130628E+00
         21   -1    0    0  502  501  0.00000000000E+00  0.00000000000E+00  0.94385952708E+03  0.94385952708E+03  0.00000000000E+00 0.  1.
         21   -1    0    0  501  502 -0.00000000000E+00 -0.00000000000E+00 -0.53361037265E+02  0.53361037265E+02  0.00000000000E+00 0.  1.
         25    1    1    2    0    0 -0.73575763321E+02 -0.15654746574E+03  0.59949417227E+03  0.63634799015E+03  0.12500000000E+03 0.  0.
         25    1    1    2    0    0  0.73575763321E+02  0.15654746574E+03  0.29100431754E+03  0.36087257419E+03  0.12500000000E+03 0.  0.
</event>
<event>
 4    0  0.2202290E-002  0.4242583E+03  0.7546771E-02  0.1035689E+00
         21   -1    0    0  502  501  0.00000000000E+00  0.00000000000E+00  0.37557277227E+03  0.37557277227E+03  0.00000000000E+00 0. -1.
         21   -1    0    0  501  502 -0.00000000000E+00 -0.00000000000E+00 -0.47925498231E+03  0.47925498231E+03  0.00000000000E+00 0.  1.
         25    1    1    2    0    0  0.32800142704E+03  0.82022826099E+02  0.17355820268E+03  0.40007515526E+03  0.12500000000E+03 0.  0.
         25    1    1    2    0    0 -0.32800142704E+03 -0.82022826099E+02 -0.27724041272E+03  0.45475259932E+03  0.12500000000E+03 0.  0.
</event>
<event>
 4    0  0.2202290E-002  0.1997761E+03  0.7546771E-02  0.1149928E+00
         21   -1    0    0  502  501  0.00000000000E+00  0.00000000000E+00  0.19614242585E+02  0.19614242585E+02  0.00000000000E+00 0. -1.
         21   -1    0    0  501  502 -0.00000000000E+00 -0.00000000000E+00 -0.20347709132E+04  0.20347709132E+04  0.00000000000E+00 0. -1.
         25    1    1    2    0    0  0.46402833261E+02 -0.26625533539E+02 -0.17601571969E+04  0.17654009459E+04  0.12500000000E+03 0.  0.
         25    1    1    2    0    0 -0.46402833261E+02  0.26625533539E+02 -0.25499947372E+03  0.28898420989E+03  0.12500000000E+03 0.  0.
</event>
<event>
 4    0  0.2202290E-002  0.1766627E+03  0.7546771E-02  0.1171073E+00
         21   -1    0    0  502  501  0.00000000000E+00  0.00000000000E+00  0.21118441069E+03  0.21118441069E+03  0.00000000000E+00 0.  1.
         21   -1    0    0  501  502 -0.00000000000E+00 -0.00000000000E+00 -0.14778408521E+03  0.14778408521E+03  0.00000000000E+00 0.  1.
         25    1    1    2    0    0 -0.47020474839E+01 -0.59867553010E+02  0.14289435484E+03  0.19912315234E+03  0.12500000000E+03 0.  0.
         25    1    1    2    0    0  0.47020474839E+01  0.59867553010E+02 -0.79494029359E+02  0.15984534356E+03  0.12500000000E+03 0.  0.
</event>
<event>
 4    0  0.2202290E-002  0.3181480E+03  0.7546771E-02  0.1076505E+00
         21   -1    0    0  502  501  0.00000000000E+00  0.00000000000E+00  0.25330818519E+03  0.25330818519E+03  0.00000000000E+00 0. -1.
         21   -1    0    0  501  502 -0.00000000000E+00 -0.00000000000E+00 -0.39958511857E+03  0.39958511857E+03  0.00000000000E+00 0. -1.
         25    1    1    2    0    0  0.18580293629E+03 -0.21127067563E+03 -0.15545031402E+03  0.34488814077E+03  0.12500000000E+03 0.  0.
         25    1    1    2    0    0 -0.18580293629E+03  0.21127067563E+03  0.91733806395E+01  0.30800516299E+03  0.12500000000E+03 0.  0.
</event>
<event>
 4    0  0.2202290E-002  0.4265705E+03  0.7546771E-02  0.1034949E+00
         21   -1    0    0  502  501  0.00000000000E+00  0.00000000000E+00  0.13192517663E+04  0.13192517663E+04  0.00000000000E+00 0.  1.
         21   -1    0    0  501  502 -0.00000000000E+00 -0.00000000000E+00 -0.13792846127E+03  0.13792846127E+03  0.00000000000E+00 0.  1.
         25    1    1    2    0    0  0.24301921833E+03  0.32740017288E+03  0.60669815865E+03  0.74159076948E+03  0.12500000000E+03 0.  0.
         25    1    1    2    0    0 -0.24301921833E+03 -0.32740017288E+03  0.57462514641E+03  0.71558945811E+03  0.12500000000E+03 0.  0.
</event>
<event>
 4    0  0.2202290E-002  0.2206944E+03  0.7546771E-02  0.1133366E+00
         21   -1    0    0  502  501  0.00000000000E+00  0.00000000000E+00  0.17270608403E+03  0.17270608403E+03  0.00000000000E+00 0. -1.
         21   -1    0    0  501  502 -0.00000000000E+00 -0.00000000000E+00 -0.28201675582E+03  0.28201675582E+03  0.00000000000E+00 0. -1.
         25    1    1    2    0    0  0.96743185601E+02 -0.13166266081E+03  0.27675793550E+02  0.20756986718E+03  0.12500000000E+03 0.  0.
         25    1    1    2    0    0 -0.96743185601E+02  0.13166266081E+03 -0.13698646534E+03  0.24715297267E+03  0.12500000000E+03 0.  0.
</event>
<event>
 4    0  0.2202290E-002  0.2766707E+03  0.7546771E-02  0.1097521E+00
         21   -1    0    0  502  501  0.00000000000E+00  0.00000000000E+00  0.32235169568E+04  0.32235169568E+04  0.00000000000E+00 0.  1.
         21   -1    0    0  501  502 -0.00000000000E+00 -0.00000000000E+00 -0.23746319432E+02  0.23746319432E+02  0.00000000000E+00 0.  1.
         25    1    1    2    0    0 -0.20344899675E+03 -0.13574510349E+03  0.14049466761E+04  0.14315440581E+04  0.12500000000E+03 0.  0.
         25    1    1    2    0    0  0.20344899675E+03  0.13574510349E+03  0.17948239612E+04  0.18157192181E+04  0.12500000000E+03 0.  0.
</event>
<event>
 4    0  0.2202290E-002  0.1863948E+03  0.7546771E-02  0.1161754E+00
         21   -1    0    0  502  501  0.00000000000E+00  0.00000000000E+00  0.35557272592E+02  0.35557272592E+02  0.00000000000E+00 0.  1.
         21   -1    0    0  501  502 -0.00000000000E+00 -0.00000000000E+00 -0.97710067909E+03  0.97710067909E+03  0.00000000000E+00 0.  1.
         25    1    1    2    0    0  0.11731020952E+03 -0.59977235614E+02 -0.35684072134E+03  0.40039886920E+03  0.12500000000E+03 0.  0.
         25    1    1    2    0    0 -0.11731020952E+03  0.59977235614E+02 -0.58470268516E+03  0.61225908249E+03  0.12500000000E+03 0.  0.
</event>
<event>
 4    0  0.2202290E-002  0.3276451E+03  0.7546771E-02  0.1072184E+00
         21   -1    0    0  502  501  0.00000000000E+00  0.00000000000E+00  0.29631105048E+03  0.29631105048E+03  0.00000000000E+00 0.  1.
         21   -1    0    0  501  502 -0.00000000000E+00 -0.00000000000E+00 -0.36229259503E+03  0.36229259503E+03  0.00000000000E+00 0.  1.
         25    1    1    2    0    0 -0.23977924283E+03 -0.18104850916E+03  0.53287975307E+01  0.32546281515E+03  0.12500000000E+03 0.  0.
         25    1    1    2    0    0  0.23977924283E+03  0.18104850916E+03 -0.71310342081E+02  0.33314083035E+03  0.12500000000E+03 0.  0.
</event>
<event>
 4    0  0.2202290E-002  0.2189757E+03  0.7546771E-02  0.1134649E+00
         21   -1    0    0  502  501  0.00000000000E+00  0.00000000000E+00  0.88707559874E+03  0.88707559874E+03  0.00000000000E+00 0.  1.
         21   -1    0    0  501  502 -0.00000000000E+00 -0.00000000000E+00 -0.54054426586E+02  0.54054426586E+02  0.00000000000E+00 0.  1.
         25    1    1    2    0    0  0.19418109161E+02 -0.87989435008E+02  0.75084926891E+03  0.76649776794E+03  0.12500000000E+03 0.  0.
         25    1    1    2    0    0 -0.19418109161E+02  0.87989435008E+02  0.82171903245E+02  0.17463225738E+03  0.12500000000E+03 0.  0.
</event>
<event>
 4    0  0.2202290E-002  0.2187824E+03  0.7546771E-02  0.1134794E+00
         21   -1    0    0  502  501  0.00000000000E+00  0.00000000000E+00  0.14488598148E+04  0.14488598148E+04  0.00000000000E+00 0.  1.
         21   -1    0    0  501  502 -0.00000000000E+00 -0.00000000000E+00 -0.33036833438E+02  0.33036833438E+02  0.00000000000E+00 0.  1.
         25    1    1    2    0    0 -0.11486111270E+03 -0.66012442067E+02  0.29743644252E+03  0.34877522139E+03  0.12500000000E+03 0.  0.
         25    1    1    2    0    0  0.11486111270E+03  0.66012442067E+02  0.11183865389E+04  0.11331214269E+04  0.12500000000E+03 0.  0.
</event>
<event>
 4    0  0.2202290E-002  0.1902319E+03  0.7546771E-02  0.1158252E+00
         21   -1    0    0  502  501  0.00000000000E+00  0.00000000000E+00  0.47558534397E+02  0.47558534397E+02  0.00000000000E+00 0.  1.
         21   -1    0    0  501  502 -0.00000000000E+00 -0.00000000000E+00 -0.76091853408E+03  0.76091853408E+03  0.00000000000E+00 0.  1.
         25    1    1    2    0    0 -0.56184340387E+02  0.13110278472E+03 -0.32526552439E+03  0.37651996178E+03  0.12500000000E+03 0.  0.
         25    1    1    2    0    0  0.56184340387E+02 -0.13110278472E+03 -0.38809447530E+03  0.43195710669E+03  0.12500000000E+03 0.  0.
</event>
<event>
 4    0  0.2202290E-002  0.2867481E+03  0.7546771E-02  0.1092059E+00
         21   -1    0    0  502  501  0.00000000000E+00  0.00000000000E+00  0.14068085976E+04  0.14068085976E+04  0.00000000000E+00 0.  1.
         21   -1    0    0  501  502 -0.00000000000E+00 -0.00000000000E+00 -0.58447512566E+02  0.58447512566E+02  0.00000000000E+00 0. -1.
         25    1    1    2    0    0  0.51706014862E+02  0.25221651624E+03  0.62899467602E+03  0.69104702119E+03  0.12500000000E+03 0.  0.
         25    1    1    2    0    0 -0.51706014862E+02 -0.25221651624E+03  0.71936640904E+03  0.77420908900E+03  0.12500000000E+03 0.  0.
</event>
<event>
 4    0  0.2202290E-002  0.1655465E+03  0.7546771E-02  0.1182573E+00
         21   -1    0    0  502  501  0.00000000000E+00  0.00000000000E+00  0.20831543075E+02  0.20831543075E+02  0.00000000000E+00 0. -1.
         21   -1    0    0  501  502 -0.00000000000E+00 -0.00000000000E+00 -0.13155842610E+04  0.13155842610E+04  0.00000000000E+00 0. -1.
         25    1    1    2    0    0  0.63978321595E+01  0.78883964567E+02 -0.34756744387E+03  0.37774560244E+03  0.12500000000E+03 0.  0.
         25    1    1    2    0    0 -0.63978321595E+01 -0.78883964567E+02 -0.94718527402E+03  0.95867020160E+03  0.12500000000E+03 0.  0.
</event>
<event>
 4    0  0.2202290E-002  0.2391287E+03  0.7546771E-02  0.1120375E+00
         21   -1    0    0  502  501  0.00000000000E+00  0.00000000000E+00  0.64691763396E+03  0.64691763396E+03  0.00000000000E+00 0. -1.
         21   -1    0    0  501  502 -0.00000000000E+00 -0.00000000000E+00 -0.88392293479E+02  0.88392293479E+02  0.00000000000E+00 0. -1.
         25    1    1    2    0    0  0.48801557807E+02  0.16490857478E+03  0.44755221813E+03  0.49548402399E+03  0.12500000000E+03 0.  0.
         25    1    1    2    0    0 -0.48801557807E+02 -0.16490857478E+03  0.11097312236E+03  0.23982590345E+03  0.12500000000E+03 0.  0.
</event>
<event>
 4    0  0.2202290E-002  0.2059369E+03  0.7546771E-02  0.1144824E+00
         21   -1    0    0  502  501  0.00000000000E+00  0.00000000000E+00  0.17935463731E+03  0.17935463731E+03  0.00000000000E+00 0.  1.
         21   -1    0    0  501  502 -0.00000000000E+00 -0.00000000000E+00 -0.23645901929E+03  0.23645901929E+03  0.00000000000E+00 0.  1.
         25    1    1    2    0    0 -0.15494535530E+03  0.50681890581E+01 -0.81506495477E+02  0.21517913113E+03  0.12500000000E+03 0.  0.
         25    1    1    2    0    0  0.15494535530E+03 -0.50681890581E+01  0.24402113493E+02  0.20063452547E+03  0.12500000000E+03 0.  0.
</event>
<event>
 4    0  0.2202290E-002  0.1903961E+03  0.7546771E-02  0.1158105E+00
         21   -1    0    0  502  501  0.00000000000E+00  0.00000000000E+00  0.69052695928E+02  0.69052695928E+02  0.00000000000E+00 0.  1.
         21   -1    0    0  501  502 -0.00000000000E+00 -0.00000000000E+00 -0.52497117871E+03  0.52497117871E+03  0.00000000000E+00 0.  1.
         25    1    1    2    0    0 -0.13580870712E+03 -0.44832314802E+02 -0.24840219944E+03  0.31270208516E+03  0.12500000000E+03 0.  0.
         25    1    1    2    0    0  0.13580870712E+03  0.44832314802E+02 -0.20751628335E+03  0.28132178948E+03  0.12500000000E+03 0.  0.
</event>
<event>
 4    0  0.2202290E-002  0.2855855E+03  0.7546771E-02  0.1092677E+00
         21   -1    0    0  502  501  0.00000000000E+00  0.00000000000E+00  0.15637716733E+03  0.15637716733E+03  0.00000000000E+00 0.  1.
         21   -1    0    0  501  502 -0.00000000000E+00 -0.00000000000E+00 -0.52155344582E+03  0.52155344582E+03  0.00000000000E+00 0.  1.
         25    1    1    2    0    0  0.20045036182E+03 -0.15224956986E+02 -0.37220445392E+03  0.44110463881E+03  0.12500000000E+03 0.  0.
         25    1    1    2    0    0 -0.20045036182E+03  0.15224956986E+02  0.70281754262E+01  0.23682597433E+03  0.12500000000E+03 0.  0.
</event>
<event>
 4    0  0.2202290E-002  0.3054113E+03  0.7546771E-02  0.1082566E+00
         21   -1    0    0  502  501  0.00000000000E+00  0.00000000000E+00  0.26236417777E+03  0.26236417777E+03  0.00000000000E+00 0.  1.
         21   -1    0    0  501  502 -0.00000000000E+00 -0.00000000000E+00 -0.35552133266E+03  0.35552133266E+03  0.00000000000E+00 0.  1.
         25    1    1    2    0    0 -0.77165897058E+02  0.25741502262E+02  0.22302498468E+03  0.26829525601E+03  0.12500000000E+03 0.  0.
         25    1    1    2    0    0  0.77165897058E+02 -0.25741502262E+02 -0.31618213956E+03  0.34959025442E+03  0.12500000000E+03 0.  0.
</event>
<event>
 4    0  0.2202290E-002  0.2405233E+03  0.7546771E-02  0.1119445E+00
         21   -1    0    0  502  501  0.00000000000E+00  0.00000000000E+00  0.90522487904E+02  0.90522487904E+02  0.00000000000E+00 0.  1.
         21   -1    0    0  501  502 -0.00000000000E+00 -0.00000000000E+00 -0.63908379709E+03  0.63908379709E+03  0.00000000000E+00 0.  1.
         25    1    1    2    0    0 -0.15839685497E+03  0.93161421814E+02 -0.41376683685E+03  0.46967713320E+03  0.12500000000E+03 0.  0.
         25    1    1    2    0    0  0.15839685497E+03 -0.93161421814E+02 -0.13479447234E+03  0.25992915179E+03  0.12500000000E+03 0.  0.
</event>
<event>
 4    0  0.2202290E-002  0.3071621E+03  0.7546771E-02  0.1081714E+00
         21   -1    0    0  502  501  0.00000000000E+00  0.00000000000E+00  0.73089891079E+03  0.73089891079E+03  0.00000000000E+00 0. -1.
         21   -1    0    0  501  502 -0.00000000000E+00 -0.00000000000E+00 -0.12908566711E+03  0.12908566711E+03  0.00000000000E+00 0. -1.
         25    1    1    2    0    0  0.21820585948E+03  0.16738676147E+03  0.37874145587E+03  0.48446074704E+03  0.12500000000E+03 0.  0.
         25    1    1    2    0    0 -0.21820585948E+03 -0.16738676147E+03  0.22307178781E+03  0.37552383086E+03  0.12500000000E+03 0.  0.
</event>
<event>
 4    0  0.2202290E-002  0.2017887E+03  0.7546771E-02  0.1148239E+00
         21   -1    0    0  502  501  0.00000000000E+00  0.00000000000E+00  0.38362732429E+03  0.38362732429E+03  0.00000000000E+00 0.  1.
         21   -1    0    0  501  502 -0.00000000000E+00 -0.00000000000E+00 -0.10614127520E+03  0.10614127520E+03  0.00000000000E+00 0.  1.
         25    1    1    2    0    0  0.98592474783E+02 -0.83827394164E+02  0.27874559024E+02  0.18207003910E+03  0.12500000000E+03 0.  0.
         25    1    1    2    0    0 -0.98592474783E+02  0.83827394164E+02  0.24961149007E+03  0.30769856040E+03  0.12500000000E+03 0.  0.
</event>
<event>
 4    0  0.2202290E-002  0.2494798E+03  0.7546771E-02  0.1113634E+00
         21   -1    0    0  502  501  0.00000000000E+00  0.00000000000E+00  0.32972428143E+02  0.32972428143E+02  0.00000000000E+00 0.  1.
         21   -1    0    0  501  502 -0.00000000000E+00 -0.00000000000E+00 -0.18876431557E+04  0.18876431557E+04  0.00000000000E+00 0.  1.
         25    1    1    2    0    0 -0.20431733093E+03 -0.20418129342E+01 -0.11958302336E+04  0.12195838176E+04  0.12500000000E+03 0.  0.
         25    1    1    2    0    0  0.20431733093E+03  0.20418129342E+01 -0.65884049402E+03  0.70103176624E+03  0.12500000000E+03 0.  0.
</event>
<event>
 4    0  0.2202290E-002  0.1948677E+03  0.7546771E-02  0.1154143E+00
         21   -1    0    0  502  501  0.00000000000E+00  0.00000000000E+00  0.29936516813E+04  0.29936516813E+04  0.00000000000E+00 0. -1.
         21   -1    0    0  501  502 -0.00000000000E+00 -0.00000000000E+00 -0.12684650170E+02  0.12684650170E+02  0.00000000000E+00 0. -1.
         25    1    1    2    0    0  0.12086804880E+03 -0.77767199518E+02  0.11732224682E+04  0.11885843606E+04  0.12500000000E+03 0.  0.
         25    1    1    2    0    0 -0.12086804880E+03  0.77767199518E+02  0.18077445630E+04  0.18177519708E+04  0.12500000000E+03 0.  0.
</event>
<event>
 4    0  0.2202290E-002  0.2316030E+03  0.7546771E-02  0.1125517E+00
         21   -1    0    0  502  501  0.00000000000E+00  0.00000000000E+00  0.46148281075E+02  0.46148281075E+02  0.00000000000E+00 0.  1.
         21   -1    0    0  501  502 -0.00000000000E+00 -0.00000000000E+00 -0.11623389832E+04  0.11623389832E+04  0.00000000000E+00 0.  1.
         25    1    1    2    0    0 -0.14229845735E+02  0.69129104122E+02 -0.83912296319E+02  0.16627565973E+03  0.12500000000E+03 0.  0.
         25    1    1    2    0    0  0.14229845735E+02 -0.69129104122E+02 -0.10322784058E+04  0.10422116045E+04  0.12500000000E+03 0.  0.
</event>
<event>
 4    0  0.2202290E-002  0.1977916E+03  0.7546771E-02  0.1151616E+00
         21   -1    0    0  502  501  0.00000000000E+00  0.00000000000E+00  0.27210402060E+03  0.27210402060E+03  0.00000000000E+00 0. -1.
         21   -1    0    0  501  502 -0.00000000000E+00 -0.00000000000E+00 -0.14377411410E+03  0.14377411410E+03  0.00000000000E+00 0. -1.
         25    1    1    2    0    0 -0.11975728511E+03  0.35203720660E+01  0.16468584492E+03  0.23895737669E+03  0.12500000000E+03 0.  0.
         25    1    1    2    0    0  0.11975728511E+03 -0.35203720660E+01 -0.36355938419E+02  0.17692075801E+03  0.12500000000E+03 0.  0.
</event>
<event>
 4    0  0.2202290E-002  0.1568786E+03  0.7546771E-02  0.1192267E+00
         21   -1    0    0  502  501  0.00000000000E+00  0.00000000000E+00  0.19133493578E+03  0.19133493578E+03  0.00000000000E+00 0. -1.
         21   -1    0    0  501  502 -0.00000000000E+00 -0.00000000000E+00 -0.12862732604E+03  0.12862732604E+03  0.00000000000E+00 0. -1.
         25    1    1    2    0    0 -0.47282275557E+02  0.61977086423E+02 -0.23649203690E+02  0.14920139965E+03  0.12500000000E+03 0.  0.
         25    1    1    2    0    0  0.47282275557E+02 -0.61977086423E+02  0.86356813424E+02  0.17076086217E+03  0.12500000000E+03 0.  0.
</event>
<event>
 4    0  0.2202290E-002  0.4021817E+03  0.7546771E-02  0.1043027E+00
         21   -1    0    0  502  501  0.00000000000E+00  0.00000000000E+00  0.17131840345E+03  0.17131840345E+03  0.00000000000E+00 0.  1.
         21   -1    0    0  501  502 -0.00000000000E+00 -0.00000000000E+00 -0.94414922411E+03  0.94414922411E+03  0.00000000000E+00 0.  1.
         25    1    1    2    0    0 -0.36949061539E+03  0.96448873475E+02 -0.36241836109E+03  0.54110790838E+03  0.12500000000E+03 0.  0.
         25    1    1    2    0    0  0.36949061539E+03 -0.96448873475E+02 -0.41041245957E+03  0.57435971918E+03  0.12500000000E+03 0.  0.
</event>
<event>
 4    0  0.2202290E-002  0.1930417E+03  0.7546771E-02  0.1155746E+00
         21   -1    0    0  502  501  0.00000000000E+00  0.00000000000E+00  0.42409494745E+03  0.42409494745E+03  0.00000000000E+00 0. -1.
         21   -1    0    0  501  502 -0.00000000000E+00 -0.00000000000E+00 -0.87869704395E+02  0.87869704395E+02  0.00000000000E+00 0. -1.
         25    1    1    2    0    0 -0.10830526080E+03 -0.43747800216E+02  0.49535576850E+02  0.17810859866E+03  0.12500000000E+03 0.  0.
         25    1    1    2    0    0  0.10830526080E+03  0.43747800216E+02  0.28668966620E+03  0.33385605319E+03  0.12500000000E+03 0.  0.
</event>
<event>
 4    0  0.2202290E-002  0.1551225E+03  0.7546771E-02  0.1194316E+00
         21   -1    0    0  502  501  0.00000000000E+00  0.00000000000E+00  0.18587964326E+03  0.18587964326E+03  0.00000000000E+00 0. -1.
         21   -1    0    0  501  502 -0.00000000000E+00 -0.00000000000E+00 -0.12945474518E+03  0.12945474518E+03  0.00000000000E+00 0. -1.
         25    1    1    2    0    0 -0.50340465850E+02 -0.13220101010E+02 -0.48719801280E+02  0.14390119044E+03  0.12500000000E+03 0.  0.
         25    1    1    2    0    0  0.50340465850E+02  0.13220101010E+02  0.10514469936E+03  0.17143319800E+03  0.12500000000E+03 0.  0.
</event>
<event>
 4    0  0.2202290E-002  0.1966329E+03  0.7546771E-02  0.1152611E+00
         21   -1    0    0  502  501  0.00000000000E+00  0.00000000000E+00  0.37239889532E+02  0.37239889532E+02  0.00000000000E+00 0. -1.
         21   -1    0    0  501  502 -0.00000000000E+00 -0.00000000000E+00 -0.10382544497E+04  0.10382544497E+04  0.00000000000E+00 0. -1.
         25    1    1    2    0    0 -0.10581169787E+02  0.10897346508E+03 -0.78801429595E+03  0.80534384450E+03  0.12500000000E+03 0.  0.
         25    1    1    2    0    0  0.10581169787E+02 -0.10897346508E+03 -0.21300026418E+03  0.27015049470E+03  0.12500000000E+03 0.  0.
</event>
<event>
 4    0  0.2202290E-002  0.1878249E+03  0.7546771E-02  0.1160438E+00
         21   -1    0    0  502  501  0.00000000000E+00  0.00000000000E+00  0.74090225652E+03  0.74090225652E+03  0.00000000000E+00 0. -1.
         21   -1    0    0  501  502 -0.00000000000E+00 -0.00000000000E+00 -0.47615187542E+02  0.47615187542E+02  0.00000000000E+00 0. -1.
         25    1    1    2    0    0 -0.24666259168E+02 -0.12625932618E+03  0.22970866157E+03  0.29144624031E+03  0.12500000000E+03 0.  0.
         25    1    1    2    0    0  0.24666259168E+02  0.12625932618E+03  0.46357840741E+03  0.49707120376E+03  0.12500000000E+03 0.  0.
</event>
<event>
 4    0  0.2202290E-002  0.2131481E+03  0.7546771E-02  0.1139097E+00
         21   -1    0    0  502  501  0.00000000000E+00  0.00000000000E+00  0.41823474842E+02  0.41823474842E+02  0.00000000000E+00 0. -1.
         21   -1    0    0  501  502 -0.00000000000E+00 -0.00000000000E+00 -0.10862824813E+04  0.10862824813E+04  0.00000000000E+00 0. -1.
         25    1    1    2    0    0  0.29062330162E+01  0.39382913933E+02 -0.96699347332E+03  0.97583853046E+03  0.12500000000E+03 0.  0.
         25    1    1    2    0    0 -0.29062330162E+01 -0.39382913933E+02 -0.77465533158E+02  0.15226742569E+03  0.12500000000E+03 0.  0.
</event>
<event>
 4    0  0.2202290E-002  0.2352189E+03  0.7546771E-02  0.1123019E+00
         21   -1    0    0  502  501  0.00000000000E+00  0.00000000000E+00  0.40041536234E+02  0.40041536234E+02  0.00000000000E+00 0. -1.
         21   -1    0    0  501  502 -0.00000000000E+00 -0.00000000000E+00 -0.13817632328E+04  0.13817632328E+04  0.00000000000E+00 0. -1.
         25    1    1    2    0    0  0.12831575162E+03  0.10749152091E+03 -0.99754303081E+03  0.10191842118E+04  0.12500000000E+03 0.  0.
         25    1    1    2    0    0 -0.12831575162E+03 -0.10749152091E+03 -0.34417866578E+03  0.40262055730E+03  0.12500000000E+03 0.  0.
</event>
<event>
 4    0  0.2202290E-002  0.2284040E+03  0.7546771E-02  0.1127768E+00
         21   -1    0    0  502  501  0.00000000000E+00  0.00000000000E+00  0.43002439133E+02  0.43002439133E+02  0.00000000000E+00 0.  1.
         21   -1    0    0  501  502 -0.00000000000E+00 -0.00000000000E+00 -0.12131490322E+04  0.12131490322E+04  0.00000000000E+00 0.  1.
         25    1    1    2    0    0 -0.96819356291E+02 -0.61183294494E+02 -0.10059523531E+04  0.10201384808E+04  0.12500000000E+03 0.  0.
         25    1    1    2    0    0  0.96819356291E+02  0.61183294494E+02 -0.16419424004E+03  0.23601299062E+03  0.12500000000E+03 0.  0.
</event>
<event>
 4    0  0.2202290E-002  0.2348495E+03  0.7546771E-02  0.1123272E+00
         21   -1    0    0  502  501  0.00000000000E+00  0.00000000000E+00  0.62584687474E+02  0.62584687474E+02  0.00000000000E+00 0.  1.
         21   -1    0    0  501  502 -0.00000000000E+00 -0.00000000000E+00 -0.88127457364E+03  0.88127457364E+03  0.00000000000E+00 0.  1.
         25    1    1    2    0    0 -0.19553276292E+03 -0.28535345528E+02 -0.45346092863E+03  0.51019519903E+03  0.12500000000E+03 0.  0.
         25    1    1    2    0    0  0.19553276292E+03  0.28535345528E+02 -0.36522895753E+03  0.43366406208E+03  0.12500000000E+03 0.  0.
</event>
<event>
 4    0  0.2202290E-002  0.2153359E+03  0.7546771E-02  0.1137409E+00
         21   -1    0    0  502  501  0.00000000000E+00  0.00000000000E+00  0.17909644766E+03  0.17909644766E+03  0.00000000000E+00 0.  1.
         21   -1    0    0  501  502 -0.00000000000E+00 -0.00000000000E+00 -0.25890817254E+03  0.25890817254E+03  0.00000000000E+00 0.  1.
         25    1    1    2    0    0 -0.12396820824E+03 -0.36834818526E+02  0.80514616515E+02  0.19705969650E+03  0.12500000000E+03 0.  0.
         25    1    1    2    0    0  0.12396820824E+03  0.36834818526E+02 -0.16032634140E+03  0.24094492370E+03  0.12500000000E+03 0.  0.
</event>
<event>
 4    0  0.2202290E-002  0.1835213E+03  0.7546771E-02  0.1164438E+00
         21   -1    0    0  502  501  0.00000000000E+00  0.00000000000E+00  0.24885851959E+04  0.24885851959E+04  0.00000000000E+00 0.  1.
         21   -1    0    0  501  502 -0.00000000000E+00 -0.00000000000E+00 -0.13533815297E+02  0.13533815297E+02  0.00000000000E+00 0.  1.
         25    1    1    2    0    0  0.86564356356E+02 -0.65274099098E+01  0.53836016983E+03  0.55945747589E+03  0.12500000000E+03 0.  0.
         25    1    1    2    0    0 -0.86564356356E+02  0.65274099098E+01  0.19366912107E+04  0.19426615353E+04  0.12500000000E+03 0.  0.
</event>
<event>
 4    0  0.2202290E-002  0.2587914E+03  0.7546771E-02  0.1107872E+00
         21   -1    0    0  502  501  0.00000000000E+00  0.00000000000E+00  0.15322896052E+03  0.15322896052E+03  0.00000000000E+00 0.  1.
         21   -1    0    0  501  502 -0.00000000000E+00 -0.00000000000E+00 -0.43707793502E+03  0.43707793502E+03  0.00000000000E+00 0.  1.
         25    1    1    2    0    0  0.57589162072E+02  0.20972209601E+02 -0.39073193945E+03  0.41479247061E+03  0.12500000000E+03 0.  0.
         25    1    1    2    0    0 -0.57589162072E+02 -0.20972209601E+02  0.10688296495E+03  0.17551442494E+03  0.12500000000E+03 0.  0.
</event>
<event>
 4    0  0.2202290E-002  0.1875292E+03  0.7546771E-02  0.1160709E+00
         21   -1    0    0  502  501  0.00000000000E+00  0.00000000000E+00  0.58283303828E+02  0.58283303828E+02  0.00000000000E+00 0. -1.
         21   -1    0    0  501  502 -0.00000000000E+00 -0.00000000000E+00 -0.60338396587E+03  0.60338396587E+03  0.00000000000E+00 0. -1.
         25    1    1    2    0    0 -0.76385283803E+02 -0.10642312282E+03 -0.35864510242E+03  0.40176100127E+03  0.12500000000E+03 0.  0.
         25    1    1    2    0    0  0.76385283803E+02  0.10642312282E+03 -0.18645555962E+03  0.25990626843E+03  0.12500000000E+03 0.  0.
</event>
<event>
 4    0  0.2202290E-002  0.1929988E+03  0.7546771E-02  0.1155784E+00
         21   -1    0    0  502  501  0.00000000000E+00  0.00000000000E+00  0.30494841229E+02  0.30494841229E+02  0.00000000000E+00 0.  1.
         21   -1    0    0  501  502 -0.00000000000E+00 -0.00000000000E+00 -0.12214705732E+04  0.12214705732E+04  0.00000000000E+00 0.  1.
         25    1    1    2    0    0 -0.10699211151E+03 -0.87288989869E+02 -0.43148097501E+03  0.46996543647E+03  0.12500000000E+03 0.  0.
         25    1    1    2    0    0  0.10699211151E+03  0.87288989869E+02 -0.75949475696E+03  0.78199997796E+03  0.12500000000E+03 0.  0.
</event>
<event>
 4    0  0.2202290E-002  0.2115625E+03  0.7546771E-02  0.1140335E+00
         21   -1    0    0  502  501  0.00000000000E+00  0.00000000000E+00  0.46381819403E+02  0.46381819403E+02  0.00000000000E+00 0.  1.
         21   -1    0    0  501  502 -0.00000000000E+00 -0.00000000000E+00 -0.96500532412E+03  0.96500532412E+03  0.00000000000E+00 0.  1.
         25    1    1    2    0    0  0.16614161703E+03  0.21135711927E+02 -0.38061572677E+03  0.43421548417E+03  0.12500000000E+03 0.  0.
         25    1    1    2    0    0 -0.16614161703E+03 -0.21135711927E+02 -0.53800777794E+03  0.57717165935E+03  0.12500000000E+03 0.  0.
</event>
<event>
 4    0  0.2202290E-002  0.1845854E+03  0.7546771E-02  0.1163438E+00
         21   -1    0    0  502  501  0.00000000000E+00  0.00000000000E+00  0.14163056450E+03  0.14163056450E+03  0.00000000000E+00 0. -1.
         21   -1    0    0  501  502 -0.00000000000E+00 -0.00000000000E+00 -0.24056796195E+03  0.24056796195E+03  0.00000000000E+00 0. -1.
         25    1    1    2    0    0  0.76506911873E+00  0.12841086560E+03 -0.95265942465E+02  0.20295451591E+03  0.12500000000E+03 0.  0.
         25    1    1    2    0    0 -0.76506911873E+00 -0.12841086560E+03 -0.36714549798E+01  0.17924401054E+03  0.12500000000E+03 0.  0.
</event>
<event>
 4    0  0.2202290E-002  0.2709184E+03  0.7546771E-02  0.1100755E+00
         21   -1    0    0  502  501  0.00000000000E+00  0.00000000000E+00  0.90478435895E+03  0.90478435895E+03  0.00000000000E+00 0.  1.
         21   -1    0    0  501  502 -0.00000000000E+00 -0.00000000000E+00 -0.81120763256E+02  0.81120763256E+02  0.00000000000E+00 0.  1.
         25    1    1    2    0    0  0.79539544865E+02  0.20988875465E+03  0.25539221583E+03  0.36225683215E+03  0.12500000000E+03 0.  0.
         25    1    1    2    0    0 -0.79539544865E+02 -0.20988875465E+03  0.56827137986E+03  0.62364829006E+03  0.12500000000E+03 0.  0.
</event>
<event>
 4    0  0.2202290E-002  0.1968412E+03  0.7546771E-02  0.1152432E+00
         21   -1    0    0  502  501  0.00000000000E+00  0.00000000000E+00  0.94956587918E+02  0.94956587918E+02  0.00000000000E+00 0. -1.
         21   -1    0    0  501  502 -0.00000000000E+00 -0.00000000000E+00 -0.40804406928E+03  0.40804406928E+03  0.00000000000E+00 0. -1.
         25    1    1    2    0    0 -0.44404681567E+02  0.42837537544E+02  0.21024709764E+02  0.14097470975E+03  0.12500000000E+03 0.  0.
         25    1    1    2    0    0  0.44404681567E+02 -0.42837537544E+02 -0.33411219112E+03  0.36202594745E+03  0.12500000000E+03 0.  0.
</event>
<event>
 4    0  0.2202290E-002  0.3444584E+03  0.7546771E-02  0.1064913E+00
         21   -1    0    0  502  501  0.00000000000E+00  0.00000000000E+00  0.18185363979E+04  0.18185363979E+04  0.00000000000E+00 0. -1.
         21   -1    0    0  501  502 -0.00000000000E+00 -0.00000000000E+00 -0.65245648668E+02  0.65245648668E+02  0.00000000000E+00 0. -1.
         25    1    1    2    0    0 -0.14216030523E+03  0.18879080701E+03  0.28273605642E+03  0.38912234425E+03  0.12500000000E+03 0.  0.
         25    1    1    2    0    0  0.14216030523E+03 -0.18879080701E+03  0.14705546928E+04  0.14946597023E+04  0.12500000000E+03 0.  0.
</event>
<event>
 4    0  0.2202290E-002  0.2207089E+03  0.7546771E-02  0.1133356E+00
         21   -1    0    0  502  501  0.00000000000E+00  0.00000000000E+00  0.15081650292E+03  0.15081650292E+03  0.00000000000E+00 0.  1.
         21   -1    0    0  501  502 -0.00000000000E+00 -0.00000000000E+00 -0.32299135685E+03  0.32299135685E+03  0.00000000000E+00 0.  1.
         25    1    1    2    0    0  0.64741029843E+02 -0.12368663734E+03  0.39077940369E+02  0.19142066405E+03  0.12500000000E+03 0.  0.
         25    1    1    2    0    0 -0.64741029843E+02  0.12368663734E+03 -0.21125279430E+03  0.28238719571E+03  0.12500000000E+03 0.  0.
</event>
<event>
 4    0  0.2202290E-002  0.2680822E+03  0.7546771E-02  0.1102382E+00
         21   -1    0    0  502  501  0.00000000000E+00  0.00000000000E+00  0.44159715232E+03  0.44159715232E+03  0.00000000000E+00 0. -1.
         21   -1    0    0  501  502 -0.00000000000E+00 -0.00000000000E+00 -0.16274578201E+03  0.16274578201E+03  0.00000000000E+00 0. -1.
         25    1    1    2    0    0 -0.18081687134E+03 -0.14067403159E+03  0.70317376475E+02  0.27028403127E+03  0.12500000000E+03 0.  0.
         25    1    1    2    0    0  0.18081687134E+03  0.14067403159E+03  0.20853399383E+03  0.33405890305E+03  0.12500000000E+03 0.  0.
</event>
<event>
 4    0  0.2202290E-002  0.2572341E+03  0.7546771E-02  0.1108817E+00
         21   -1    0    0  502  501  0.00000000000E+00  0.00000000000E+00  0.46366155481E+03  0.46366155481E+03  0.00000000000E+00 0. -1.
         21   -1    0    0  501  502 -0.00000000000E+00 -0.00000000000E+00 -0.14271048881E+03  0.14271048881E+03  0.00000000000E+00 0. -1.
         25    1    1    2    0    0 -0.20100076182E+03  0.85307066025E+02  0.97379653464E+02  0.26978954516E+03  0.12500000000E+03 0.  0.
         25    1    1    2    0    0  0.20100076182E+03 -0.85307066025E+02  0.22357141253E+03  0.33658249846E+03  0.12500000000E+03 0.  0.
</event>
<event>
 4    0  0.2202290E-002  0.2086069E+03  0.7546771E-02  0.1142674E+00
         21   -1    0    0  502  501  0.00000000000E+00  0.00000000000E+00  0.44270847422E+02  0.44270847422E+02  0.00000000000E+00 0.  1.
         21   -1    0    0  501  502 -0.00000000000E+00 -0.00000000000E+00 -0.98296820520E+03  0.98296820520E+03  0.00000000000E+00 0.  1.
         25    1    1    2    0    0 -0.11539003254E+03 -0.13461723275E+02 -0.76476204360E+03  0.78357007404E+03  0.12500000000E+03 0.  0.
         25    1    1    2    0    0  0.11539003254E+03  0.13461723275E+02 -0.17393531418E+03  0.24366897858E+03  0.12500000000E+03 0.  0.
</event>
<event>
 4    0  0.2202290E-002  0.1617142E+03  0.7546771E-02  0.1186775E+00
         21   -1    0    0  502  501  0.00000000000E+00  0.00000000000E+00  0.76448444962E+03  0.76448444962E+03  0.00000000000E+00 0.  1.
         21   -1    0    0  501  502 -0.00000000000E+00 -0.00000000000E+00 -0.34208014218E+02  0.34208014218E+02  0.00000000000E+00 0.  1.
         25    1    1    2    0    0  0.30299046243E+02  0.69729737330E+02  0.53526612451E+03  0.55490097542E+03  0.12500000000E+03 0.  0.
         25    1    1    2    0    0 -0.30299046243E+02 -0.69729737330E+02  0.19501031089E+03  0.24379148841E+03  0.12500000000E+03 0.  0.
</event>
<event>
 4    0  0.2202290E-002  0.2430794E+03  0.7546771E-02  0.1117758E+00
         21   -1    0    0  502  501  0.00000000000E+00  0.00000000000E+00  0.61478538116E+03  0.61478538116E+03  0.00000000000E+00 0. -1.
         21   -1    0    0  501  502 -0.00000000000E+00 -0.00000000000E+00 -0.96110954288E+02  0.96110954288E+02  0.00000000000E+00 0. -1.
         25    1    1    2    0    0  0.66125856367E+02 -0.19265503725E+02  0.54706985462E+03  0.56537970812E+03  0.12500000000E+03 0.  0.
         25    1    1    2    0    0 -0.66125856367E+02  0.19265503725E+02 -0.28395427747E+02  0.14551662734E+03  0.12500000000E+03 0.  0.
</event>
<event>
 4    0  0.2202290E-002  0.2019016E+03  0.7546771E-02  0.1148144E+00
         21   -1    0    0  502  501  0.00000000000E+00  0.00000000000E+00  0.16873130792E+03  0.16873130792E+03  0.00000000000E+00 0.  1.
         21   -1    0    0  501  502 -0.00000000000E+00 -0.00000000000E+00 -0.24159273824E+03  0.24159273824E+03  0.00000000000E+00 0.  1.
         25    1    1    2    0    0 -0.10458488443E+03  0.11915615669E+03 -0.38211435145E+02  0.20547822635E+03  0.12500000000E+03 0.  0.
         25    1    1    2    0    0  0.10458488443E+03 -0.11915615669E+03 -0.34649995174E+02  0.20484581981E+03  0.12500000000E+03 0.  0.
</event>
<event>
 4    0  0.2202290E-002  0.2719776E+03  0.7546771E-02  0.1100153E+00
         21   -1    0    0  502  501  0.00000000000E+00  0.00000000000E+00  0.75224857949E+02  0.75224857949E+02  0.00000000000E+00 0. -1.
         21   -1    0    0  501  502 -0.00000000000E+00 -0.00000000000E+00 -0.98334236997E+03  0.98334236997E+03  0.00000000000E+00 0. -1.
         25    1    1    2    0    0 -0.16427960702E+03  0.17624696121E+03 -0.42057700269E+03  0.50056048167E+03  0.12500000000E+03 0.  0.
         25    1    1    2    0    0  0.16427960702E+03 -0.17624696121E+03 -0.48754050933E+03  0.55800674625E+03  0.12500000000E+03 0.  0.
</event>
<event>
 4    0  0.2202290E-002  0.2431519E+03  0.7546771E-02  0.1117711E+00
         21   -1    0    0  502  501  0.00000000000E+00  0.00000000000E+00  0.15130285810E+03  0.15130285810E+03  0.00000000000E+00 0. -1.
         21   -1    0    0  501  502 -0.00000000000E+00 -0.00000000000E+00 -0.39075822798E+03  0.39075822798E+03  0.00000000000E+00 0. -1.
         25    1    1    2    0    0 -0.11362259551E+03 -0.13348880149E+03 -0.24568118616E+03  0.32667047550E+03  0.12500000000E+03 0.  0.
         25    1    1    2    0    0  0.11362259551E+03  0.13348880149E+03  0.62258162721E+01  0.21539061057E+03  0.12500000000E+03 0.  0.
</event>
<event>
 4    0  0.2202290E-002  0.2962448E+03  0.7546771E-02  0.1087133E+00
         21   -1    0    0  502  501  0.00000000000E+00  0.00000000000E+00  0.41139291168E+03  0.41139291168E+03  0.00000000000E+00 0.  1.
         21   -1    0    0  501  502 -0.00000000000E+00 -0.00000000000E+00 -0.21332649137E+03  0.21332649137E+03  0.00000000000E+00 0.  1.
         25    1    1    2    0    0  0.44583416746E+02  0.21674322287E+03 -0.61466327431E+02  0.26147354573E+03  0.12500000000E+03 0.  0.
         25    1    1    2    0    0 -0.44583416746E+02 -0.21674322287E+03  0.25953274774E+03  0.36324585731E+03  0.12500000000E+03 0.  0.
</event>
<event>
 4    0  0.2202290E-002  0.2010364E+03  0.7546771E-02  0.1148868E+00
         21   -1    0    0  502  501  0.00000000000E+00  0.00000000000E+00  0.12223217173E+03  0.12223217173E+03  0.00000000000E+00 0. -1.
         21   -1    0    0  501  502 -0.00000000000E+00 -0.00000000000E+00 -0.33064646566E+03  0.33064646566E+03  0.00000000000E+00 0. -1.
         25    1    1    2    0    0  0.81824989334E+01 -0.12783426583E+02 -0.28072704533E+03  0.30767359858E+03  0.12500000000E+03 0.  0.
         25    1    1    2    0    0 -0.81824989334E+01  0.12783426583E+02  0.72312751393E+02  0.14520503882E+03  0.12500000000E+03 0.  0.
</event>
<event>
 4    0  0.2202290E-002  0.2219870E+03  0.7546771E-02  0.1132410E+00
         21   -1    0    0  502  501  0.00000000000E+00  0.00000000000E+00  0.19104182553E+03  0.19104182553E+03  0.00000000000E+00 0. -1.
         21   -1    0    0  501  502 -0.00000000000E+00 -0.00000000000E+00 -0.25794474164E+03  0.25794474164E+03  0.00000000000E+00 0. -1.
         25    1    1    2    0    0 -0.17371243408E+03 -0.57802623371E+02 -0.21654364639E+02  0.22273541373E+03  0.12500000000E+03 0.  0.
         25    1    1    2    0    0  0.17371243408E+03  0.57802623371E+02 -0.45248551474E+02  0.22625115344E+03  0.12500000000E+03 0.  0.
</event>
<event>
 4    0  0.2202290E-002  0.1990594E+03  0.7546771E-02  0.1150535E+00
         21   -1    0    0  502  501  0.00000000000E+00  0.00000000000E+00  0.12178666300E+04  0.12178666300E+04  0.00000000000E+00 0.  1.
         21   -1    0    0  501  502 -0.00000000000E+00 -0.00000000000E+00 -0.32536127379E+02  0.32536127379E+02  0.00000000000E+00 0.  1.
         25    1    1    2    0    0  0.13910872926E+03 -0.63174218650E+02  0.67319684594E+03  0.70154202571E+03  0.12500000000E+03 0.  0.
         25    1    1    2    0    0 -0.13910872926E+03  0.63174218650E+02  0.51213365667E+03  0.54886073165E+03  0.12500000000E+03 0.  0.
</event>
<event>
 4    0  0.2202290E-002  0.1947832E+03  0.7546771E-02  0.1154217E+00
         21   -1    0    0  502  501  0.00000000000E+00  0.00000000000E+00  0.13568665515E+04  0.13568665515E+04  0.00000000000E+00 0.  1.
         21   -1    0    0  501  502 -0.00000000000E+00 -0.00000000000E+00 -0.27961846709E+02  0.27961846709E+02  0.00000000000E+00 0.  1.
         25    1    1    2    0    0 -0.60483683974E+02  0.35436401382E+02  0.11333818627E+04  0.11424068720E+04  0.12500000000E+03 0.  0.
         25    1    1    2    0    0  0.60483683974E+02 -0.35436401382E+02  0.19552284204E+03  0.24242152613E+03  0.12500000000E+03 0.  0.
</event>
<event>
 4    0  0.2202290E-002  0.2749396E+03  0.7546771E-02  0.1098485E+00
         21   -1    0    0  502  501  0.00000000000E+00  0.00000000000E+00  0.55412736541E+03  0.55412736541E+03  0.00000000000E+00 0.  1.
         21   -1    0    0  501  502 -0.00000000000E+00 -0.00000000000E+00 -0.13641588504E+03  0.13641588504E+03  0.00000000000E+00 0.  1.
         25    1    1    2    0    0 -0.19000309481E+03  0.29456193716E+00  0.14852493924E+02  0.22791853672E+03  0.12500000000E+03 0.  0.
         25    1    1    2    0    0  0.19000309481E+03 -0.29456193716E+00  0.40285898644E+03  0.46262471373E+03  0.12500000000E+03 0.  0.
</event>
<event>
 4    0  0.2202290E-002  0.2109926E+03  0.7546771E-02  0.1140782E+00
         21   -1    0    0  502  501  0.00000000000E+00  0.00000000000E+00  0.15259307922E+03  0.15259307922E+03  0.00000000000E+00 0. -1.
         21   -1    0    0  501  502 -0.00000000000E+00 -0.00000000000E+00 -0.29174237778E+03  0.29174237778E+03  0.00000000000E+00 0. -1.
         25    1    1    2    0    0 -0.61583517313E+01  0.15139481321E+03  0.11541589240E+02  0.19676514693E+03  0.12500000000E+03 0.  0.
         25    1    1    2    0    0  0.61583517313E+01 -0.15139481321E+03 -0.15069088780E+03  0.24757031007E+03  0.12500000000E+03 0.  0.
</event>
<event>
 4    0  0.2202290E-002  0.2122171E+03  0.7546771E-02  0.1139822E+00
         21   -1    0    0  502  501  0.00000000000E+00  0.00000000000E+00  0.48127450136E+02  0.48127450136E+02  0.00000000000E+00 0.  1.
         21   -1    0    0  501  502 -0.00000000000E+00 -0.00000000000E+00 -0.93576736085E+03  0.93576736085E+03  0.00000000000E+00 0.  1.
         25    1    1    2    0    0  0.10212678599E+02 -0.26720587159E+02 -0.51837428043E+02  0.13831271644E+03  0.12500000000E+03 0.  0.
         25    1    1    2    0    0 -0.10212678599E+02  0.26720587159E+02 -0.83580248267E+03  0.84558209455E+03  0.12500000000E+03 0.  0.
</event>
<event>
 4    0  0.2202290E-002  0.3408685E+03  0.7546771E-02  0.1066427E+00
         21   -1    0    0  502  501  0.00000000000E+00  0.00000000000E+00  0.41409530860E+03  0.41409530860E+03  0.00000000000E+00 0.  1.
         21   -1    0    0  501  502 -0.00000000000E+00 -0.00000000000E+00 -0.28059073597E+03  0.28059073597E+03  0.00000000000E+00 0.  1.
         25    1    1    2    0    0  0.16576910909E+03 -0.27033120158E+03  0.69625656215E+02  0.34789522572E+03  0.12500000000E+03 0.  0.
         25    1    1    2    0    0 -0.16576910909E+03  0.27033120158E+03  0.63878916418E+02  0.34679081885E+03  0.12500000000E+03 0.  0.
</event>
<event>
 4    0  0.2202290E-002  0.2253841E+03  0.7546771E-02  0.1129931E+00
         21   -1    0    0  502  501  0.00000000000E+00  0.00000000000E+00  0.46782545468E+03  0.46782545468E+03  0.00000000000E+00 0. -1.
         21   -1    0    0  501  502 -0.00000000000E+00 -0.00000000000E+00 -0.10858317812E+03  0.10858317812E+03  0.00000000000E+00 0. -1.
         25    1    1    2    0    0 -0.14991657546E+03  0.10793194725E+03  0.22103071705E+03  0.31401252000E+03  0.12500000000E+03 0.  0.
         25    1    1    2    0    0  0.14991657546E+03 -0.10793194725E+03  0.13821155950E+03  0.26239611281E+03  0.12500000000E+03 0.  0.
</event>
<event>
 4    0  0.2202290E-002  0.1771287E+03  0.7546771E-02  0.1170611E+00
         21   -1    0    0  502  501  0.00000000000E+00  0.00000000000E+00  0.25737637768E+02  0.25737637768E+02  0.00000000000E+00 0. -1.
         21   -1    0    0  501  502 -0.00000000000E+00 -0.00000000000E+00 -0.12190154839E+04  0.12190154839E+04  0.00000000000E+00 0. -1.
         25    1    1    2    0    0  0.36517861245E+02 -0.96645871626E+02 -0.34631175803E+03  0.38240137610E+03  0.12500000000E+03 0.  0.
         25    1    1    2    0    0 -0.36517861245E+02  0.96645871626E+02 -0.84696608810E+03  0.86235174557E+03  0.12500000000E+03 0.  0.
</event>
<event>
 4    0  0.2202290E-002  0.1977949E+03  0.7546771E-02  0.1151613E+00
         21   -1    0    0  502  501  0.00000000000E+00  0.00000000000E+00  0.14439543221E+03  0.14439543221E+03  0.00000000000E+00 0.  1.
         21   -1    0    0  501  502 -0.00000000000E+00 -0.00000000000E+00 -0.27094217873E+03  0.27094217873E+03  0.00000000000E+00 0.  1.
         25    1    1    2    0    0 -0.11731420634E+03 -0.26880190366E+02  0.36400737317E+02  0.17729969352E+03  0.12500000000E+03 0.  0.
         25    1    1    2    0    0  0.11731420634E+03  0.26880190366E+02 -0.16294748384E+03  0.23803791743E+03  0.12500000000E+03 0.  0.
</event>
<event>
 4    0  0.2202290E-002  0.2151335E+03  0.7546771E-02  0.1137564E+00
         21   -1    0    0  502  501  0.00000000000E+00  0.00000000000E+00  0.25539239736E+04  0.25539239736E+04  0.00000000000E+00 0. -1.
         21   -1    0    0  501  502 -0.00000000000E+00 -0.00000000000E+00 -0.18122085844E+02  0.18122085844E+02  0.00000000000E+00 0. -1.
         25    1    1    2    0    0 -0.74246632552E+02  0.10593587310E+03  0.56256075881E+03  0.59062219651E+03  0.12500000000E+03 0.  0.
         25    1    1    2    0    0  0.74246632552E+02 -0.10593587310E+03  0.19732411289E+04  0.19814238629E+04  0.12500000000E+03 0.  0.
</event>
<event>
 4    0  0.2202290E-002  0.3428380E+03  0.7546771E-02  0.1065594E+00
         21   -1    0    0  502  501  0.00000000000E+00  0.00000000000E+00  0.71593818144E+03  0.71593818144E+03  0.00000000000E+00 0.  1.
         21   -1    0    0  501  502 -0.00000000000E+00 -0.00000000000E+00 -0.16417321008E+03  0.16417321008E+03  0.00000000000E+00 0.  1.
         25    1    1    2    0    0  0.32293504579E+02 -0.31497829748E+03  0.32815806864E+03  0.47282863316E+03  0.12500000000E+03 0.  0.
         25    1    1    2    0    0 -0.32293504579E+02  0.31497829748E+03  0.22360690272E+03  0.40728275837E+03  0.12500000000E+03 0.  0.
</event>
<event>
 4    0  0.2202290E-002  0.1856907E+03  0.7546771E-02  0.1162406E+00
         21   -1    0    0  502  501  0.00000000000E+00  0.00000000000E+00  0.10952209932E+03  0.10952209932E+03  0.00000000000E+00 0.  1.
         21   -1    0    0  501  502 -0.00000000000E+00 -0.00000000000E+00 -0.31483176659E+03  0.31483176659E+03  0.00000000000E+00 0.  1.
         25    1    1    2    0    0  0.12976391125E+03 -0.11629716954E+02 -0.15222619718E+03  0.23616040753E+03  0.12500000000E+03 0.  0.
         25    1    1    2    0    0 -0.12976391125E+03  0.11629716954E+02 -0.53083470091E+02  0.18819345838E+03  0.12500000000E+03 0.  0.
</event>
<event>
 4    0  0.2202290E-002  0.2470364E+03  0.7546771E-02  0.1115192E+00
         21   -1    0    0  502  501  0.00000000000E+00  0.00000000000E+00  0.17365584407E+03  0.17365584407E+03  0.00000000000E+00 0.  1.
         21   -1    0    0  501  502 -0.00000000000E+00 -0.00000000000E+00 -0.35142492074E+03  0.35142492074E+03  0.00000000000E+00 0.  1.
         25    1    1    2    0    0 -0.12900257573E+02  0.17244504700E+03  0.43420654612E+02  0.21774770751E+03  0.12500000000E+03 0.  0.
         25    1    1    2    0    0  0.12900257573E+02 -0.17244504700E+03 -0.22118973129E+03  0.30733305730E+03  0.12500000000E+03 0.  0.
</event>
<event>
 4    0  0.2202290E-002  0.2971161E+03  0.7546771E-02  0.1086691E+00
         21   -1    0    0  502  501  0.00000000000E+00  0.00000000000E+00  0.42037195804E+02  0.42037195804E+02  0.00000000000E+00 0. -1.
         21   -1    0    0  501  502 -0.00000000000E+00 -0.00000000000E+00 -0.20999967833E+04  0.20999967833E+04  0.00000000000E+00 0. -1.
         25    1    1    2    0    0  0.14284010491E+03  0.20625093128E+03 -0.13841896588E+04  0.14122849407E+04  0.12500000000E+03 0.  0.
         25    1    1    2    0    0 -0.14284010491E+03 -0.20625093128E+03 -0.67376992872E+03  0.72974903842E+03  0.12500000000E+03 0.  0.
</event>
<event>
 4    0  0.2202290E-002  0.1928530E+03  0.7546771E-02  0.1155913E+00
         21   -1    0    0  502  501  0.00000000000E+00  0.00000000000E+00  0.77295584001E+02  0.77295584001E+02  0.00000000000E+00 0.  1.
         21   -1    0    0  501  502 -0.00000000000E+00 -0.00000000000E+00 -0.48116937436E+03  0.48116937436E+03  0.00000000000E+00 0.  1.
         25    1    1    2    0    0  0.32936654771E+01 -0.11670451755E+03 -0.72947670484E+02  0.18594933525E+03  0.12500000000E+03 0.  0.
         25    1    1    2    0    0 -0.32936654771E+01  0.11670451755E+03 -0.33092611987E+03  0.37251562311E+03  0.12500000000E+03 0.  0.
</event>
<event>
 4    0  0.2202290E-002  0.2255350E+03  0.7546771E-02  0.1129823E+00
         21   -1    0    0  502  501  0.00000000000E+00  0.00000000000E+00  0.66424279445E+03  0.66424279445E+03  0.00000000000E+00 0.  1.
         21   -1    0    0  501  502 -0.00000000000E+00 -0.00000000000E+00 -0.76577447461E+02  0.76577447461E+02  0.00000000000E+00 0.  1.
         25    1    1    2    0    0  0.14982302664E+03 -0.12773022184E+02  0.47841351022E+03  0.51683128405E+03  0.12500000000E+03 0.  0.
         25    1    1    2    0    0 -0.14982302664E+03  0.12773022184E+02  0.10925183677E+03  0.22398895786E+03  0.12500000000E+03 0.  0.
</event>
<event>
 4    0  0.2202290E-002  0.2524465E+03  0.7546771E-02  0.1111768E+00
         21   -1    0    0  502  501  0.00000000000E+00  0.00000000000E+00  0.11058934806E+03  0.11058934806E+03  0.00000000000E+00 0. -1.
         21   -1    0    0  501  502 -0.00000000000E+00 -0.00000000000E+00 -0.57626919430E+03  0.57626919430E+03  0.00000000000E+00 0. -1.
         25    1    1    2    0    0  0.11578558492E+03  0.18553959754E+03 -0.21036274529E+03  0.32819007989E+03  0.12500000000E+03 0.  0.
         25    1    1    2    0    0 -0.11578558492E+03 -0.18553959754E+03 -0.25531710095E+03  0.35866846247E+03  0.12500000000E+03 0.  0.
</event>
<event>
 4    0  0.2202290E-002  0.2020286E+03  0.7546771E-02  0.1148039E+00
         21   -1    0    0  502  501  0.00000000000E+00  0.00000000000E+00  0.21708662151E+03  0.21708662151E+03  0.00000000000E+00 0. -1.
         21   -1    0    0  501  502 -0.00000000000E+00 -0.00000000000E+00 -0.18801504991E+03  0.18801504991E+03  0.00000000000E+00 0. -1.
         25    1    1    2    0    0 -0.12834571066E+03  0.56808959344E+02  0.88826405194E+02  0.20788220118E+03  0.12500000000E+03 0.  0.
         25    1    1    2    0    0  0.12834571066E+03 -0.56808959344E+02 -0.59754833597E+02  0.19721947025E+03  0.12500000000E+03 0.  0.
</event>
<event>
 4    0  0.2202290E-002  0.2478888E+03  0.7546771E-02  0.1114646E+00
         21   -1    0    0  502  501  0.00000000000E+00  0.00000000000E+00  0.39134430302E+02  0.39134430302E+02  0.00000000000E+00 0.  1.
         21   -1    0    0  501  502 -0.00000000000E+00 -0.00000000000E+00 -0.15701995595E+04  0.15701995595E+04  0.00000000000E+00 0.  1.
         25    1    1    2    0    0  0.13647685508E+02  0.45740036414E+02 -0.14429099149E+04  0.14491005599E+04  0.12500000000E+03 0.  0.
         25    1    1    2    0    0 -0.13647685508E+02 -0.45740036414E+02 -0.88155214352E+02  0.16023342993E+03  0.12500000000E+03 0.  0.
</event>
<event>
 4    0  0.2202290E-002  0.1487384E+03  0.7546771E-02  0.1202032E+00
         21   -1    0    0  502  501  0.00000000000E+00  0.00000000000E+00  0.39061958769E+03  0.39061958769E+03  0.00000000000E+00 0. -1.
         21   -1    0    0  501  502 -0.00000000000E+00 -0.00000000000E+00 -0.56635982370E+02  0.56635982370E+02  0.00000000000E+00 0. -1.
         25    1    1    2    0    0  0.20549401465E+02 -0.25145488333E+02  0.56063168233E+02  0.14079294129E+03  0.12500000000E+03 0.  0.
         25    1    1    2    0    0 -0.20549401465E+02  0.25145488333E+02  0.27792043709E+03  0.30646262877E+03  0.12500000000E+03 0.  0.
</event>
<event>
 4    0  0.2202290E-002  0.2418499E+03  0.7546771E-02  0.1118567E+00
         21   -1    0    0  502  501  0.00000000000E+00  0.00000000000E+00  0.40445689583E+03  0.40445689583E+03  0.00000000000E+00 0. -1.
         21   -1    0    0  501  502 -0.00000000000E+00 -0.00000000000E+00 -0.14461711975E+03  0.14461711975E+03  0.00000000000E+00 0. -1.
         25    1    1    2    0    0 -0.71499723336E+02 -0.79671419447E+02  0.33109103796E+03  0.36973777320E+03  0.12500000000E+03 0.  0.
         25    1    1    2    0    0  0.71499723336E+02  0.79671419447E+02 -0.71251261882E+02  0.17933624239E+03  0.12500000000E+03 0.  0.
</event>
<event>
 4    0  0.2202290E-002  0.2562247E+03  0.7546771E-02  0.1109433E+00
         21   -1    0    0  502  501  0.00000000000E+00  0.00000000000E+00  0.10313562047E+03  0.10313562047E+03  0.00000000000E+00 0. -1.
         21   -1    0    0  501  502 -0.00000000000E+00 -0.00000000000E+00 -0.63655121250E+03  0.63655121250E+03  0.00000000000E+00 0. -1.
         25    1    1    2    0    0  0.11579338591E+03  0.12821061833E+02 -0.54230016265E+03  0.56858328701E+03  0.12500000000E+03 0.  0.
         25    1    1    2    0    0 -0.11579338591E+03 -0.12821061833E+02  0.88845706227E+01  0.17110354597E+03  0.12500000000E+03 0.  0.
</event>
<event>
 4    0  0.2202290E-002  0.1804855E+03  0.7546771E-02  0.1167334E+00
         21   -1    0    0  502  501  0.00000000000E+00  0.00000000000E+00  0.19806494793E+03  0.19806494793E+03  0.00000000000E+00 0.  1.
         21   -1    0    0  501  502 -0.00000000000E+00 -0.00000000000E+00 -0.16446628279E+03  0.16446628279E+03  0.00000000000E+00 0.  1.
         25    1    1    2    0    0 -0.47112714147E+02  0.11113251188E+03 -0.32196399964E+02  0.17672478944E+03  0.12500000000E+03 0.  0.
         25    1    1    2    0    0  0.47112714147E+02 -0.11113251188E+03  0.65795065102E+02  0.18580644128E+03  0.12500000000E+03 0.  0.
</event>
<event>
 4    0  0.2202290E-002  0.2057434E+03  0.7546771E-02  0.1144982E+00
         21   -1    0    0  502  501  0.00000000000E+00  0.00000000000E+00  0.95254713027E+02  0.95254713027E+02  0.00000000000E+00 0.  1.
         21   -1    0    0  501  502 -0.00000000000E+00 -0.00000000000E+00 -0.44439107569E+03  0.44439107569E+03  0.00000000000E+00 0.  1.
         25    1    1    2    0    0  0.14493656535E+03 -0.65593214558E+01 -0.27319534138E+03  0.33363202368E+03  0.12500000000E+03 0.  0.
         25    1    1    2    0    0 -0.14493656535E+03  0.65593214558E+01 -0.75941021287E+02  0.20601376504E+03  0.12500000000E+03 0.  0.
</event>
<event>
 4    0  0.2202290E-002  0.3328701E+03  0.7546771E-02  0.1069874E+00
         21   -1    0    0  502  501  0.00000000000E+00  0.00000000000E+00  0.49409727833E+02  0.49409727833E+02  0.00000000000E+00 0. -1.
         21   -1    0    0  501  502 -0.00000000000E+00 -0.00000000000E+00 -0.22425235071E+04  0.22425235071E+04  0.00000000000E+00 0. -1.
         25    1    1    2    0    0 -0.19921394699E+03 -0.23486004034E+03 -0.10338243259E+04  0.10859388436E+04  0.12500000000E+03 0.  0.
         25    1    1    2    0    0  0.19921394699E+03  0.23486004034E+03 -0.11592894533E+04  0.12059943913E+04  0.12500000000E+03 0.  0.
</event>
<event>
 4    0  0.2202290E-002  0.1750087E+03  0.7546771E-02  0.1172723E+00
         21   -1    0    0  502  501  0.00000000000E+00  0.00000000000E+00  0.62001923067E+03  0.62001923067E+03  0.00000000000E+00 0. -1.
         21   -1    0    0  501  502 -0.00000000000E+00 -0.00000000000E+00 -0.49398521847E+02  0.49398521847E+02  0.00000000000E+00 0. -1.
         25    1    1    2    0    0  0.91797424032E+02 -0.46396423549E+02  0.15810731768E+03  0.22627929442E+03  0.12500000000E+03 0.  0.
         25    1    1    2    0    0 -0.91797424032E+02  0.46396423549E+02  0.41251339113E+03  0.44313845809E+03  0.12500000000E+03 0.  0.
</event>
<event>
 4    0  0.2202290E-002  0.1719336E+03  0.7546771E-02  0.1175846E+00
         21   -1    0    0  502  501  0.00000000000E+00  0.00000000000E+00  0.12441390750E+03  0.12441390750E+03  0.00000000000E+00 0.  1.
         21   -1    0    0  501  502 -0.00000000000E+00 -0.00000000000E+00 -0.23760323031E+03  0.23760323031E+03  0.00000000000E+00 0.  1.
         25    1    1    2    0    0  0.74190095980E+02  0.75853446607E+02 -0.21114768563E+01  0.16397369923E+03  0.12500000000E+03 0.  0.
         25    1    1    2    0    0 -0.74190095980E+02 -0.75853446607E+02 -0.11107784595E+03  0.19804343858E+03  0.12500000000E+03 0.  0.
</event>
<event>
 4    0  0.2202290E-002  0.1725435E+03  0.7546771E-02  0.1175221E+00
         21   -1    0    0  502  501  0.00000000000E+00  0.00000000000E+00  0.37934059020E+04  0.37934059020E+04  0.00000000000E+00 0.  1.
         21   -1    0    0  501  502 -0.00000000000E+00 -0.00000000000E+00 -0.78481590943E+01  0.78481590943E+01  0.00000000000E+00 0.  1.
         25    1    1    2    0    0 -0.97783493121E+02  0.27370432619E+02  0.25749752195E+04  0.25800064211E+04  0.12500000000E+03 0.  0.
         25    1    1    2    0    0  0.97783493121E+02 -0.27370432619E+02  0.12105825235E+04  0.12212476400E+04  0.12500000000E+03 0.  0.
</event>
<event>
 4    0  0.2202290E-002  0.1858793E+03  0.7546771E-02  0.1162231E+00
         21   -1    0    0  502  501  0.00000000000E+00  0.00000000000E+00  0.85494218513E+03  0.85494218513E+03  0.00000000000E+00 0. -1.
         21   -1    0    0  501  502 -0.00000000000E+00 -0.00000000000E+00 -0.40413407423E+02  0.40413407423E+02  0.00000000000E+00 0. -1.
         25    1    1    2    0    0  0.66290170241E+02  0.40329231552E+02  0.68086583336E+03  0.69658030164E+03  0.12500000000E+03 0.  0.
         25    1    1    2    0    0 -0.66290170241E+02 -0.40329231552E+02  0.13366294435E+03  0.19877529092E+03  0.12500000000E+03 0.  0.
</event>
<event>
 4    0  0.2202290E-002  0.2968031E+03  0.7546771E-02  0.1086850E+00
         21   -1    0    0  502  501  0.00000000000E+00  0.00000000000E+00  0.13786229967E+03  0.13786229967E+03  0.00000000000E+00 0. -1.
         21   -1    0    0  501  502 -0.00000000000E+00 -0.00000000000E+00 -0.63898614376E+03  0.63898614376E+03  0.00000000000E+00 0. -1.
         25    1    1    2    0    0  0.13385660349E+03  0.21744103090E+03 -0.36213833142E+03  0.46039913477E+03  0.12500000000E+03 0.  0.
         25    1    1    2    0    0 -0.13385660349E+03 -0.21744103090E+03 -0.13898551267E+03  0.31644930866E+03  0.12500000000E+03 0.  0.
</event>
<event>
 4    0  0.2202290E-002  0.2009800E+03  0.7546771E-02  0.1148915E+00
         21   -1    0    0  502  501  0.00000000000E+00  0.00000000000E+00  0.22270704193E+03  0.22270704193E+03  0.00000000000E+00 0.  1.
         21   -1    0    0  501  502 -0.00000000000E+00 -0.00000000000E+00 -0.18137264794E+03  0.18137264794E+03  0.00000000000E+00 0.  1.
         25    1    1    2    0    0 -0.78032996531E+02 -0.72026033873E+02 -0.96096360271E+02  0.19009578786E+03  0.12500000000E+03 0.  0.
         25    1    1    2    0    0  0.78032996531E+02  0.72026033873E+02  0.13743075427E+03  0.21398390201E+03  0.12500000000E+03 0.  0.
</event>
<event>
 4    0  0.2202290E-002  0.2020699E+03  0.7546771E-02  0.1148004E+00
         21   -1    0    0  502  501  0.00000000000E+00  0.00000000000E+00  0.14372556271E+03  0.14372556271E+03  0.00000000000E+00 0. -1.
         21   -1    0    0  501  502 -0.00000000000E+00 -0.00000000000E+00 -0.28409875811E+03  0.28409875811E+03  0.00000000000E+00 0. -1.
         25    1    1    2    0    0 -0.13494194334E+03 -0.27442718103E+02  0.13468780132E+02  0.18646404181E+03  0.12500000000E+03 0.  0.
         25    1    1    2    0    0  0.13494194334E+03  0.27442718103E+02 -0.15384197553E+03  0.24136027901E+03  0.12500000000E+03 0.  0.
</event>
<event>
 4    0  0.2202290E-002  0.2153368E+03  0.7546771E-02  0.1137408E+00
         21   -1    0    0  502  501  0.00000000000E+00  0.00000000000E+00  0.44653883974E+02  0.44653883974E+02  0.00000000000E+00 0.  1.
         21   -1    0    0  501  502 -0.00000000000E+00 -0.00000000000E+00 -0.10384305870E+04  0.10384305870E+04  0.00000000000E+00 0.  1.
         25    1    1    2    0    0 -0.77473471420E+02 -0.15550406930E+03 -0.55647010506E+03  0.59621106344E+03  0.12500000000E+03 0.  0.
         25    1    1    2    0    0  0.77473471420E+02  0.15550406930E+03 -0.43730659800E+03  0.48687340757E+03  0.12500000000E+03 0.  0.
</event>
<event>
 4    0  0.2202290E-002  0.2572345E+03  0.7546771E-02  0.1108816E+00
         21   -1    0    0  502  501  0.00000000000E+00  0.00000000000E+00  0.71737077256E+02  0.71737077256E+02  0.00000000000E+00 0.  1.
         21   -1    0    0  501  502 -0.00000000000E+00 -0.00000000000E+00 -0.92239007867E+03  0.92239007867E+03  0.00000000000E+00 0.  1.
         25    1    1    2    0    0  0.35849037911E+02 -0.21448977967E+03 -0.31510622776E+03  0.40275048588E+03  0.12500000000E+03 0.  0.
         25    1    1    2    0    0 -0.35849037911E+02  0.21448977967E+03 -0.53554677365E+03  0.59137667004E+03  0.12500000000E+03 0.  0.
</event>
<event>
 4    0  0.2202290E-002  0.2188228E+03  0.7546771E-02  0.1134764E+00
         21   -1    0    0  502  501  0.00000000000E+00  0.00000000000E+00  0.12341427999E+03  0.12341427999E+03  0.00000000000E+00 0.  1.
         21   -1    0    0  501  502 -0.00000000000E+00 -0.00000000000E+00 -0.38798917959E+03  0.38798917959E+03  0.00000000000E+00 0.  1.
         25    1    1    2    0    0 -0.12172688619E+03 -0.52703858509E+02  0.92126098370E+01  0.18249658545E+03  0.12500000000E+03 0.  0.
         25    1    1    2    0    0  0.12172688619E+03  0.52703858509E+02 -0.27378750944E+03  0.32890687413E+03  0.12500000000E+03 0.  0.
</event>
<event>
 4    0  0.2202290E-002  0.2051277E+03  0.7546771E-02  0.1145483E+00
         21   -1    0    0  502  501  0.00000000000E+00  0.00000000000E+00  0.34138506310E+03  0.34138506310E+03  0.00000000000E+00 0.  1.
         21   -1    0    0  501  502 -0.00000000000E+00 -0.00000000000E+00 -0.12325485912E+03  0.12325485912E+03  0.00000000000E+00 0.  1.
         25    1    1    2    0    0 -0.15708250775E+03 -0.14058163289E+01  0.61342973498E+02  0.20991629513E+03  0.12500000000E+03 0.  0.
         25    1    1    2    0    0  0.15708250775E+03  0.14058163289E+01  0.15678723048E+03  0.25472362710E+03  0.12500000000E+03 0.  0.
</event>
<event>
 4    0  0.2202290E-002  0.2140702E+03  0.7546771E-02  0.1138383E+00
         21   -1    0    0  502  501  0.00000000000E+00  0.00000000000E+00  0.32848446967E+02  0.32848446967E+02  0.00000000000E+00 0.  1.
         21   -1    0    0  501  502 -0.00000000000E+00 -0.00000000000E+00 -0.13950750798E+04  0.13950750798E+04  0.00000000000E+00 0.  1.
         25    1    1    2    0    0  0.13655819094E+03 -0.84818588561E+02 -0.46092306205E+03  0.50390217464E+03  0.12500000000E+03 0.  0.
         25    1    1    2    0    0 -0.13655819094E+03  0.84818588561E+02 -0.90130357075E+03  0.92402135209E+03  0.12500000000E+03 0.  0.
</event>
<event>
 4    0  0.2202290E-002  0.1959862E+03  0.7546771E-02  0.1153170E+00
         21   -1    0    0  502  501  0.00000000000E+00  0.00000000000E+00  0.61931601940E+03  0.61931601940E+03  0.00000000000E+00 0.  1.
         21   -1    0    0  501  502 -0.00000000000E+00 -0.00000000000E+00 -0.62020962265E+02  0.62020962265E+02  0.00000000000E+00 0.  1.
         25    1    1    2    0    0 -0.11617521898E+03  0.26611931811E+02  0.11763195077E+03  0.20896686881E+03  0.12500000000E+03 0.  0.
         25    1    1    2    0    0  0.11617521898E+03 -0.26611931811E+02  0.43966310636E+03  0.47237011285E+03  0.12500000000E+03 0.  0.
</event>
<event>
 4    0  0.2202290E-002  0.1750856E+03  0.7546771E-02  0.1172646E+00
         21   -1    0    0  502  501  0.00000000000E+00  0.00000000000E+00  0.42084782578E+02  0.42084782578E+02  0.00000000000E+00 0. -1.
         21   -1    0    0  501  502 -0.00000000000E+00 -0.00000000000E+00 -0.72840995547E+03  0.72840995547E+03  0.00000000000E+00 0. -1.
         25    1    1    2    0    0  0.25687070966E+02  0.10648851346E+03 -0.22203717262E+03  0.27735380859E+03  0.12500000000E+03 0.  0.
         25    1    1    2    0    0 -0.25687070966E+02 -0.10648851346E+03 -0.46428800028E+03  0.49314092946E+03  0.12500000000E+03 0.  0.
</event>
<event>
 4    0  0.2202290E-002  0.4083364E+03  0.7546771E-02  0.1040931E+00
         21   -1    0    0  502  501  0.00000000000E+00  0.00000000000E+00  0.38087509576E+03  0.38087509576E+03  0.00000000000E+00 0. -1.
         21   -1    0    0  501  502 -0.00000000000E+00 -0.00000000000E+00 -0.43777772395E+03  0.43777772395E+03  0.00000000000E+00 0. -1.
         25    1    1    2    0    0 -0.26046435831E+03 -0.28093374203E+03  0.37649310580E+02  0.40473191121E+03  0.12500000000E+03 0.  0.
         25    1    1    2    0    0  0.26046435831E+03  0.28093374203E+03 -0.94551938779E+02  0.41392090850E+03  0.12500000000E+03 0.  0.
</event>
<event>
 4    0  0.2202290E-002  0.2030270E+03  0.7546771E-02  0.1147210E+00
         21   -1    0    0  502  501  0.00000000000E+00  0.00000000000E+00  0.14614858693E+02  0.14614858693E+02  0.00000000000E+00 0.  1.
         21   -1    0    0  501  502 -0.00000000000E+00 -0.00000000000E+00 -0.28204138294E+04  0.28204138294E+04  0.00000000000E+00 0.  1.
         25    1    1    2    0    0  0.11816284237E+03 -0.44258560552E+02 -0.71619574200E+03  0.73789065474E+03  0.12500000000E+03 0.  0.
         25    1    1    2    0    0 -0.11816284237E+03  0.44258560552E+02 -0.20896032287E+04  0.20971380334E+04  0.12500000000E+03 0.  0.
</event>
<event>
 4    0  0.2202290E-002  0.2139337E+03  0.7546771E-02  0.1138488E+00
         21   -1    0    0  502  501  0.00000000000E+00  0.00000000000E+00  0.26479543251E+02  0.26479543251E+02  0.00000000000E+00 0.  1.
         21   -1    0    0  501  502 -0.00000000000E+00 -0.00000000000E+00 -0.17284147626E+04  0.17284147626E+04  0.00000000000E+00 0.  1.
         25    1    1    2    0    0  0.14001564056E+03  0.41688974976E+02 -0.12357277422E+04  0.12505960192E+04  0.12500000000E+03 0.  0.
         25    1    1    2    0    0 -0.14001564056E+03 -0.41688974976E+02 -0.46620747717E+03  0.50429828674E+03  0.12500000000E+03 0.  0.
</event>
<event>
 4    0  0.2202290E-002  0.2221896E+03  0.7546771E-02  0.1132261E+00
         21   -1    0    0  502  501  0.00000000000E+00  0.00000000000E+00  0.40178608319E+02  0.40178608319E+02  0.00000000000E+00 0. -1.
         21   -1    0    0  501  502 -0.00000000000E+00 -0.00000000000E+00 -0.12287192862E+04  0.12287192862E+04  0.00000000000E+00 0. -1.
         25    1    1    2    0    0 -0.92464415736E+02  0.61721672011E+02 -0.17671181780E+03  0.24333372048E+03  0.12500000000E+03 0.  0.
         25    1    1    2    0    0  0.92464415736E+02 -0.61721672011E+02 -0.10118288600E+04  0.10255641740E+04  0.12500000000E+03 0.  0.
</event>
<event>
 4    0  0.2202290E-002  0.2044400E+03  0.7546771E-02  0.1146046E+00
         21   -1    0    0  502  501  0.00000000000E+00  0.00000000000E+00  0.49974842020E+02  0.49974842020E+02  0.00000000000E+00 0. -1.
         21   -1    0    0  501  502 -0.00000000000E+00 -0.00000000000E+00 -0.83633528351E+03  0.83633528351E+03  0.00000000000E+00 0. -1.
         25    1    1    2    0    0 -0.14361182025E+03  0.65342239505E+02 -0.47063433788E+03  0.51187463619E+03  0.12500000000E+03 0.  0.
         25    1    1    2    0    0  0.14361182025E+03 -0.65342239505E+02 -0.31572610361E+03  0.37443548934E+03  0.12500000000E+03 0.  0.
</event>
<event>
 4    0  0.2202290E-002  0.1874487E+03  0.7546771E-02  0.1160783E+00
         21   -1    0    0  502  501  0.00000000000E+00  0.00000000000E+00  0.45146242991E+03  0.45146242991E+03  0.00000000000E+00 0.  1.
         21   -1    0    0  501  502 -0.00000000000E+00 -0.00000000000E+00 -0.77829295425E+02  0.77829295425E+02  0.00000000000E+00 0.  1.
         25    1    1    2    0    0 -0.13011516198E+03 -0.35017541482E+02  0.13483089690E+03  0.22794857830E+03  0.12500000000E+03 0.  0.
         25    1    1    2    0    0  0.13011516198E+03  0.35017541482E+02  0.23880223759E+03  0.30134314704E+03  0.12500000000E+03 0.  0.
</event>
<event>
 4    0  0.2202290E-002  0.1632507E+03  0.7546771E-02  0.1185075E+00
         21   -1    0    0  502  501  0.00000000000E+00  0.00000000000E+00  0.22609945099E+03  0.22609945099E+03  0.00000000000E+00 0. -1.
         21   -1    0    0  501  502 -0.00000000000E+00 -0.00000000000E+00 -0.11787192860E+03  0.11787192860E+03  0.00000000000E+00 0. -1.
         25    1    1    2    0    0  0.70896244425E+01  0.73922873376E+01 -0.55980828137E+02  0.13734541057E+03  0.12500000000E+03 0.  0.
         25    1    1    2    0    0 -0.70896244425E+01 -0.73922873376E+01  0.16420835053E+03  0.20662596901E+03  0.12500000000E+03 0.  0.
</event>
<event>
 4    0  0.2202290E-002  0.3149100E+03  0.7546771E-02  0.1078016E+00
         21   -1    0    0  502  501  0.00000000000E+00  0.00000000000E+00  0.63326479080E+03  0.63326479080E+03  0.00000000000E+00 0.  1.
         21   -1    0    0  501  502 -0.00000000000E+00 -0.00000000000E+00 -0.15659845798E+03  0.15659845798E+03  0.00000000000E+00 0.  1.
         25    1    1    2    0    0 -0.16471366869E+03 -0.18310593430E+03  0.42805186693E+03  0.50942298398E+03  0.12500000000E+03 0.  0.
         25    1    1    2    0    0  0.16471366869E+03  0.18310593430E+03  0.48614465895E+02  0.28044026480E+03  0.12500000000E+03 0.  0.
</event>
<event>
 4    0  0.2202290E-002  0.1942330E+03  0.7546771E-02  0.1154698E+00
         21   -1    0    0  502  501  0.00000000000E+00  0.00000000000E+00  0.20070292592E+03  0.20070292592E+03  0.00000000000E+00 0.  1.
         21   -1    0    0  501  502 -0.00000000000E+00 -0.00000000000E+00 -0.18797168636E+03  0.18797168636E+03  0.00000000000E+00 0.  1.
         25    1    1    2    0    0 -0.12404225794E+03  0.81128264789E+02  0.17912627889E+02  0.19471553441E+03  0.12500000000E+03 0.  0.
         25    1    1    2    0    0  0.12404225794E+03 -0.81128264789E+02 -0.51813883237E+01  0.19395907787E+03  0.12500000000E+03 0.  0.
</event>
<event>
 4    0  0.2202290E-002  0.2589278E+03  0.7546771E-02  0.1107789E+00
         21   -1    0    0  502  501  0.00000000000E+00  0.00000000000E+00  0.47074202426E+03  0.47074202426E+03  0.00000000000E+00 0.  1.
         21   -1    0    0  501  502 -0.00000000000E+00 -0.00000000000E+00 -0.14242114277E+03  0.14242114277E+03  0.00000000000E+00 0.  1.
         25    1    1    2    0    0 -0.34610737792E+02  0.20466274121E+03  0.56069108919E+02  0.24870361031E+03  0.12500000000E+03 0.  0.
         25    1    1    2    0    0  0.34610737792E+02 -0.20466274121E+03  0.27225177257E+03  0.36445955671E+03  0.12500000000E+03 0.  0.
</event>
<event>
 4    0  0.2202290E-002  0.2174458E+03  0.7546771E-02  0.1135802E+00
         21   -1    0    0  502  501  0.00000000000E+00  0.00000000000E+00  0.40840916769E+03  0.40840916769E+03  0.00000000000E+00 0. -1.
         21   -1    0    0  501  502 -0.00000000000E+00 -0.00000000000E+00 -0.11577278296E+03  0.11577278296E+03  0.00000000000E+00 0. -1.
         25    1    1    2    0    0 -0.12800681930E+02 -0.50361436789E+02  0.35142585143E+03  0.37659694745E+03  0.12500000000E+03 0.  0.
         25    1    1    2    0    0  0.12800681930E+02  0.50361436789E+02 -0.58789466700E+02  0.14758500320E+03  0.12500000000E+03 0.  0.
</event>
<event>
 4    0  0.2202290E-002  0.2218020E+03  0.7546771E-02  0.1132547E+00
         21   -1    0    0  502  501  0.00000000000E+00  0.00000000000E+00  0.15299576893E+03  0.15299576893E+03  0.00000000000E+00 0.  1.
         21   -1    0    0  501  502 -0.00000000000E+00 -0.00000000000E+00 -0.32155225290E+03  0.32155225290E+03  0.00000000000E+00 0.  1.
         25    1    1    2    0    0  0.72971960919E+02  0.36122611059E+02  0.91309678153E+02  0.17490628186E+03  0.12500000000E+03 0.  0.
         25    1    1    2    0    0 -0.72971960919E+02 -0.36122611059E+02 -0.25986616212E+03  0.29964173996E+03  0.12500000000E+03 0.  0.
</event>
<event>
 4    0  0.2202290E-002  0.3549530E+03  0.7546771E-02  0.1060600E+00
         21   -1    0    0  502  501  0.00000000000E+00  0.00000000000E+00  0.19570896466E+03  0.19570896466E+03  0.00000000000E+00 0. -1.
         21   -1    0    0  501  502 -0.00000000000E+00 -0.00000000000E+00 -0.64377027775E+03  0.64377027775E+03  0.00000000000E+00 0. -1.
         25    1    1    2    0    0 -0.17604340599E+03  0.46777326524E+02  0.10450448667E+03  0.24438818876E+03  0.12500000000E+03 0.  0.
         25    1    1    2    0    0  0.17604340599E+03 -0.46777326524E+02 -0.55256579976E+03  0.59509105365E+03  0.12500000000E+03 0.  0.
</event>
<event>
 4    0  0.2202290E-002  0.1970188E+03  0.7546771E-02  0.1152279E+00
         21   -1    0    0  502  501  0.00000000000E+00  0.00000000000E+00  0.28844906886E+02  0.28844906886E+02  0.00000000000E+00 0. -1.
         21   -1    0    0  501  502 -0.00000000000E+00 -0.00000000000E+00 -0.13456940049E+04  0.13456940049E+04  0.00000000000E+00 0. -1.
         25    1    1    2    0    0  0.70353389947E+02  0.13446721658E+03 -0.61424684292E+03  0.64494590149E+03  0.12500000000E+03 0.  0.
         25    1    1    2    0    0 -0.70353389947E+02 -0.13446721658E+03 -0.70260225513E+03  0.72959301033E+03  0.12500000000E+03 0.  0.
</event>
<event>
 4    0  0.2202290E-002  0.1490431E+03  0.7546771E-02  0.1201654E+00
         21   -1    0    0  502  501  0.00000000000E+00  0.00000000000E+00  0.49185056559E+03  0.49185056559E+03  0.00000000000E+00 0.  1.
         21   -1    0    0  501  502 -0.00000000000E+00 -0.00000000000E+00 -0.45163820389E+02  0.45163820389E+02  0.00000000000E+00 0.  1.
         25    1    1    2    0    0  0.54079536951E+02  0.59986148279E+02  0.20871687266E+03  0.25634091994E+03  0.12500000000E+03 0.  0.
         25    1    1    2    0    0 -0.54079536951E+02 -0.59986148279E+02  0.23796987255E+03  0.28067346604E+03  0.12500000000E+03 0.  0.
</event>
<event>
 4    0  0.2202290E-002  0.2910226E+03  0.7546771E-02  0.1089816E+00
         21   -1    0    0  502  501  0.00000000000E+00  0.00000000000E+00  0.25080510835E+03  0.25080510835E+03  0.00000000000E+00 0. -1.
         21   -1    0    0  501  502 -0.00000000000E+00 -0.00000000000E+00 -0.33768915359E+03  0.33768915359E+03  0.00000000000E+00 0. -1.
         25    1    1    2    0    0 -0.97003470341E+02 -0.17447728482E+03  0.12938217748E+03  0.26873173245E+03  0.12500000000E+03 0.  0.
         25    1    1    2    0    0  0.97003470341E+02  0.17447728482E+03 -0.21626622272E+03  0.31976252949E+03  0.12500000000E+03 0.  0.
</event>
<event>
 4    0  0.2202290E-002  0.4706341E+03  0.7546771E-02  0.1021741E+00
         21   -1    0    0  502  501  0.00000000000E+00  0.00000000000E+00  0.18788480385E+03  0.18788480385E+03  0.00000000000E+00 0. -1.
         21   -1    0    0  501  502 -0.00000000000E+00 -0.00000000000E+00 -0.11788948004E+04  0.11788948004E+04  0.00000000000E+00 0. -1.
         25    1    1    2    0    0 -0.29201074046E+02  0.27956520777E+03 -0.10126959689E+04  0.10583891220E+04  0.12500000000E+03 0.  0.
         25    1    1    2    0    0  0.29201074046E+02 -0.27956520777E+03  0.21685972396E+02  0.30839048221E+03  0.12500000000E+03 0.  0.
</event>
<event>
 4    0  0.2202290E-002  0.2040570E+03  0.7546771E-02  0.1146361E+00
         21   -1    0    0  502  501  0.00000000000E+00  0.00000000000E+00  0.80281661378E+02  0.80281661378E+02  0.00000000000E+00 0.  1.
         21   -1    0    0  501  502 -0.00000000000E+00 -0.00000000000E+00 -0.51866469663E+03  0.51866469663E+03  0.00000000000E+00 0.  1.
         25    1    1    2    0    0  0.11356912278E+03  0.11335949200E+03 -0.24312473449E+03  0.31699046768E+03  0.12500000000E+03 0.  0.
         25    1    1    2    0    0 -0.11356912278E+03 -0.11335949200E+03 -0.19525830076E+03  0.28195589033E+03  0.12500000000E+03 0.  0.
</event>
<event>
 4    0  0.2202290E-002  0.1606568E+03  0.7546771E-02  0.1187957E+00
         21   -1    0    0  502  501  0.00000000000E+00  0.00000000000E+00  0.37558359483E+02  0.37558359483E+02  0.00000000000E+00 0. -1.
         21   -1    0    0  501  502 -0.00000000000E+00 -0.00000000000E+00 -0.68721341793E+03  0.68721341793E+03  0.00000000000E+00 0. -1.
         25    1    1    2    0    0 -0.55666981863E+02 -0.78081826640E+02 -0.25385422373E+03  0.29876839094E+03  0.12500000000E+03 0.  0.
         25    1    1    2    0    0  0.55666981863E+02  0.78081826640E+02 -0.39580083472E+03  0.42600338647E+03  0.12500000000E+03 0.  0.
</event>
<event>
 4    0  0.2202290E-002  0.3890460E+03  0.7546771E-02  0.1047640E+00
         21   -1    0    0  502  501  0.00000000000E+00  0.00000000000E+00  0.19468932749E+03  0.19468932749E+03  0.00000000000E+00 0.  1.
         21   -1    0    0  501  502 -0.00000000000E+00 -0.00000000000E+00 -0.77742706293E+03  0.77742706293E+03  0.00000000000E+00 0.  1.
         25    1    1    2    0    0  0.20404117768E+03 -0.13935571542E+03 -0.63278687754E+03  0.69072212212E+03  0.12500000000E+03 0.  0.
         25    1    1    2    0    0 -0.20404117768E+03  0.13935571542E+03  0.50049142090E+02  0.28139426830E+03  0.12500000000E+03 0.  0.
</event>
<event>
 4    0  0.2202290E-002  0.2500976E+03  0.7546771E-02  0.1113243E+00
         21   -1    0    0  502  501  0.00000000000E+00  0.00000000000E+00  0.23542436673E+03  0.23542436673E+03  0.00000000000E+00 0. -1.
         21   -1    0    0  501  502 -0.00000000000E+00 -0.00000000000E+00 -0.26568542980E+03  0.26568542980E+03  0.00000000000E+00 0. -1.
         25    1    1    2    0    0 -0.12584933825E+02  0.12451532224E+02 -0.23141969011E+03  0.26361618726E+03  0.12500000000E+03 0.  0.
         25    1    1    2    0    0  0.12584933825E+02 -0.12451532224E+02  0.20115862703E+03  0.23749360927E+03  0.12500000000E+03 0.  0.
</event>
<event>
 4    0  0.2202290E-002  0.2237273E+03  0.7546771E-02  0.1131134E+00
         21   -1    0    0  502  501  0.00000000000E+00  0.00000000000E+00  0.72296290151E+03  0.72296290151E+03  0.00000000000E+00 0.  1.
         21   -1    0    0  501  502 -0.00000000000E+00 -0.00000000000E+00 -0.69234419768E+02  0.69234419768E+02  0.00000000000E+00 0.  1.
         25    1    1    2    0    0  0.13394118026E+03 -0.59486982463E+01  0.55396088599E+03  0.58350089116E+03  0.12500000000E+03 0.  0.
         25    1    1    2    0    0 -0.13394118026E+03  0.59486982463E+01  0.99767595753E+02  0.20869643012E+03  0.12500000000E+03 0.  0.
</event>
<event>
 4    0  0.2202290E-002  0.1727234E+03  0.7546771E-02  0.1175037E+00
         21   -1    0    0  502  501  0.00000000000E+00  0.00000000000E+00  0.47595531522E+02  0.47595531522E+02  0.00000000000E+00 0.  1.
         21   -1    0    0  501  502 -0.00000000000E+00 -0.00000000000E+00 -0.62681011278E+03  0.62681011278E+03  0.00000000000E+00 0.  1.
         25    1    1    2    0    0  0.42345486993E+01  0.11888147490E+03 -0.30442707297E+03  0.34993082064E+03  0.12500000000E+03 0.  0.
         25    1    1    2    0    0 -0.42345486993E+01 -0.11888147490E+03 -0.27478750829E+03  0.32447482366E+03  0.12500000000E+03 0.  0.
</event>
<event>
 4    0  0.2202290E-002  0.1869854E+03  0.7546771E-02  0.1161209E+00
         21   -1    0    0  502  501  0.00000000000E+00  0.00000000000E+00  0.26054480800E+03  0.26054480800E+03  0.00000000000E+00 0. -1.
         21   -1    0    0  501  502 -0.00000000000E+00 -0.00000000000E+00 -0.13419396739E+03  0.13419396739E+03  0.00000000000E+00 0. -1.
         25    1    1    2    0    0 -0.12749900922E+03 -0.31568727549E+01  0.46663006905E+01  0.17864136575E+03  0.12500000000E+03 0.  0.
         25    1    1    2    0    0  0.12749900922E+03  0.31568727549E+01  0.12168453992E+03  0.21609740964E+03  0.12500000000E+03 0.  0.
</event>
<event>
 4    0  0.2202290E-002  0.1839085E+03  0.7546771E-02  0.1164073E+00
         21   -1    0    0  502  501  0.00000000000E+00  0.00000000000E+00  0.18301896314E+03  0.18301896314E+03  0.00000000000E+00 0. -1.
         21   -1    0    0  501  502 -0.00000000000E+00 -0.00000000000E+00 -0.18480237508E+03  0.18480237508E+03  0.00000000000E+00 0. -1.
         25    1    1    2    0    0  0.11285714144E+02  0.53308778447E+02  0.12251211841E+03  0.18331233554E+03  0.12500000000E+03 0.  0.
         25    1    1    2    0    0 -0.11285714144E+02 -0.53308778447E+02 -0.12429553035E+03  0.18450900268E+03  0.12500000000E+03 0.  0.
</event>
<event>
 4    0  0.2202290E-002  0.1944845E+03  0.7546771E-02  0.1154478E+00
         21   -1    0    0  502  501  0.00000000000E+00  0.00000000000E+00  0.40521249041E+02  0.40521249041E+02  0.00000000000E+00 0. -1.
         21   -1    0    0  501  502 -0.00000000000E+00 -0.00000000000E+00 -0.93344144573E+03  0.93344144573E+03  0.00000000000E+00 0. -1.
         25    1    1    2    0    0 -0.24089577965E+02 -0.10254741258E+03 -0.71030350644E+03  0.72887059952E+03  0.12500000000E+03 0.  0.
         25    1    1    2    0    0  0.24089577965E+02  0.10254741258E+03 -0.18261669025E+03  0.24509209525E+03  0.12500000000E+03 0.  0.
</event>
<event>
 4    0  0.2202290E-002  0.1881101E+03  0.7546771E-02  0.1160177E+00
         21   -1    0    0  502  501  0.00000000000E+00  0.00000000000E+00  0.36704242160E+02  0.36704242160E+02  0.00000000000E+00 0. -1.
         21   -1    0    0  501  502 -0.00000000000E+00 -0.00000000000E+00 -0.96406868391E+03  0.96406868391E+03  0.00000000000E+00 0. -1.
         25    1    1    2    0    0  0.11404537015E+03 -0.62860340906E+02 -0.32285804786E+03  0.36989199502E+03  0.12500000000E+03 0.  0.
         25    1    1    2    0    0 -0.11404537015E+03  0.62860340906E+02 -0.60450639389E+03  0.63088093105E+03  0.12500000000E+03 0.  0.
</event>
<event>
 4    0  0.2202290E-002  0.3521146E+03  0.7546771E-02  0.1061750E+00
         21   -1    0    0  502  501  0.00000000000E+00  0.00000000000E+00  0.10025307541E+04  0.10025307541E+04  0.00000000000E+00 0.  1.
         21   -1    0    0  501  502 -0.00000000000E+00 -0.00000000000E+00 -0.12367168084E+03  0.12367168084E+03  0.00000000000E+00 0. -1.
         25    1    1    2    0    0 -0.59806357447E+02  0.32180420266E+03  0.38345944362E+03  0.51942361338E+03  0.12500000000E+03 0.  0.
         25    1    1    2    0    0  0.59806357447E+02 -0.32180420266E+03  0.49539962962E+03  0.60677882154E+03  0.12500000000E+03 0.  0.
</event>
<event>
 4    0  0.2202290E-002  0.1760837E+03  0.7546771E-02  0.1171648E+00
         21   -1    0    0  502  501  0.00000000000E+00  0.00000000000E+00  0.62809098563E+03  0.62809098563E+03  0.00000000000E+00 0. -1.
         21   -1    0    0  501  502 -0.00000000000E+00 -0.00000000000E+00 -0.49364590472E+02  0.49364590472E+02  0.00000000000E+00 0. -1.
         25    1    1    2    0    0 -0.10668324465E+03  0.56643613578E+02  0.34345374078E+03  0.38493543057E+03  0.12500000000E+03 0.  0.
         25    1    1    2    0    0  0.10668324465E+03 -0.56643613578E+02  0.23527265437E+03  0.29252014553E+03  0.12500000000E+03 0.  0.
</event>
<event>
 4    0  0.2202290E-002  0.1824175E+03  0.7546771E-02  0.1165484E+00
         21   -1    0    0  502  501  0.00000000000E+00  0.00000000000E+00  0.16746059427E+04  0.16746059427E+04  0.00000000000E+00 0.  1.
         21   -1    0    0  501  502 -0.00000000000E+00 -0.00000000000E+00 -0.19871028822E+02  0.19871028822E+02  0.00000000000E+00 0.  1.
         25    1    1    2    0    0 -0.15738652344E+02 -0.78649687008E+02  0.33545206891E+03  0.36686042166E+03  0.12500000000E+03 0.  0.
         25    1    1    2    0    0  0.15738652344E+02  0.78649687008E+02  0.13192828450E+04  0.13276165499E+04  0.12500000000E+03 0.  0.
</event>
<event>
 4    0  0.2202290E-002  0.1863409E+03  0.7546771E-02  0.1161804E+00
         21   -1    0    0  502  501  0.00000000000E+00  0.00000000000E+00  0.94917147271E+02  0.94917147271E+02  0.00000000000E+00 0. -1.
         21   -1    0    0  501  502 -0.00000000000E+00 -0.00000000000E+00 -0.36582374146E+03  0.36582374146E+03  0.00000000000E+00 0. -1.
         25    1    1    2    0    0 -0.48942368105E+02 -0.80100057258E+02 -0.26084066903E+03  0.30409575661E+03  0.12500000000E+03 0.  0.
         25    1    1    2    0    0  0.48942368105E+02  0.80100057258E+02 -0.10065925162E+02  0.15664513212E+03  0.12500000000E+03 0.  0.
</event>
<event>
 4    0  0.2202290E-002  0.2733297E+03  0.7546771E-02  0.1099389E+00
         21   -1    0    0  502  501  0.00000000000E+00  0.00000000000E+00  0.17063325157E+03  0.17063325157E+03  0.00000000000E+00 0.  1.
         21   -1    0    0  501  502 -0.00000000000E+00 -0.00000000000E+00 -0.43783451904E+03  0.43783451904E+03  0.00000000000E+00 0.  1.
         25    1    1    2    0    0 -0.10395740592E+03 -0.73787564461E+02  0.96759253979E+02  0.20307412476E+03  0.12500000000E+03 0.  0.
         25    1    1    2    0    0  0.10395740592E+03  0.73787564461E+02 -0.36396052145E+03  0.40539364585E+03  0.12500000000E+03 0.  0.
</event>
<event>
 4    0  0.2202290E-002  0.6427844E+03  0.7546771E-02  0.9820414E-01
         21   -1    0    0  502  501  0.00000000000E+00  0.00000000000E+00  0.21796089754E+04  0.21796089754E+04  0.00000000000E+00 0. -1.
         21   -1    0    0  501  502 -0.00000000000E+00 -0.00000000000E+00 -0.18956234418E+03  0.18956234418E+03  0.00000000000E+00 0. -1.
         25    1    1    2    0    0 -0.29818335269E+03  0.62704089102E+02  0.20122987581E+04  0.20390724378E+04  0.12500000000E+03 0.  0.
         25    1    1    2    0    0  0.29818335269E+03 -0.62704089102E+02 -0.22252126891E+02  0.33009888179E+03  0.12500000000E+03 0.  0.
</event>
<event>
 4    0  0.2202290E-002  0.2569995E+03  0.7546771E-02  0.1108960E+00
         21   -1    0    0  502  501  0.00000000000E+00  0.00000000000E+00  0.71159301163E+03  0.71159301163E+03  0.00000000000E+00 0. -1.
         21   -1    0    0  501  502 -0.00000000000E+00 -0.00000000000E+00 -0.92818131961E+02  0.92818131961E+02  0.00000000000E+00 0. -1.
         25    1    1    2    0    0  0.19555769542E+03  0.83791181219E+02  0.42180625182E+03  0.48868117250E+03  0.12500000000E+03 0.  0.
         25    1    1    2    0    0 -0.19555769542E+03 -0.83791181219E+02  0.19696862786E+03  0.31572997109E+03  0.12500000000E+03 0.  0.
</event>
<event>
 4    0  0.2202290E-002  0.1731031E+03  0.7546771E-02  0.1174650E+00
         21   -1    0    0  502  501  0.00000000000E+00  0.00000000000E+00  0.29125877175E+03  0.29125877175E+03  0.00000000000E+00 0. -1.
         21   -1    0    0  501  502 -0.00000000000E+00 -0.00000000000E+00 -0.10287994583E+03  0.10287994583E+03  0.00000000000E+00 0. -1.
         25    1    1    2    0    0  0.79975298009E+02 -0.13411549086E+01 -0.72658990732E+01  0.14857873427E+03  0.12500000000E+03 0.  0.
         25    1    1    2    0    0 -0.79975298009E+02  0.13411549086E+01  0.19564472499E+03  0.24555998331E+03  0.12500000000E+03 0.  0.
</event>
<event>
 4    0  0.2202290E-002  0.2205835E+03  0.7546771E-02  0.1133449E+00
         21   -1    0    0  502  501  0.00000000000E+00  0.00000000000E+00  0.22615545154E+03  0.22615545154E+03  0.00000000000E+00 0. -1.
         21   -1    0    0  501  502 -0.00000000000E+00 -0.00000000000E+00 -0.21514874801E+03  0.21514874801E+03  0.00000000000E+00 0. -1.
         25    1    1    2    0    0 -0.71641476811E+02  0.10688321760E+03  0.13390036944E+03  0.22385448921E+03  0.12500000000E+03 0.  0.
         25    1    1    2    0    0  0.71641476811E+02 -0.10688321760E+03 -0.12289366591E+03  0.21744971033E+03  0.12500000000E+03 0.  0.
</event>
<event>
 4    0  0.2202290E-002  0.1994132E+03  0.7546771E-02  0.1150235E+00
         21   -1    0    0  502  501  0.00000000000E+00  0.00000000000E+00  0.35126961552E+03  0.35126961552E+03  0.00000000000E+00 0.  1.
         21   -1    0    0  501  502 -0.00000000000E+00 -0.00000000000E+00 -0.11320538066E+03  0.11320538066E+03  0.00000000000E+00 0.  1.
         25    1    1    2    0    0  0.14602164121E+03 -0.51567257433E+01  0.57498448064E+02  0.20069873705E+03  0.12500000000E+03 0.  0.
         25    1    1    2    0    0 -0.14602164121E+03  0.51567257433E+01  0.18056578679E+03  0.26377625913E+03  0.12500000000E+03 0.  0.
</event>
<event>
 4    0  0.2202290E-002  0.1879068E+03  0.7546771E-02  0.1160363E+00
         21   -1    0    0  502  501  0.00000000000E+00  0.00000000000E+00  0.42104008535E+03  0.42104008535E+03  0.00000000000E+00 0.  1.
         21   -1    0    0  501  502 -0.00000000000E+00 -0.00000000000E+00 -0.83861328745E+02  0.83861328745E+02  0.00000000000E+00 0.  1.
         25    1    1    2    0    0 -0.78706244746E+02  0.16920034914E+02  0.32296213069E+03  0.35554254092E+03  0.12500000000E+03 0.  0.
         25    1    1    2    0    0  0.78706244746E+02 -0.16920034914E+02  0.14216625914E+02  0.14935887317E+03  0.12500000000E+03 0.  0.
</event>
<event>
 4    0  0.2202290E-002  0.2855808E+03  0.7546771E-02  0.1092679E+00
         21   -1    0    0  502  501  0.00000000000E+00  0.00000000000E+00  0.20722281721E+03  0.20722281721E+03  0.00000000000E+00 0.  1.
         21   -1    0    0  501  502 -0.00000000000E+00 -0.00000000000E+00 -0.39356849910E+03  0.39356849910E+03  0.00000000000E+00 0.  1.
         25    1    1    2    0    0 -0.11458688094E+03  0.22100149698E+03 -0.15936218305E+03  0.32092541242E+03  0.12500000000E+03 0.  0.
         25    1    1    2    0    0  0.11458688094E+03 -0.22100149698E+03 -0.26983498835E+02  0.27986590389E+03  0.12500000000E+03 0.  0.
</event>
<event>
 4    0  0.2202290E-002  0.3483368E+03  0.7546771E-02  0.1063300E+00
         21   -1    0    0  502  501  0.00000000000E+00  0.00000000000E+00  0.16315697695E+03  0.16315697695E+03  0.00000000000E+00 0.  1.
         21   -1    0    0  501  502 -0.00000000000E+00 -0.00000000000E+00 -0.74369202156E+03  0.74369202156E+03  0.00000000000E+00 0.  1.
         25    1    1    2    0    0  0.29975130801E+03 -0.81859492703E+02 -0.41486064629E+03  0.53318493888E+03  0.12500000000E+03 0.  0.
         25    1    1    2    0    0 -0.29975130801E+03  0.81859492703E+02 -0.16567439832E+03  0.37366405963E+03  0.12500000000E+03 0.  0.
</event>
<event>
 4    0  0.2202290E-002  0.1924221E+03  0.7546771E-02  0.1156295E+00
         21   -1    0    0  502  501  0.00000000000E+00  0.00000000000E+00  0.88647212319E+03  0.88647212319E+03  0.00000000000E+00 0.  1.
         21   -1    0    0  501  502 -0.00000000000E+00 -0.00000000000E+00 -0.41768089543E+02  0.41768089543E+02  0.00000000000E+00 0.  1.
         25    1    1    2    0    0 -0.12138167804E+03  0.34401569355E+02  0.60097397342E+03  0.62666713370E+03  0.12500000000E+03 0.  0.
         25    1    1    2    0    0  0.12138167804E+03 -0.34401569355E+02  0.24373006024E+03  0.30157307904E+03  0.12500000000E+03 0.  0.
</event>
<event>
 4    0  0.2202290E-002  0.2298050E+03  0.7546771E-02  0.1126777E+00
         21   -1    0    0  502  501  0.00000000000E+00  0.00000000000E+00  0.18281498474E+03  0.18281498474E+03  0.00000000000E+00 0. -1.
         21   -1    0    0  501  502 -0.00000000000E+00 -0.00000000000E+00 -0.28887316396E+03  0.28887316396E+03  0.00000000000E+00 0. -1.
         25    1    1    2    0    0  0.10110164387E+03  0.16224314247E+03 -0.79011658455E+02  0.24168620532E+03  0.12500000000E+03 0.  0.
         25    1    1    2    0    0 -0.10110164387E+03 -0.16224314247E+03 -0.27046520764E+02  0.23000194337E+03  0.12500000000E+03 0.  0.
</event>
<event>
 4    0  0.2202290E-002  0.1892494E+03  0.7546771E-02  0.1159140E+00
         21   -1    0    0  502  501  0.00000000000E+00  0.00000000000E+00  0.33207043527E+02  0.33207043527E+02  0.00000000000E+00 0. -1.
         21   -1    0    0  501  502 -0.00000000000E+00 -0.00000000000E+00 -0.10785466269E+04  0.10785466269E+04  0.00000000000E+00 0. -1.
         25    1    1    2    0    0  0.79426947369E+02  0.14712977584E+02 -0.17930755419E+03  0.23302641625E+03  0.12500000000E+03 0.  0.
         25    1    1    2    0    0 -0.79426947369E+02 -0.14712977584E+02 -0.86603202923E+03  0.87872725423E+03  0.12500000000E+03 0.  0.
</event>
<event>
 4    0  0.2202290E-002  0.2517439E+03  0.7546771E-02  0.1112208E+00
         21   -1    0    0  502  501  0.00000000000E+00  0.00000000000E+00  0.11578698548E+04  0.11578698548E+04  0.00000000000E+00 0.  1.
         21   -1    0    0  501  502 -0.00000000000E+00 -0.00000000000E+00 -0.54734119480E+02  0.54734119480E+02  0.00000000000E+00 0.  1.
         25    1    1    2    0    0  0.12266574902E+03 -0.16230712855E+03  0.35950587343E+03  0.43157845520E+03  0.12500000000E+03 0.  0.
         25    1    1    2    0    0 -0.12266574902E+03  0.16230712855E+03  0.74362986193E+03  0.78102551912E+03  0.12500000000E+03 0.  0.
</event>
<event>
 4    0  0.2202290E-002  0.2642295E+03  0.7546771E-02  0.1104628E+00
         21   -1    0    0  502  501  0.00000000000E+00  0.00000000000E+00  0.24478150686E+03  0.24478150686E+03  0.00000000000E+00 0.  1.
         21   -1    0    0  501  502 -0.00000000000E+00 -0.00000000000E+00 -0.28522256454E+03  0.28522256454E+03  0.00000000000E+00 0.  1.
         25    1    1    2    0    0 -0.18907414230E+03  0.13371819350E+03  0.35684909165E+01  0.26318685508E+03  0.12500000000E+03 0.  0.
         25    1    1    2    0    0  0.18907414230E+03 -0.13371819350E+03 -0.44009548599E+02  0.26681721632E+03  0.12500000000E+03 0.  0.
</event>
<event>
 4    0  0.2202290E-002  0.2482453E+03  0.7546771E-02  0.1114419E+00
         21   -1    0    0  502  501  0.00000000000E+00  0.00000000000E+00  0.11864411329E+03  0.11864411329E+03  0.00000000000E+00 0.  1.
         21   -1    0    0  501  502 -0.00000000000E+00 -0.00000000000E+00 -0.51941674849E+03  0.51941674849E+03  0.00000000000E+00 0.  1.
         25    1    1    2    0    0 -0.18248987853E+02  0.17427249569E+03 -0.35933300900E+03  0.41886649385E+03  0.12500000000E+03 0.  0.
         25    1    1    2    0    0  0.18248987853E+02 -0.17427249569E+03 -0.41439626208E+02  0.21919436793E+03  0.12500000000E+03 0.  0.
</event>
<event>
 4    0  0.2202290E-002  0.1717091E+03  0.7546771E-02  0.1176077E+00
         21   -1    0    0  502  501  0.00000000000E+00  0.00000000000E+00  0.27194111685E+03  0.27194111685E+03  0.00000000000E+00 0. -1.
         21   -1    0    0  501  502 -0.00000000000E+00 -0.00000000000E+00 -0.10842058152E+03  0.10842058152E+03  0.00000000000E+00 0. -1.
         25    1    1    2    0    0 -0.21817437042E+02 -0.77439160884E+02 -0.13428062930E+02  0.14925862478E+03  0.12500000000E+03 0.  0.
         25    1    1    2    0    0  0.21817437042E+02  0.77439160884E+02  0.17694859826E+03  0.23110307359E+03  0.12500000000E+03 0.  0.
</event>
<event>
 4    0  0.2202290E-002  0.2266566E+03  0.7546771E-02  0.1129015E+00
         21   -1    0    0  502  501  0.00000000000E+00  0.00000000000E+00  0.35602713333E+03  0.35602713333E+03  0.00000000000E+00 0. -1.
         21   -1    0    0  501  502 -0.00000000000E+00 -0.00000000000E+00 -0.14429581379E+03  0.14429581379E+03  0.00000000000E+00 0. -1.
         25    1    1    2    0    0  0.52379804384E+02  0.15152291547E+03 -0.47547723467E+01  0.20334808994E+03  0.12500000000E+03 0.  0.
         25    1    1    2    0    0 -0.52379804384E+02 -0.15152291547E+03  0.21648609188E+03  0.29697485718E+03  0.12500000000E+03 0.  0.
</event>
<event>
 4    0  0.2202290E-002  0.1804469E+03  0.7546771E-02  0.1167371E+00
         21   -1    0    0  502  501  0.00000000000E+00  0.00000000000E+00  0.12389162650E+03  0.12389162650E+03  0.00000000000E+00 0. -1.
         21   -1    0    0  501  502 -0.00000000000E+00 -0.00000000000E+00 -0.26281918286E+03  0.26281918286E+03  0.00000000000E+00 0. -1.
         25    1    1    2    0    0  0.87668409311E+02 -0.92508493382E+02 -0.41265379724E+02  0.18322500622E+03  0.12500000000E+03 0.  0.
         25    1    1    2    0    0 -0.87668409311E+02  0.92508493382E+02 -0.97662176631E+02  0.20348580315E+03  0.12500000000E+03 0.  0.
</event>
<event>
 4    0  0.2202290E-002  0.1771413E+03  0.7546771E-02  0.1170599E+00
         21   -1    0    0  502  501  0.00000000000E+00  0.00000000000E+00  0.37863652268E+03  0.37863652268E+03  0.00000000000E+00 0.  1.
         21   -1    0    0  501  502 -0.00000000000E+00 -0.00000000000E+00 -0.82873788951E+02  0.82873788951E+02  0.00000000000E+00 0.  1.
         25    1    1    2    0    0 -0.98770233908E+02  0.63356105175E+02  0.89850933494E+02  0.19356586842E+03  0.12500000000E+03 0.  0.
         25    1    1    2    0    0  0.98770233908E+02 -0.63356105175E+02  0.20591180023E+03  0.26794444321E+03  0.12500000000E+03 0.  0.
</event>
<event>
 4    0  0.2202290E-002  0.2972827E+03  0.7546771E-02  0.1086607E+00
         21   -1    0    0  502  501  0.00000000000E+00  0.00000000000E+00  0.47474600783E+02  0.47474600783E+02  0.00000000000E+00 0.  1.
         21   -1    0    0  501  502 -0.00000000000E+00 -0.00000000000E+00 -0.18615639734E+04  0.18615639734E+04  0.00000000000E+00 0.  1.
         25    1    1    2    0    0 -0.46947446864E+02 -0.26560334778E+03 -0.91242253209E+03  0.95962965679E+03  0.12500000000E+03 0.  0.
         25    1    1    2    0    0  0.46947446864E+02  0.26560334778E+03 -0.90166684049E+03  0.94940891736E+03  0.12500000000E+03 0.  0.
</event>
<event>
 4    0  0.2202290E-002  0.2359096E+03  0.7546771E-02  0.1122548E+00
         21   -1    0    0  502  501  0.00000000000E+00  0.00000000000E+00  0.24646783393E+03  0.24646783393E+03  0.00000000000E+00 0.  1.
         21   -1    0    0  501  502 -0.00000000000E+00 -0.00000000000E+00 -0.22580365181E+03  0.22580365181E+03  0.00000000000E+00 0.  1.
         25    1    1    2    0    0  0.82480657346E+02 -0.18011429100E+03 -0.17696900490E+02  0.23490933771E+03  0.12500000000E+03 0.  0.
         25    1    1    2    0    0 -0.82480657346E+02  0.18011429100E+03  0.38361082612E+02  0.23736214803E+03  0.12500000000E+03 0.  0.
</event>
<event>
 4    0  0.2202290E-002  0.1809268E+03  0.7546771E-02  0.1166909E+00
         21   -1    0    0  502  501  0.00000000000E+00  0.00000000000E+00  0.12518781379E+03  0.12518781379E+03  0.00000000000E+00 0. -1.
         21   -1    0    0  501  502 -0.00000000000E+00 -0.00000000000E+00 -0.26148328742E+03  0.26148328742E+03  0.00000000000E+00 0. -1.
         25    1    1    2    0    0  0.61938391639E+01 -0.80154378061E+02  0.42110435485E+02  0.15447128129E+03  0.12500000000E+03 0.  0.
         25    1    1    2    0    0 -0.61938391639E+01  0.80154378061E+02 -0.17840590911E+03  0.23219981992E+03  0.12500000000E+03 0.  0.
</event>
<event>
 4    0  0.2202290E-002  0.2384082E+03  0.7546771E-02  0.1120858E+00
         21   -1    0    0  502  501  0.00000000000E+00  0.00000000000E+00  0.15351871047E+03  0.15351871047E+03  0.00000000000E+00 0.  1.
         21   -1    0    0  501  502 -0.00000000000E+00 -0.00000000000E+00 -0.37023792305E+03  0.37023792305E+03  0.00000000000E+00 0.  1.
         25    1    1    2    0    0 -0.60895724918E+02 -0.15019041632E+03  0.25938518814E+02  0.20630864555E+03  0.12500000000E+03 0.  0.
         25    1    1    2    0    0  0.60895724918E+02  0.15019041632E+03 -0.24265773139E+03  0.31744798798E+03  0.12500000000E+03 0.  0.
</event>
<event>
 4    0  0.2202290E-002  0.1750750E+03  0.7546771E-02  0.1172656E+00
         21   -1    0    0  502  501  0.00000000000E+00  0.00000000000E+00  0.11745932312E+03  0.11745932312E+03  0.00000000000E+00 0. -1.
         21   -1    0    0  501  502 -0.00000000000E+00 -0.00000000000E+00 -0.26095207017E+03  0.26095207017E+03  0.00000000000E+00 0. -1.
         25    1    1    2    0    0 -0.92974264956E+02  0.49477180746E+02 -0.13953079981E+03  0.21490939825E+03  0.12500000000E+03 0.  0.
         25    1    1    2    0    0  0.92974264956E+02 -0.49477180746E+02 -0.39619472432E+01  0.16350199505E+03  0.12500000000E+03 0.  0.
</event>
<event>
 4    0  0.2202290E-002  0.1914839E+03  0.7546771E-02  0.1157130E+00
         21   -1    0    0  502  501  0.00000000000E+00  0.00000000000E+00  0.98080498347E+03  0.98080498347E+03  0.00000000000E+00 0. -1.
         21   -1    0    0  501  502 -0.00000000000E+00 -0.00000000000E+00 -0.37383660613E+02  0.37383660613E+02  0.00000000000E+00 0. -1.
         25    1    1    2    0    0  0.12490072655E+03 -0.71109009526E+02  0.41958440780E+03  0.46079578774E+03  0.12500000000E+03 0.  0.
         25    1    1    2    0    0 -0.12490072655E+03  0.71109009526E+02  0.52383691505E+03  0.55739285634E+03  0.12500000000E+03 0.  0.
</event>
<event>
 4    0  0.2202290E-002  0.3846889E+03  0.7546771E-02  0.1049214E+00
         21   -1    0    0  502  501  0.00000000000E+00  0.00000000000E+00  0.63525259292E+03  0.63525259292E+03  0.00000000000E+00 0. -1.
         21   -1    0    0  501  502 -0.00000000000E+00 -0.00000000000E+00 -0.23295542710E+03  0.23295542710E+03  0.00000000000E+00 0.  1.
         25    1    1    2    0    0  0.27665342085E+03 -0.15680784411E+03  0.40058432502E+03  0.52651554269E+03  0.12500000000E+03 0.  0.
         25    1    1    2    0    0 -0.27665342085E+03  0.15680784411E+03  0.17128408051E+01  0.34169247733E+03  0.12500000000E+03 0.  0.
</event>
<event>
 4    0  0.2202290E-002  0.2641271E+03  0.7546771E-02  0.1104689E+00
         21   -1    0    0  502  501  0.00000000000E+00  0.00000000000E+00  0.16067365115E+03  0.16067365115E+03  0.00000000000E+00 0.  1.
         21   -1    0    0  501  502 -0.00000000000E+00 -0.00000000000E+00 -0.43419153717E+03  0.43419153717E+03  0.00000000000E+00 0.  1.
         25    1    1    2    0    0  0.70315074739E+02  0.22176960654E+03 -0.13283026145E+03  0.29562619383E+03  0.12500000000E+03 0.  0.
         25    1    1    2    0    0 -0.70315074739E+02 -0.22176960654E+03 -0.14068762457E+03  0.29923899449E+03  0.12500000000E+03 0.  0.
</event>
<event>
 4    0  0.2202290E-002  0.3844411E+03  0.7546771E-02  0.1049304E+00
         21   -1    0    0  502  501  0.00000000000E+00  0.00000000000E+00  0.18998939828E+04  0.18998939828E+04  0.00000000000E+00 0. -1.
         21   -1    0    0  501  502 -0.00000000000E+00 -0.00000000000E+00 -0.77791179429E+02  0.77791179429E+02  0.00000000000E+00 0. -1.
         25    1    1    2    0    0  0.28825081994E+03 -0.97874073839E+02  0.39983177029E+03  0.51784004680E+03  0.12500000000E+03 0.  0.
         25    1    1    2    0    0 -0.28825081994E+03  0.97874073839E+02  0.14222710331E+04  0.14598451154E+04  0.12500000000E+03 0.  0.
</event>
<event>
 4    0  0.2202290E-002  0.3322027E+03  0.7546771E-02  0.1070166E+00
         21   -1    0    0  502  501  0.00000000000E+00  0.00000000000E+00  0.12887477757E+03  0.12887477757E+03  0.00000000000E+00 0.  1.
         21   -1    0    0  501  502 -0.00000000000E+00 -0.00000000000E+00 -0.85632475426E+03  0.85632475426E+03  0.00000000000E+00 0. -1.
         25    1    1    2    0    0  0.15089947400E+03  0.21896531683E+03 -0.13392384566E+03  0.32291958390E+03  0.12500000000E+03 0.  0.
         25    1    1    2    0    0 -0.15089947400E+03 -0.21896531683E+03 -0.59352613102E+03  0.66227994793E+03  0.12500000000E+03 0.  0.
</event>
<event>
 4    0  0.2202290E-002  0.3172777E+03  0.7546771E-02  0.1076909E+00
         21   -1    0    0  502  501  0.00000000000E+00  0.00000000000E+00  0.30292088069E+03  0.30292088069E+03  0.00000000000E+00 0.  1.
         21   -1    0    0  501  502 -0.00000000000E+00 -0.00000000000E+00 -0.33231487221E+03  0.33231487221E+03  0.00000000000E+00 0. -1.
         25    1    1    2    0    0 -0.37870525725E+02  0.27548806547E+03 -0.10261065438E+03  0.32168586747E+03  0.12500000000E+03 0.  0.
         25    1    1    2    0    0  0.37870525725E+02 -0.27548806547E+03  0.73216662853E+02  0.31354988543E+03  0.12500000000E+03 0.  0.
</event>
<event>
 4    0  0.2202290E-002  0.1586560E+03  0.7546771E-02  0.1190223E+00
         21   -1    0    0  502  501  0.00000000000E+00  0.00000000000E+00  0.72168842195E+03  0.72168842195E+03  0.00000000000E+00 0.  1.
         21   -1    0    0  501  502 -0.00000000000E+00 -0.00000000000E+00 -0.34878920306E+02  0.34878920306E+02  0.00000000000E+00 0.  1.
         25    1    1    2    0    0 -0.73132999711E+02 -0.64097240045E+02  0.32080776780E+03  0.35777019958E+03  0.12500000000E+03 0.  0.
         25    1    1    2    0    0  0.73132999711E+02  0.64097240045E+02  0.36600173384E+03  0.39879714267E+03  0.12500000000E+03 0.  0.
</event>
<event>
 4    0  0.2202290E-002  0.1952934E+03  0.7546771E-02  0.1153772E+00
         21   -1    0    0  502  501  0.00000000000E+00  0.00000000000E+00  0.12134120422E+03  0.12134120422E+03  0.00000000000E+00 0. -1.
         21   -1    0    0  501  502 -0.00000000000E+00 -0.00000000000E+00 -0.31431633749E+03  0.31431633749E+03  0.00000000000E+00 0. -1.
         25    1    1    2    0    0  0.19513308250E+02 -0.68562932767E+01 -0.26225280820E+03  0.29125472248E+03  0.12500000000E+03 0.  0.
         25    1    1    2    0    0 -0.19513308250E+02  0.68562932767E+01  0.69277674942E+02  0.14440281923E+03  0.12500000000E+03 0.  0.
</event>
<event>
 4    0  0.2202290E-002  0.2323185E+03  0.7546771E-02  0.1125018E+00
         21   -1    0    0  502  501  0.00000000000E+00  0.00000000000E+00  0.52342958101E+02  0.52342958101E+02  0.00000000000E+00 0. -1.
         21   -1    0    0  501  502 -0.00000000000E+00 -0.00000000000E+00 -0.10311207170E+04  0.10311207170E+04  0.00000000000E+00 0. -1.
         25    1    1    2    0    0  0.10592542245E+03 -0.15567482843E+02 -0.87172944530E+03  0.88713007358E+03  0.12500000000E+03 0.  0.
         25    1    1    2    0    0 -0.10592542245E+03  0.15567482843E+02 -0.10704831361E+03  0.19633360153E+03  0.12500000000E+03 0.  0.
</event>
<event>
 4    0  0.2202290E-002  0.1831799E+03  0.7546771E-02  0.1164761E+00
         21   -1    0    0  502  501  0.00000000000E+00  0.00000000000E+00  0.50771611044E+02  0.50771611044E+02  0.00000000000E+00 0.  1.
         21   -1    0    0  501  502 -0.00000000000E+00 -0.00000000000E+00 -0.66089814007E+03  0.66089814007E+03  0.00000000000E+00 0.  1.
         25    1    1    2    0    0  0.54509579541E+02  0.55895561327E+02 -0.93742953717E+02  0.17466639462E+03  0.12500000000E+03 0.  0.
         25    1    1    2    0    0 -0.54509579541E+02 -0.55895561327E+02 -0.51638357531E+03  0.53700335649E+03  0.12500000000E+03 0.  0.
</event>
<event>
 4    0  0.2202290E-002  0.3461833E+03  0.7546771E-02  0.1064193E+00
         21   -1    0    0  502  501  0.00000000000E+00  0.00000000000E+00  0.19635639434E+03  0.19635639434E+03  0.00000000000E+00 0. -1.
         21   -1    0    0  501  502 -0.00000000000E+00 -0.00000000000E+00 -0.61033330523E+03  0.61033330523E+03  0.00000000000E+00 0. -1.
         25    1    1    2    0    0  0.10238411915E+03  0.30166413196E+03 -0.26791084418E+03  0.43460899300E+03  0.12500000000E+03 0.  0.
         25    1    1    2    0    0 -0.10238411915E+03 -0.30166413196E+03 -0.14606606671E+03  0.37208070658E+03  0.12500000000E+03 0.  0.
</event>
<event>
 4    0  0.2202290E-002  0.1528523E+03  0.7546771E-02  0.1197011E+00
         21   -1    0    0  502  501  0.00000000000E+00  0.00000000000E+00  0.19305016653E+02  0.19305016653E+02  0.00000000000E+00 0. -1.
         21   -1    0    0  501  502 -0.00000000000E+00 -0.00000000000E+00 -0.12102462346E+04  0.12102462346E+04  0.00000000000E+00 0. -1.
         25    1    1    2    0    0  0.47840699314E+02  0.56882424013E+02 -0.78474012139E+03  0.79810174839E+03  0.12500000000E+03 0.  0.
         25    1    1    2    0    0 -0.47840699314E+02 -0.56882424013E+02 -0.40620109657E+03  0.43144950287E+03  0.12500000000E+03 0.  0.
</event>
<event>
 4    0  0.2202290E-002  0.1944890E+03  0.7546771E-02  0.1154474E+00
         21   -1    0    0  502  501  0.00000000000E+00  0.00000000000E+00  0.75525088227E+03  0.75525088227E+03  0.00000000000E+00 0.  1.
         21   -1    0    0  501  502 -0.00000000000E+00 -0.00000000000E+00 -0.50083987956E+02  0.50083987956E+02  0.00000000000E+00 0.  1.
         25    1    1    2    0    0  0.13972665633E+03 -0.44527465355E+02  0.40715462766E+03  0.45045102340E+03  0.12500000000E+03 0.  0.
         25    1    1    2    0    0 -0.13972665633E+03  0.44527465355E+02  0.29801226665E+03  0.35488384682E+03  0.12500000000E+03 0.  0.
</event>
<event>
 4    0  0.2202290E-002  0.2082266E+03  0.7546771E-02  0.1142978E+00
         21   -1    0    0  502  501  0.00000000000E+00  0.00000000000E+00  0.14763380949E+03  0.14763380949E+03  0.00000000000E+00 0. -1.
         21   -1    0    0  501  502 -0.00000000000E+00 -0.00000000000E+00 -0.29368822682E+03  0.29368822682E+03  0.00000000000E+00 0. -1.
         25    1    1    2    0    0 -0.44198726369E+02 -0.71747402116E+02  0.79189068613E+02  0.17028542425E+03  0.12500000000E+03 0.  0.
         25    1    1    2    0    0  0.44198726369E+02  0.71747402116E+02 -0.22524348594E+03  0.27103661207E+03  0.12500000000E+03 0.  0.
</event>
<event>
 4    0  0.2202290E-002  0.2097341E+03  0.7546771E-02  0.1141777E+00
         21   -1    0    0  502  501  0.00000000000E+00  0.00000000000E+00  0.13257917534E+03  0.13257917534E+03  0.00000000000E+00 0.  1.
         21   -1    0    0  501  502 -0.00000000000E+00 -0.00000000000E+00 -0.33178966148E+03  0.33178966148E+03  0.00000000000E+00 0.  1.
         25    1    1    2    0    0  0.30391559909E+02 -0.10366387904E+03 -0.24263894532E+03  0.29354472319E+03  0.12500000000E+03 0.  0.
         25    1    1    2    0    0 -0.30391559909E+02  0.10366387904E+03  0.43428459172E+02  0.17082411363E+03  0.12500000000E+03 0.  0.
</event>
<event>
 4    0  0.2202290E-002  0.2310095E+03  0.7546771E-02  0.1125931E+00
         21   -1    0    0  502  501  0.00000000000E+00  0.00000000000E+00  0.57672417585E+03  0.57672417585E+03  0.00000000000E+00 0.  1.
         21   -1    0    0  501  502 -0.00000000000E+00 -0.00000000000E+00 -0.92531930264E+02  0.92531930264E+02  0.00000000000E+00 0.  1.
         25    1    1    2    0    0 -0.51508121514E+01 -0.19086291926E+03  0.29402639360E+03  0.37219847521E+03  0.12500000000E+03 0.  0.
         25    1    1    2    0    0  0.51508121514E+01  0.19086291926E+03  0.19016585199E+03  0.29705763090E+03  0.12500000000E+03 0.  0.
</event>
<event>
 4    0  0.2202290E-002  0.2639783E+03  0.7546771E-02  0.1104776E+00
         21   -1    0    0  502  501  0.00000000000E+00  0.00000000000E+00  0.60240898491E+03  0.60240898491E+03  0.00000000000E+00 0. -1.
         21   -1    0    0  501  502 -0.00000000000E+00 -0.00000000000E+00 -0.11567649597E+03  0.11567649597E+03  0.00000000000E+00 0. -1.
         25    1    1    2    0    0  0.15863893080E+03  0.10288266932E+02  0.47413611238E+03  0.51546310427E+03  0.12500000000E+03 0.  0.
         25    1    1    2    0    0 -0.15863893080E+03 -0.10288266932E+02  0.12596376562E+02  0.20262237661E+03  0.12500000000E+03 0.  0.
</event>
<event>
 4    0  0.2202290E-002  0.3152154E+03  0.7546771E-02  0.1077873E+00
         21   -1    0    0  502  501  0.00000000000E+00  0.00000000000E+00  0.11716958479E+04  0.11716958479E+04  0.00000000000E+00 0. -1.
         21   -1    0    0  501  502 -0.00000000000E+00 -0.00000000000E+00 -0.84800788315E+02  0.84800788315E+02  0.00000000000E+00 0. -1.
         25    1    1    2    0    0  0.92595763472E+02  0.25061354573E+03  0.32191453971E+03  0.43661779120E+03  0.12500000000E+03 0.  0.
         25    1    1    2    0    0 -0.92595763472E+02 -0.25061354573E+03  0.76498051989E+03  0.81987884503E+03  0.12500000000E+03 0.  0.
</event>
<event>
 4    0  0.2202290E-002  0.1980488E+03  0.7546771E-02  0.1151396E+00
         21   -1    0    0  502  501  0.00000000000E+00  0.00000000000E+00  0.93302534106E+02  0.93302534106E+02  0.00000000000E+00 0. -1.
         21   -1    0    0  501  502 -0.00000000000E+00 -0.00000000000E+00 -0.42038874973E+03  0.42038874973E+03  0.00000000000E+00 0. -1.
         25    1    1    2    0    0 -0.14675176922E+03  0.22815411050E+02 -0.21446463400E+03  0.28926925863E+03  0.12500000000E+03 0.  0.
         25    1    1    2    0    0  0.14675176922E+03 -0.22815411050E+02 -0.11262158163E+03  0.22442202521E+03  0.12500000000E+03 0.  0.
</event>
<event>
 4    0  0.2202290E-002  0.3479143E+03  0.7546771E-02  0.1063474E+00
         21   -1    0    0  502  501  0.00000000000E+00  0.00000000000E+00  0.67475813779E+02  0.67475813779E+02  0.00000000000E+00 0. -1.
         21   -1    0    0  501  502 -0.00000000000E+00 -0.00000000000E+00 -0.17938922944E+04  0.17938922944E+04  0.00000000000E+00 0. -1.
         25    1    1    2    0    0  0.64254681862E+02 -0.20826130289E+03 -0.21942975527E+03  0.33358035302E+03  0.12500000000E+03 0.  0.
         25    1    1    2    0    0 -0.64254681862E+02  0.20826130289E+03 -0.15069867253E+04  0.15277877551E+04  0.12500000000E+03 0.  0.
</event>
<event>
 4    0  0.2202290E-002  0.2800900E+03  0.7546771E-02  0.1095640E+00
         21   -1    0    0  502  501  0.00000000000E+00  0.00000000000E+00  0.57599668238E+03  0.57599668238E+03  0.00000000000E+00 0. -1.
         21   -1    0    0  501  502 -0.00000000000E+00 -0.00000000000E+00 -0.13619938541E+03  0.13619938541E+03  0.00000000000E+00 0. -1.
         25    1    1    2    0    0  0.17493626972E+03 -0.70386905952E+02  0.42984178096E+03  0.48574270108E+03  0.12500000000E+03 0.  0.
         25    1    1    2    0    0 -0.17493626972E+03  0.70386905952E+02  0.99555160030E+01  0.22645336671E+03  0.12500000000E+03 0.  0.
</event>
<event>
 4    0  0.2202290E-002  0.2448737E+03  0.7546771E-02  0.1116588E+00
         21   -1    0    0  502  501  0.00000000000E+00  0.00000000000E+00  0.79484383440E+03  0.79484383440E+03  0.00000000000E+00 0.  1.
         21   -1    0    0  501  502 -0.00000000000E+00 -0.00000000000E+00 -0.75440109350E+02  0.75440109350E+02  0.00000000000E+00 0.  1.
         25    1    1    2    0    0 -0.30773346190E+01  0.20010616590E+03  0.47604024263E+03  0.53131088849E+03  0.12500000000E+03 0.  0.
         25    1    1    2    0    0  0.30773346190E+01 -0.20010616590E+03  0.24336348242E+03  0.33897305526E+03  0.12500000000E+03 0.  0.
</event>
<event>
 4    0  0.2202290E-002  0.2050731E+03  0.7546771E-02  0.1145528E+00
         21   -1    0    0  502  501  0.00000000000E+00  0.00000000000E+00  0.17959688496E+03  0.17959688496E+03  0.00000000000E+00 0. -1.
         21   -1    0    0  501  502 -0.00000000000E+00 -0.00000000000E+00 -0.23416318183E+03  0.23416318183E+03  0.00000000000E+00 0. -1.
         25    1    1    2    0    0  0.11201855778E+03 -0.75557403525E+02 -0.11848380231E+03  0.21890749171E+03  0.12500000000E+03 0.  0.
         25    1    1    2    0    0 -0.11201855778E+03  0.75557403525E+02  0.63917505441E+02  0.19485257508E+03  0.12500000000E+03 0.  0.
</event>
<event>
 4    0  0.2202290E-002  0.2646853E+03  0.7546771E-02  0.1104360E+00
         21   -1    0    0  502  501  0.00000000000E+00  0.00000000000E+00  0.30836381394E+03  0.30836381394E+03  0.00000000000E+00 0.  1.
         21   -1    0    0  501  502 -0.00000000000E+00 -0.00000000000E+00 -0.22719360085E+03  0.22719360085E+03  0.00000000000E+00 0.  1.
         25    1    1    2    0    0 -0.14486487762E+03 -0.17212657493E+03 -0.21942525865E+02  0.25830188734E+03  0.12500000000E+03 0.  0.
         25    1    1    2    0    0  0.14486487762E+03  0.17212657493E+03  0.10311273896E+03  0.27725552744E+03  0.12500000000E+03 0.  0.
</event>
<event>
 4    0  0.2202290E-002  0.2110472E+03  0.7546771E-02  0.1140739E+00
         21   -1    0    0  502  501  0.00000000000E+00  0.00000000000E+00  0.15690356925E+04  0.15690356925E+04  0.00000000000E+00 0.  1.
         21   -1    0    0  501  502 -0.00000000000E+00 -0.00000000000E+00 -0.28387458397E+02  0.28387458397E+02  0.00000000000E+00 0.  1.
         25    1    1    2    0    0  0.91397002982E+02  0.66702947506E+01  0.22822569049E+03  0.27588017469E+03  0.12500000000E+03 0.  0.
         25    1    1    2    0    0 -0.91397002982E+02 -0.66702947506E+01  0.13124225436E+04  0.13215429762E+04  0.12500000000E+03 0.  0.
</event>
<event>
 4    0  0.2202290E-002  0.2439421E+03  0.7546771E-02  0.1117194E+00
         21   -1    0    0  502  501  0.00000000000E+00  0.00000000000E+00  0.23430520401E+03  0.23430520401E+03  0.00000000000E+00 0. -1.
         21   -1    0    0  501  502 -0.00000000000E+00 -0.00000000000E+00 -0.25397531544E+03  0.25397531544E+03  0.00000000000E+00 0. -1.
         25    1    1    2    0    0  0.14255470209E+03 -0.55432786576E+01  0.14368502363E+03  0.23795578800E+03  0.12500000000E+03 0.  0.
         25    1    1    2    0    0 -0.14255470209E+03  0.55432786576E+01 -0.16335513506E+03  0.25032473145E+03  0.12500000000E+03 0.  0.
</event>
<event>
 4    0  0.2202290E-002  0.2818369E+03  0.7546771E-02  0.1094690E+00
         21   -1    0    0  502  501  0.00000000000E+00  0.00000000000E+00  0.13650340840E+03  0.13650340840E+03  0.00000000000E+00 0. -1.
         21   -1    0    0  501  502 -0.00000000000E+00 -0.00000000000E+00 -0.58190500387E+03  0.58190500387E+03  0.00000000000E+00 0. -1.
         25    1    1    2    0    0 -0.24069722352E+03 -0.49803441416E+02 -0.29692375657E+03  0.40522124007E+03  0.12500000000E+03 0.  0.
         25    1    1    2    0    0  0.24069722352E+03  0.49803441416E+02 -0.14847783889E+03  0.31318717220E+03  0.12500000000E+03 0.  0.
</event>
<event>
 4    0  0.2202290E-002  0.2477841E+03  0.7546771E-02  0.1114713E+00
         21   -1    0    0  502  501  0.00000000000E+00  0.00000000000E+00  0.69067547699E+02  0.69067547699E+02  0.00000000000E+00 0.  1.
         21   -1    0    0  501  502 -0.00000000000E+00 -0.00000000000E+00 -0.88894052020E+03  0.88894052020E+03  0.00000000000E+00 0.  1.
         25    1    1    2    0    0  0.10756986913E+03  0.17940119098E+03 -0.49673212278E+03  0.55328461561E+03  0.12500000000E+03 0.  0.
         25    1    1    2    0    0 -0.10756986913E+03 -0.17940119098E+03 -0.32314084972E+03  0.40472345229E+03  0.12500000000E+03 0.  0.
</event>
<event>
 4    0  0.2202290E-002  0.3086044E+03  0.7546771E-02  0.1081017E+00
         21   -1    0    0  502  501  0.00000000000E+00  0.00000000000E+00  0.11402113766E+03  0.11402113766E+03  0.00000000000E+00 0. -1.
         21   -1    0    0  501  502 -0.00000000000E+00 -0.00000000000E+00 -0.83525449984E+03  0.83525449984E+03  0.00000000000E+00 0. -1.
         25    1    1    2    0    0  0.15044732239E+03 -0.15950528167E+03 -0.87493238404E+02  0.26712618453E+03  0.12500000000E+03 0.  0.
         25    1    1    2    0    0 -0.15044732239E+03  0.15950528167E+03 -0.63374012378E+03  0.68214945296E+03  0.12500000000E+03 0.  0.
</event>
<event>
 4    0  0.2202290E-002  0.2430637E+03  0.7546771E-02  0.1117769E+00
         21   -1    0    0  502  501  0.00000000000E+00  0.00000000000E+00  0.58412656773E+03  0.58412656773E+03  0.00000000000E+00 0. -1.
         21   -1    0    0  501  502 -0.00000000000E+00 -0.00000000000E+00 -0.10114243947E+03  0.10114243947E+03  0.00000000000E+00 0. -1.
         25    1    1    2    0    0  0.14770776653E+03 -0.92661136016E+02  0.80450474596E+02  0.22913085625E+03  0.12500000000E+03 0.  0.
         25    1    1    2    0    0 -0.14770776653E+03  0.92661136016E+02  0.40253365367E+03  0.45613815095E+03  0.12500000000E+03 0.  0.
</event>
<event>
 4    0  0.2202290E-002  0.1637397E+03  0.7546771E-02  0.1184538E+00
         21   -1    0    0  502  501  0.00000000000E+00  0.00000000000E+00  0.17184821936E+03  0.17184821936E+03  0.00000000000E+00 0. -1.
         21   -1    0    0  501  502 -0.00000000000E+00 -0.00000000000E+00 -0.15601383456E+03  0.15601383456E+03  0.00000000000E+00 0. -1.
         25    1    1    2    0    0 -0.95314719141E+02  0.32966329148E+02  0.39798156254E+02  0.16547074601E+03  0.12500000000E+03 0.  0.
         25    1    1    2    0    0  0.95314719141E+02 -0.32966329148E+02 -0.23963771456E+02  0.16239130791E+03  0.12500000000E+03 0.  0.
</event>
<event>
 4    0  0.2202290E-002  0.2264775E+03  0.7546771E-02  0.1129144E+00
         21   -1    0    0  502  501  0.00000000000E+00  0.00000000000E+00  0.26134278341E+02  0.26134278341E+02  0.00000000000E+00 0. -1.
         21   -1    0    0  501  502 -0.00000000000E+00 -0.00000000000E+00 -0.19626353635E+04  0.19626353635E+04  0.00000000000E+00 0. -1.
         25    1    1    2    0    0  0.76587492054E+02 -0.16032422429E+03 -0.68719511469E+03  0.72071605122E+03  0.12500000000E+03 0.  0.
         25    1    1    2    0    0 -0.76587492054E+02  0.16032422429E+03 -0.12493059705E+04  0.12680535906E+04  0.12500000000E+03 0.  0.
</event>
<event>
 4    0  0.2202290E-002  0.3343520E+03  0.7546771E-02  0.1069227E+00
         21   -1    0    0  502  501  0.00000000000E+00  0.00000000000E+00  0.12659605349E+03  0.12659605349E+03  0.00000000000E+00 0. -1.
         21   -1    0    0  501  502 -0.00000000000E+00 -0.00000000000E+00 -0.88305465416E+03  0.88305465416E+03  0.00000000000E+00 0. -1.
         25    1    1    2    0    0 -0.27104843432E+03 -0.52323668834E+02 -0.16490970066E+03  0.34500033252E+03  0.12500000000E+03 0.  0.
         25    1    1    2    0    0  0.27104843432E+03  0.52323668834E+02 -0.59154890000E+03  0.66465037513E+03  0.12500000000E+03 0.  0.
</event>
<event>
 4    0  0.2202290E-002  0.2536941E+03  0.7546771E-02  0.1110992E+00
         21   -1    0    0  502  501  0.00000000000E+00  0.00000000000E+00  0.13212557463E+04  0.13212557463E+04  0.00000000000E+00 0.  1.
         21   -1    0    0  501  502 -0.00000000000E+00 -0.00000000000E+00 -0.48711773306E+02  0.48711773306E+02  0.00000000000E+00 0.  1.
         25    1    1    2    0    0 -0.10144413490E+03  0.15008322297E+03  0.29559798439E+03  0.36853636822E+03  0.12500000000E+03 0.  0.
         25    1    1    2    0    0  0.10144413490E+03 -0.15008322297E+03  0.97694598860E+03  0.10014311514E+04  0.12500000000E+03 0.  0.
</event>
<event>
 4    0  0.2202290E-002  0.2165947E+03  0.7546771E-02  0.1136448E+00
         21   -1    0    0  502  501  0.00000000000E+00  0.00000000000E+00  0.23532221685E+03  0.23532221685E+03  0.00000000000E+00 0. -1.
         21   -1    0    0  501  502 -0.00000000000E+00 -0.00000000000E+00 -0.19935759336E+03  0.19935759336E+03  0.00000000000E+00 0. -1.
         25    1    1    2    0    0 -0.81308904027E+02  0.19376254040E+02  0.17440865320E+03  0.23028233846E+03  0.12500000000E+03 0.  0.
         25    1    1    2    0    0  0.81308904027E+02 -0.19376254040E+02 -0.13844402971E+03  0.20439747175E+03  0.12500000000E+03 0.  0.
</event>
<event>
 4    0  0.2202290E-002  0.3310680E+03  0.7546771E-02  0.1070665E+00
         21   -1    0    0  502  501  0.00000000000E+00  0.00000000000E+00  0.69264246302E+02  0.69264246302E+02  0.00000000000E+00 0.  1.
         21   -1    0    0  501  502 -0.00000000000E+00 -0.00000000000E+00 -0.15824333293E+04  0.15824333293E+04  0.00000000000E+00 0.  1.
         25    1    1    2    0    0  0.13478302295E+03  0.21624055864E+03 -0.33138695652E+03  0.43631268309E+03  0.12500000000E+03 0.  0.
         25    1    1    2    0    0 -0.13478302295E+03 -0.21624055864E+03 -0.11817821265E+04  0.12153848925E+04  0.12500000000E+03 0.  0.
</event>
<event>
 4    0  0.2202290E-002  0.2071393E+03  0.7546771E-02  0.1143852E+00
         21   -1    0    0  502  501  0.00000000000E+00  0.00000000000E+00  0.27145396376E+03  0.27145396376E+03  0.00000000000E+00 0.  1.
         21   -1    0    0  501  502 -0.00000000000E+00 -0.00000000000E+00 -0.15806251974E+03  0.15806251974E+03  0.00000000000E+00 0.  1.
         25    1    1    2    0    0  0.12987935133E+03 -0.40794156948E+02  0.15367160280E+03  0.24035966935E+03  0.12500000000E+03 0.  0.
         25    1    1    2    0    0 -0.12987935133E+03  0.40794156948E+02 -0.40280158787E+02  0.18915681414E+03  0.12500000000E+03 0.  0.
</event>
<event>
 4    0  0.2202290E-002  0.1721008E+03  0.7546771E-02  0.1175675E+00
         21   -1    0    0  502  501  0.00000000000E+00  0.00000000000E+00  0.20193995995E+03  0.20193995995E+03  0.00000000000E+00 0.  1.
         21   -1    0    0  501  502 -0.00000000000E+00 -0.00000000000E+00 -0.14667071359E+03  0.14667071359E+03  0.00000000000E+00 0.  1.
         25    1    1    2    0    0  0.91122696148E+02  0.28778442521E+02 -0.42987584452E+02  0.16310878862E+03  0.12500000000E+03 0.  0.
         25    1    1    2    0    0 -0.91122696148E+02 -0.28778442521E+02  0.98256830820E+02  0.18550188492E+03  0.12500000000E+03 0.  0.
</event>
<event>
 4    0  0.2202290E-002  0.2569378E+03  0.7546771E-02  0.1108997E+00
         21   -1    0    0  502  501  0.00000000000E+00  0.00000000000E+00  0.26187076742E+03  0.26187076742E+03  0.00000000000E+00 0.  1.
         21   -1    0    0  501  502 -0.00000000000E+00 -0.00000000000E+00 -0.25209782864E+03  0.25209782864E+03  0.00000000000E+00 0.  1.
         25    1    1    2    0    0  0.29713998610E+02 -0.14852028546E+03 -0.16082648602E+03  0.25383332231E+03  0.12500000000E+03 0.  0.
         25    1    1    2    0    0 -0.29713998610E+02  0.14852028546E+03  0.17059942480E+03  0.26013527375E+03  0.12500000000E+03 0.  0.
</event>
<event>
 4    0  0.2202290E-002  0.2776327E+03  0.7546771E-02  0.1096989E+00
         21   -1    0    0  502  501  0.00000000000E+00  0.00000000000E+00  0.18902070237E+03  0.18902070237E+03  0.00000000000E+00 0.  1.
         21   -1    0    0  501  502 -0.00000000000E+00 -0.00000000000E+00 -0.40778560603E+03  0.40778560603E+03  0.00000000000E+00 0.  1.
         25    1    1    2    0    0 -0.18026321500E+03 -0.12630892965E+03  0.13194027756E+02  0.25347160543E+03  0.12500000000E+03 0.  0.
         25    1    1    2    0    0  0.18026321500E+03  0.12630892965E+03 -0.23195893142E+03  0.34333470296E+03  0.12500000000E+03 0.  0.
</event>
<event>
 4    0  0.2202290E-002  0.4742578E+03  0.7546771E-02  0.1020725E+00
         21   -1    0    0  502  501  0.00000000000E+00  0.00000000000E+00  0.12211685859E+04  0.12211685859E+04  0.00000000000E+00 0.  1.
         21   -1    0    0  501  502 -0.00000000000E+00 -0.00000000000E+00 -0.18418460644E+03  0.18418460644E+03  0.00000000000E+00 0.  1.
         25    1    1    2    0    0  0.54753364672E+02  0.43366844501E+02  0.11883755940E+04  0.11969712471E+04  0.12500000000E+03 0.  0.
         25    1    1    2    0    0 -0.54753364672E+02 -0.43366844501E+02 -0.15139161450E+03  0.20838194520E+03  0.12500000000E+03 0.  0.
</event>
<event>
 4    0  0.2202290E-002  0.1577202E+03  0.7546771E-02  0.1191295E+00
         21   -1    0    0  502  501  0.00000000000E+00  0.00000000000E+00  0.64072596455E+02  0.64072596455E+02  0.00000000000E+00 0. -1.
         21   -1    0    0  501  502 -0.00000000000E+00 -0.00000000000E+00 -0.38824177855E+03  0.38824177855E+03  0.00000000000E+00 0. -1.
         25    1    1    2    0    0  0.77366469178E+02  0.28347031773E+02 -0.90942598962E+02  0.17517043435E+03  0.12500000000E+03 0.  0.
         25    1    1    2    0    0 -0.77366469178E+02 -0.28347031773E+02 -0.23322658313E+03  0.27714394066E+03  0.12500000000E+03 0.  0.
</event>
<event>
 4    0  0.2202290E-002  0.2150704E+03  0.7546771E-02  0.1137613E+00
         21   -1    0    0  502  501  0.00000000000E+00  0.00000000000E+00  0.15149062957E+03  0.15149062957E+03  0.00000000000E+00 0. -1.
         21   -1    0    0  501  502 -0.00000000000E+00 -0.00000000000E+00 -0.30533431563E+03  0.30533431563E+03  0.00000000000E+00 0. -1.
         25    1    1    2    0    0 -0.51512834419E+01  0.12175000482E+03 -0.21033605423E+03  0.27334201123E+03  0.12500000000E+03 0.  0.
         25    1    1    2    0    0  0.51512834419E+01 -0.12175000482E+03  0.56492368179E+02  0.18348293397E+03  0.12500000000E+03 0.  0.
</event>
<event>
 4    0  0.2202290E-002  0.2519339E+03  0.7546771E-02  0.1112089E+00
         21   -1    0    0  502  501  0.00000000000E+00  0.00000000000E+00  0.56193003086E+03  0.56193003086E+03  0.00000000000E+00 0.  1.
         21   -1    0    0  501  502 -0.00000000000E+00 -0.00000000000E+00 -0.11295124037E+03  0.11295124037E+03  0.00000000000E+00 0.  1.
         25    1    1    2    0    0 -0.43121860720E+02  0.19895625693E+03  0.11731546000E+03  0.26614094799E+03  0.12500000000E+03 0.  0.
         25    1    1    2    0    0  0.43121860720E+02 -0.19895625693E+03  0.33166333049E+03  0.40874032323E+03  0.12500000000E+03 0.  0.
</event>
<event>
 4    0  0.2202290E-002  0.1680467E+03  0.7546771E-02  0.1179900E+00
         21   -1    0    0  502  501  0.00000000000E+00  0.00000000000E+00  0.69983894031E+03  0.69983894031E+03  0.00000000000E+00 0.  1.
         21   -1    0    0  501  502 -0.00000000000E+00 -0.00000000000E+00 -0.40351716407E+02  0.40351716407E+02  0.00000000000E+00 0.  1.
         25    1    1    2    0    0 -0.46591303773E+02  0.25449778472E+02  0.11176507527E+03  0.17588312273E+03  0.12500000000E+03 0.  0.
         25    1    1    2    0    0  0.46591303773E+02 -0.25449778472E+02  0.54772214863E+03  0.56430753399E+03  0.12500000000E+03 0.  0.
</event>
<event>
 4    0  0.2202290E-002  0.1735654E+03  0.7546771E-02  0.1174180E+00
         21   -1    0    0  502  501  0.00000000000E+00  0.00000000000E+00  0.80112887245E+02  0.80112887245E+02  0.00000000000E+00 0. -1.
         21   -1    0    0  501  502 -0.00000000000E+00 -0.00000000000E+00 -0.37603129943E+03  0.37603129943E+03  0.00000000000E+00 0. -1.
         25    1    1    2    0    0  0.11846470606E+03  0.16088323489E+02 -0.12904283856E+03  0.21580031260E+03  0.12500000000E+03 0.  0.
         25    1    1    2    0    0 -0.11846470606E+03 -0.16088323489E+02 -0.16687557363E+03  0.24034387408E+03  0.12500000000E+03 0.  0.
</event>
<event>
 4    0  0.2202290E-002  0.4126386E+03  0.7546771E-02  0.1039489E+00
         21   -1    0    0  502  501  0.00000000000E+00  0.00000000000E+00  0.14255761441E+03  0.14255761441E+03  0.00000000000E+00 0. -1.
         21   -1    0    0  501  502 -0.00000000000E+00 -0.00000000000E+00 -0.11943985586E+04  0.11943985586E+04  0.00000000000E+00 0. -1.
         25    1    1    2    0    0 -0.31120331366E+03  0.10328265592E+03 -0.87761833938E+03  0.94517393059E+03  0.12500000000E+03 0.  0.
         25    1    1    2    0    0  0.31120331366E+03 -0.10328265592E+03 -0.17422260480E+03  0.39178224242E+03  0.12500000000E+03 0.  0.
</event>
<event>
 4    0  0.2202290E-002  0.3223651E+03  0.7546771E-02  0.1074566E+00
         21   -1    0    0  502  501  0.00000000000E+00  0.00000000000E+00  0.19510691609E+04  0.19510691609E+04  0.00000000000E+00 0.  1.
         21   -1    0    0  501  502 -0.00000000000E+00 -0.00000000000E+00 -0.53262714985E+02  0.53262714985E+02  0.00000000000E+00 0.  1.
         25    1    1    2    0    0  0.10994362771E+03 -0.84912069929E+02  0.17654958168E+04  0.17753585947E+04  0.12500000000E+03 0.  0.
         25    1    1    2    0    0 -0.10994362771E+03  0.84912069929E+02  0.13231062916E+03  0.22897328115E+03  0.12500000000E+03 0.  0.
</event>
<event>
 4    0  0.2202290E-002  0.1875371E+03  0.7546771E-02  0.1160702E+00
         21   -1    0    0  502  501  0.00000000000E+00  0.00000000000E+00  0.32250373174E+03  0.32250373174E+03  0.00000000000E+00 0.  1.
         21   -1    0    0  501  502 -0.00000000000E+00 -0.00000000000E+00 -0.10905353566E+03  0.10905353566E+03  0.00000000000E+00 0.  1.
         25    1    1    2    0    0  0.96418678216E+02  0.60565870459E+02  0.13389593926E+02  0.16961446695E+03  0.12500000000E+03 0.  0.
         25    1    1    2    0    0 -0.96418678216E+02 -0.60565870459E+02  0.20006060216E+03  0.26194280045E+03  0.12500000000E+03 0.  0.
</event>
<event>
 4    0  0.2202290E-002  0.1996412E+03  0.7546771E-02  0.1150042E+00
         21   -1    0    0  502  501  0.00000000000E+00  0.00000000000E+00  0.20870275268E+04  0.20870275268E+04  0.00000000000E+00 0.  1.
         21   -1    0    0  501  502 -0.00000000000E+00 -0.00000000000E+00 -0.19097315951E+02  0.19097315951E+02  0.00000000000E+00 0.  1.
         25    1    1    2    0    0  0.82651146411E+02 -0.82231008196E+02  0.48990921678E+03  0.51887300122E+03  0.12500000000E+03 0.  0.
         25    1    1    2    0    0 -0.82651146411E+02  0.82231008196E+02  0.15780209940E+04  0.15872518415E+04  0.12500000000E+03 0.  0.
</event>
<event>
 4    0  0.2202290E-002  0.1894916E+03  0.7546771E-02  0.1158921E+00
         21   -1    0    0  502  501  0.00000000000E+00  0.00000000000E+00  0.12476013848E+03  0.12476013848E+03  0.00000000000E+00 0.  1.
         21   -1    0    0  501  502 -0.00000000000E+00 -0.00000000000E+00 -0.28780870714E+03  0.28780870714E+03  0.00000000000E+00 0.  1.
         25    1    1    2    0    0 -0.88723688556E+02 -0.24983335089E+02  0.36659980416E+02  0.15957761155E+03  0.12500000000E+03 0.  0.
         25    1    1    2    0    0  0.88723688556E+02  0.24983335089E+02 -0.19970854907E+03  0.25299123407E+03  0.12500000000E+03 0.  0.
</event>
<event>
 4    0  0.2202290E-002  0.2687718E+03  0.7546771E-02  0.1101985E+00
         21   -1    0    0  502  501  0.00000000000E+00  0.00000000000E+00  0.15327162737E+03  0.15327162737E+03  0.00000000000E+00 0.  1.
         21   -1    0    0  501  502 -0.00000000000E+00 -0.00000000000E+00 -0.47130896551E+03  0.47130896551E+03  0.00000000000E+00 0.  1.
         25    1    1    2    0    0  0.30208208080E+02 -0.19913246866E+03 -0.30620649853E+03  0.38723855135E+03  0.12500000000E+03 0.  0.
         25    1    1    2    0    0 -0.30208208080E+02  0.19913246866E+03 -0.11830839605E+02  0.23734204153E+03  0.12500000000E+03 0.  0.
</event>
<event>
 4    0  0.2202290E-002  0.2254901E+03  0.7546771E-02  0.1129855E+00
         21   -1    0    0  502  501  0.00000000000E+00  0.00000000000E+00  0.15963925653E+04  0.15963925653E+04  0.00000000000E+00 0.  1.
         21   -1    0    0  501  502 -0.00000000000E+00 -0.00000000000E+00 -0.31850428618E+02  0.31850428618E+02  0.00000000000E+00 0.  1.
         25    1    1    2    0    0 -0.30937701167E+01 -0.14005673218E+03  0.33139312797E+03  0.38088300685E+03  0.12500000000E+03 0.  0.
         25    1    1    2    0    0  0.30937701167E+01  0.14005673218E+03  0.12331490087E+04  0.12473599871E+04  0.12500000000E+03 0.  0.
</event>
<event>
 4    0  0.2202290E-002  0.2742712E+03  0.7546771E-02  0.1098860E+00
         21   -1    0    0  502  501  0.00000000000E+00  0.00000000000E+00  0.12411810321E+03  0.12411810321E+03  0.00000000000E+00 0.  1.
         21   -1    0    0  501  502 -0.00000000000E+00 -0.00000000000E+00 -0.60607368937E+03  0.60607368937E+03  0.00000000000E+00 0.  1.
         25    1    1    2    0    0  0.74646939581E+02 -0.40970598251E+01 -0.55033970011E+03  0.56928704272E+03  0.12500000000E+03 0.  0.
         25    1    1    2    0    0 -0.74646939581E+02  0.40970598251E+01  0.68384113954E+02  0.16090474987E+03  0.12500000000E+03 0.  0.
</event>
<event>
 4    0  0.2202290E-002  0.2131480E+03  0.7546771E-02  0.1139097E+00
         21   -1    0    0  502  501  0.00000000000E+00  0.00000000000E+00  0.76261234615E+03  0.76261234615E+03  0.00000000000E+00 0. -1.
         21   -1    0    0  501  502 -0.00000000000E+00 -0.00000000000E+00 -0.59574242028E+02  0.59574242028E+02  0.00000000000E+00 0. -1.
         25    1    1    2    0    0  0.11813906486E+03  0.12184554846E+03  0.41262722289E+03  0.46334587663E+03  0.12500000000E+03 0.  0.
         25    1    1    2    0    0 -0.11813906486E+03 -0.12184554846E+03  0.29041088124E+03  0.35884071155E+03  0.12500000000E+03 0.  0.
</event>
<event>
 4    0  0.2202290E-002  0.1508334E+03  0.7546771E-02  0.1199453E+00
         21   -1    0    0  502  501  0.00000000000E+00  0.00000000000E+00  0.50260614922E+03  0.50260614922E+03  0.00000000000E+00 0.  1.
         21   -1    0    0  501  502 -0.00000000000E+00 -0.00000000000E+00 -0.45265520011E+02  0.45265520011E+02  0.00000000000E+00 0.  1.
         25    1    1    2    0    0  0.56321188046E+02  0.30628364525E+02  0.12893823518E+03  0.19068361605E+03  0.12500000000E+03 0.  0.
         25    1    1    2    0    0 -0.56321188046E+02 -0.30628364525E+02  0.32840239402E+03  0.35718805318E+03  0.12500000000E+03 0.  0.
</event>
<event>
 4    0  0.2202290E-002  0.2399647E+03  0.7546771E-02  0.1119816E+00
         21   -1    0    0  502  501  0.00000000000E+00  0.00000000000E+00  0.32760537301E+02  0.32760537301E+02  0.00000000000E+00 0. -1.
         21   -1    0    0  501  502 -0.00000000000E+00 -0.00000000000E+00 -0.17576963138E+04  0.17576963138E+04  0.00000000000E+00 0. -1.
         25    1    1    2    0    0 -0.23999336286E+02 -0.10061166605E+03 -0.15220619767E+04  0.15306849239E+04  0.12500000000E+03 0.  0.
         25    1    1    2    0    0  0.23999336286E+02  0.10061166605E+03 -0.20287379977E+03  0.25977192712E+03  0.12500000000E+03 0.  0.
</event>
<event>
 4    0  0.2202290E-002  0.1899611E+03  0.7546771E-02  0.1158496E+00
         21   -1    0    0  502  501  0.00000000000E+00  0.00000000000E+00  0.16596875184E+04  0.16596875184E+04  0.00000000000E+00 0.  1.
         21   -1    0    0  501  502 -0.00000000000E+00 -0.00000000000E+00 -0.21742178782E+02  0.21742178782E+02  0.00000000000E+00 0.  1.
         25    1    1    2    0    0  0.36836710483E+02 -0.12333904119E+00  0.14306717322E+04  0.14365944326E+04  0.12500000000E+03 0.  0.
         25    1    1    2    0    0 -0.36836710483E+02  0.12333904119E+00  0.20727360741E+03  0.24483526458E+03  0.12500000000E+03 0.  0.
</event>
<event>
 4    0  0.2202290E-002  0.2704533E+03  0.7546771E-02  0.1101020E+00
         21   -1    0    0  502  501  0.00000000000E+00  0.00000000000E+00  0.86072066516E+03  0.86072066516E+03  0.00000000000E+00 0. -1.
         21   -1    0    0  501  502 -0.00000000000E+00 -0.00000000000E+00 -0.84981075645E+02  0.84981075645E+02  0.00000000000E+00 0. -1.
         25    1    1    2    0    0  0.10749508287E+03  0.10034608813E+03  0.71911651932E+03  0.74456571141E+03  0.12500000000E+03 0.  0.
         25    1    1    2    0    0 -0.10749508287E+03 -0.10034608813E+03  0.56623070189E+02  0.20113602939E+03  0.12500000000E+03 0.  0.
</event>
<event>
 4    0  0.2202290E-002  0.1898573E+03  0.7546771E-02  0.1158590E+00
         21   -1    0    0  502  501  0.00000000000E+00  0.00000000000E+00  0.26348483918E+03  0.26348483918E+03  0.00000000000E+00 0.  1.
         21   -1    0    0  501  502 -0.00000000000E+00 -0.00000000000E+00 -0.13680410284E+03  0.13680410284E+03  0.00000000000E+00 0.  1.
         25    1    1    2    0    0  0.10754597194E+03 -0.70409185010E+02 -0.24698831561E+01  0.17931728789E+03  0.12500000000E+03 0.  0.
         25    1    1    2    0    0 -0.10754597194E+03  0.70409185010E+02  0.12915061950E+03  0.22097165413E+03  0.12500000000E+03 0.  0.
</event>
<event>
 4    0  0.2202290E-002  0.3416204E+03  0.7546771E-02  0.1066108E+00
         21   -1    0    0  502  501  0.00000000000E+00  0.00000000000E+00  0.45011113963E+03  0.45011113963E+03  0.00000000000E+00 0. -1.
         21   -1    0    0  501  502 -0.00000000000E+00 -0.00000000000E+00 -0.25927922112E+03  0.25927922112E+03  0.00000000000E+00 0. -1.
         25    1    1    2    0    0  0.49310573244E+01  0.26829014959E+03 -0.81625707452E+02  0.30706949671E+03  0.12500000000E+03 0.  0.
         25    1    1    2    0    0 -0.49310573244E+01 -0.26829014959E+03  0.27245762597E+03  0.40232086404E+03  0.12500000000E+03 0.  0.
</event>
<event>
 4    0  0.2202290E-002  0.2196344E+03  0.7546771E-02  0.1134156E+00
         21   -1    0    0  502  501  0.00000000000E+00  0.00000000000E+00  0.13871212090E+03  0.13871212090E+03  0.00000000000E+00 0.  1.
         21   -1    0    0  501  502 -0.00000000000E+00 -0.00000000000E+00 -0.34776528690E+03  0.34776528690E+03  0.00000000000E+00 0.  1.
         25    1    1    2    0    0 -0.27155309277E+02  0.10865740149E+03 -0.26142211538E+03  0.31066117255E+03  0.12500000000E+03 0.  0.
         25    1    1    2    0    0  0.27155309277E+02 -0.10865740149E+03  0.52368949375E+02  0.17581623526E+03  0.12500000000E+03 0.  0.
</event>
<event>
 4    0  0.2202290E-002  0.1479584E+03  0.7546771E-02  0.1203004E+00
         21   -1    0    0  502  501  0.00000000000E+00  0.00000000000E+00  0.42582317471E+02  0.42582317471E+02  0.00000000000E+00 0. -1.
         21   -1    0    0  501  502 -0.00000000000E+00 -0.00000000000E+00 -0.51410303084E+03  0.51410303084E+03  0.00000000000E+00 0. -1.
         25    1    1    2    0    0  0.37926669788E+02  0.50609596175E+02 -0.32532974268E+03  0.35420926722E+03  0.12500000000E+03 0.  0.
         25    1    1    2    0    0 -0.37926669788E+02 -0.50609596175E+02 -0.14619097069E+03  0.20247608110E+03  0.12500000000E+03 0.  0.
</event>
<event>
 4    0  0.2202290E-002  0.2574399E+03  0.7546771E-02  0.1108691E+00
         21   -1    0    0  502  501  0.00000000000E+00  0.00000000000E+00  0.15616371438E+03  0.15616371438E+03  0.00000000000E+00 0.  1.
         21   -1    0    0  501  502 -0.00000000000E+00 -0.00000000000E+00 -0.42439643021E+03  0.42439643021E+03  0.00000000000E+00 0.  1.
         25    1    1    2    0    0 -0.14505836675E+03 -0.17167522162E+03 -0.14726645616E+03  0.29635573318E+03  0.12500000000E+03 0.  0.
         25    1    1    2    0    0  0.14505836675E+03  0.17167522162E+03 -0.12096625967E+03  0.28420441140E+03  0.12500000000E+03 0.  0.
</event>
<event>
 4    0  0.2202290E-002  0.2242749E+03  0.7546771E-02  0.1130735E+00
         21   -1    0    0  502  501  0.00000000000E+00  0.00000000000E+00  0.53104114833E+03  0.53104114833E+03  0.00000000000E+00 0.  1.
         21   -1    0    0  501  502 -0.00000000000E+00 -0.00000000000E+00 -0.94718173844E+02  0.94718173844E+02  0.00000000000E+00 0.  1.
         25    1    1    2    0    0 -0.69518688511E+02 -0.43037083774E+02  0.45155667706E+03  0.47561904002E+03  0.12500000000E+03 0.  0.
         25    1    1    2    0    0  0.69518688511E+02  0.43037083774E+02 -0.15233702571E+02  0.15014028216E+03  0.12500000000E+03 0.  0.
</event>
<event>
 4    0  0.2202290E-002  0.2053052E+03  0.7546771E-02  0.1145339E+00
         21   -1    0    0  502  501  0.00000000000E+00  0.00000000000E+00  0.51229944626E+03  0.51229944626E+03  0.00000000000E+00 0.  1.
         21   -1    0    0  501  502 -0.00000000000E+00 -0.00000000000E+00 -0.82276555339E+02  0.82276555339E+02  0.00000000000E+00 0.  1.
         25    1    1    2    0    0  0.10668129201E+03  0.40616103129E+01  0.36910660450E+02  0.16847786679E+03  0.12500000000E+03 0.  0.
         25    1    1    2    0    0 -0.10668129201E+03 -0.40616103129E+01  0.39311223047E+03  0.42609813481E+03  0.12500000000E+03 0.  0.
</event>
<event>
 4    0  0.2202290E-002  0.3760625E+03  0.7546771E-02  0.1052399E+00
         21   -1    0    0  502  501  0.00000000000E+00  0.00000000000E+00  0.22282532263E+03  0.22282532263E+03  0.00000000000E+00 0. -1.
         21   -1    0    0  501  502 -0.00000000000E+00 -0.00000000000E+00 -0.63468092699E+03  0.63468092699E+03  0.00000000000E+00 0. -1.
         25    1    1    2    0    0 -0.34133327428E+03 -0.74090063384E+02 -0.13564438725E+03  0.39499638152E+03  0.12500000000E+03 0.  0.
         25    1    1    2    0    0  0.34133327428E+03  0.74090063384E+02 -0.27621121711E+03  0.46250986809E+03  0.12500000000E+03 0.  0.
</event>
<event>
 4    0  0.2202290E-002  0.1947135E+03  0.7546771E-02  0.1154277E+00
         21   -1    0    0  502  501  0.00000000000E+00  0.00000000000E+00  0.83724004725E+03  0.83724004725E+03  0.00000000000E+00 0.  1.
         21   -1    0    0  501  502 -0.00000000000E+00 -0.00000000000E+00 -0.45283728913E+02  0.45283728913E+02  0.00000000000E+00 0.  1.
         25    1    1    2    0    0 -0.10253438722E+03 -0.50573344040E+02  0.61355078716E+03  0.63650650595E+03  0.12500000000E+03 0.  0.
         25    1    1    2    0    0  0.10253438722E+03  0.50573344040E+02  0.17840553117E+03  0.24601727021E+03  0.12500000000E+03 0.  0.
</event>
<event>
 4    0  0.2202290E-002  0.2980142E+03  0.7546771E-02  0.1086238E+00
         21   -1    0    0  502  501  0.00000000000E+00  0.00000000000E+00  0.15594566155E+03  0.15594566155E+03  0.00000000000E+00 0. -1.
         21   -1    0    0  501  502 -0.00000000000E+00 -0.00000000000E+00 -0.56950921420E+03  0.56950921420E+03  0.00000000000E+00 0. -1.
         25    1    1    2    0    0  0.12433492066E+03  0.20916055875E+03 -0.62868866812E+02  0.28068631290E+03  0.12500000000E+03 0.  0.
         25    1    1    2    0    0 -0.12433492066E+03 -0.20916055875E+03 -0.35069468584E+03  0.44476856286E+03  0.12500000000E+03 0.  0.
</event>
<event>
 4    0  0.2202290E-002  0.3096525E+03  0.7546771E-02  0.1080513E+00
         21   -1    0    0  502  501  0.00000000000E+00  0.00000000000E+00  0.12517962196E+04  0.12517962196E+04  0.00000000000E+00 0. -1.
         21   -1    0    0  501  502 -0.00000000000E+00 -0.00000000000E+00 -0.76597655127E+02  0.76597655127E+02  0.00000000000E+00 0. -1.
         25    1    1    2    0    0 -0.20229821048E+03 -0.19046119038E+03  0.46895239442E+03  0.55923284886E+03  0.12500000000E+03 0.  0.
         25    1    1    2    0    0  0.20229821048E+03  0.19046119038E+03  0.70624617000E+03  0.76916102583E+03  0.12500000000E+03 0.  0.
</event>
<event>
 4    0  0.2202290E-002  0.1912463E+03  0.7546771E-02  0.1157342E+00
         21   -1    0    0  502  501  0.00000000000E+00  0.00000000000E+00  0.54361163853E+02  0.54361163853E+02  0.00000000000E+00 0. -1.
         21   -1    0    0  501  502 -0.00000000000E+00 -0.00000000000E+00 -0.67281748368E+03  0.67281748368E+03  0.00000000000E+00 0. -1.
         25    1    1    2    0    0  0.81344744161E+02 -0.87570719136E+02 -0.15402401715E+03  0.23159014683E+03  0.12500000000E+03 0.  0.
         25    1    1    2    0    0 -0.81344744161E+02  0.87570719136E+02 -0.46443230267E+03  0.49558850069E+03  0.12500000000E+03 0.  0.
</event>
<event>
 4    0  0.2202290E-002  0.2090822E+03  0.7546771E-02  0.1142295E+00
         21   -1    0    0  502  501  0.00000000000E+00  0.00000000000E+00  0.43711185776E+03  0.43711185776E+03  0.00000000000E+00 0. -1.
         21   -1    0    0  501  502 -0.00000000000E+00 -0.00000000000E+00 -0.10000957751E+03  0.10000957751E+03  0.00000000000E+00 0. -1.
         25    1    1    2    0    0  0.15486455416E+03  0.47626858454E+01  0.25064360516E+03  0.32008269263E+03  0.12500000000E+03 0.  0.
         25    1    1    2    0    0 -0.15486455416E+03 -0.47626858454E+01  0.86458675092E+02  0.21703874265E+03  0.12500000000E+03 0.  0.
</event>
<event>
 4    0  0.2202290E-002  0.1781507E+03  0.7546771E-02  0.1169605E+00
         21   -1    0    0  502  501  0.00000000000E+00  0.00000000000E+00  0.85976564009E+02  0.85976564009E+02  0.00000000000E+00 0.  1.
         21   -1    0    0  501  502 -0.00000000000E+00 -0.00000000000E+00 -0.36914338695E+03  0.36914338695E+03  0.00000000000E+00 0.  1.
         25    1    1    2    0    0  0.11381589951E+03  0.55373573257E+02 -0.12930570898E+03  0.21992102667E+03  0.12500000000E+03 0.  0.
         25    1    1    2    0    0 -0.11381589951E+03 -0.55373573257E+02 -0.15386111396E+03  0.23519892429E+03  0.12500000000E+03 0.  0.
</event>
<event>
 4    0  0.2202290E-002  0.2475715E+03  0.7546771E-02  0.1114849E+00
         21   -1    0    0  502  501  0.00000000000E+00  0.00000000000E+00  0.14365127942E+03  0.14365127942E+03  0.00000000000E+00 0. -1.
         21   -1    0    0  501  502 -0.00000000000E+00 -0.00000000000E+00 -0.42666984528E+03  0.42666984528E+03  0.00000000000E+00 0. -1.
         25    1    1    2    0    0 -0.19045574811E+02  0.19805615213E+03 -0.23130553685E+03  0.32972143499E+03  0.12500000000E+03 0.  0.
         25    1    1    2    0    0  0.19045574811E+02 -0.19805615213E+03 -0.51713029010E+02  0.24059968970E+03  0.12500000000E+03 0.  0.
</event>
<event>
 4    0  0.2202290E-002  0.2006384E+03  0.7546771E-02  0.1149201E+00
         21   -1    0    0  502  501  0.00000000000E+00  0.00000000000E+00  0.11170369420E+04  0.11170369420E+04  0.00000000000E+00 0.  1.
         21   -1    0    0  501  502 -0.00000000000E+00 -0.00000000000E+00 -0.36038003774E+02  0.36038003774E+02  0.00000000000E+00 0.  1.
         25    1    1    2    0    0  0.10154437885E+03  0.11134048488E+03  0.41449603119E+03  0.45841021403E+03  0.12500000000E+03 0.  0.
         25    1    1    2    0    0 -0.10154437885E+03 -0.11134048488E+03  0.66650290703E+03  0.69466473174E+03  0.12500000000E+03 0.  0.
</event>
<event>
 4    0  0.2202290E-002  0.2466605E+03  0.7546771E-02  0.1115434E+00
         21   -1    0    0  502  501  0.00000000000E+00  0.00000000000E+00  0.24590730956E+04  0.24590730956E+04  0.00000000000E+00 0.  1.
         21   -1    0    0  501  502 -0.00000000000E+00 -0.00000000000E+00 -0.24741609259E+02  0.24741609259E+02  0.00000000000E+00 0.  1.
         25    1    1    2    0    0  0.14507214006E+03 -0.12195400238E+03  0.17026529226E+04  0.17177225269E+04  0.12500000000E+03 0.  0.
         25    1    1    2    0    0 -0.14507214006E+03  0.12195400238E+03  0.73167856373E+03  0.76609217796E+03  0.12500000000E+03 0.  0.
</event>
<event>
 4    0  0.2202290E-002  0.2191931E+03  0.7546771E-02  0.1134486E+00
         21   -1    0    0  502  501  0.00000000000E+00  0.00000000000E+00  0.11124940962E+04  0.11124940962E+04  0.00000000000E+00 0.  1.
         21   -1    0    0  501  502 -0.00000000000E+00 -0.00000000000E+00 -0.43187310463E+02  0.43187310463E+02  0.00000000000E+00 0.  1.
         25    1    1    2    0    0  0.79767842695E+01  0.17695768317E+03  0.44951634221E+03  0.49906672163E+03  0.12500000000E+03 0.  0.
         25    1    1    2    0    0 -0.79767842695E+01 -0.17695768317E+03  0.61979044348E+03  0.65661468499E+03  0.12500000000E+03 0.  0.
</event>
<event>
 4    0  0.2202290E-002  0.1911561E+03  0.7546771E-02  0.1157423E+00
         21   -1    0    0  502  501  0.00000000000E+00  0.00000000000E+00  0.21197314581E+03  0.21197314581E+03  0.00000000000E+00 0. -1.
         21   -1    0    0  501  502 -0.00000000000E+00 -0.00000000000E+00 -0.17238341896E+03  0.17238341896E+03  0.00000000000E+00 0. -1.
         25    1    1    2    0    0 -0.11481866418E+03 -0.87846202407E+02  0.15852840356E+02  0.19177224374E+03  0.12500000000E+03 0.  0.
         25    1    1    2    0    0  0.11481866418E+03  0.87846202407E+02  0.23736886493E+02  0.19258432102E+03  0.12500000000E+03 0.  0.
</event>
<event>
 4    0  0.2202290E-002  0.2190759E+03  0.7546771E-02  0.1134574E+00
         21   -1    0    0  502  501  0.00000000000E+00  0.00000000000E+00  0.27314687617E+02  0.27314687617E+02  0.00000000000E+00 0.  1.
         21   -1    0    0  501  502 -0.00000000000E+00 -0.00000000000E+00 -0.17570860135E+04  0.17570860135E+04  0.00000000000E+00 0.  1.
         25    1    1    2    0    0 -0.13676767658E+03 -0.43033729199E+02 -0.13075032606E+04  0.13212672234E+04  0.12500000000E+03 0.  0.
         25    1    1    2    0    0  0.13676767658E+03  0.43033729199E+02 -0.42226806530E+03  0.46313347772E+03  0.12500000000E+03 0.  0.
</event>
<event>
 4    0  0.2202290E-002  0.2711695E+03  0.7546771E-02  0.1100612E+00
         21   -1    0    0  502  501  0.00000000000E+00  0.00000000000E+00  0.15553802928E+03  0.15553802928E+03  0.00000000000E+00 0.  1.
         21   -1    0    0  501  502 -0.00000000000E+00 -0.00000000000E+00 -0.47276488294E+03  0.47276488294E+03  0.00000000000E+00 0.  1.
         25    1    1    2    0    0 -0.19830119094E+03 -0.39961756790E+02 -0.76178009207E+01  0.23791455446E+03  0.12500000000E+03 0.  0.
         25    1    1    2    0    0  0.19830119094E+03  0.39961756790E+02 -0.30960905275E+03  0.39038835776E+03  0.12500000000E+03 0.  0.
</event>
<event>
 4    0  0.2202290E-002  0.2296100E+03  0.7546771E-02  0.1126915E+00
         21   -1    0    0  502  501  0.00000000000E+00  0.00000000000E+00  0.30926676537E+02  0.30926676537E+02  0.00000000000E+00 0.  1.
         21   -1    0    0  501  502 -0.00000000000E+00 -0.00000000000E+00 -0.17047019558E+04  0.17047019558E+04  0.00000000000E+00 0.  1.
         25    1    1    2    0    0  0.13523742617E+03 -0.76688867273E+02 -0.40719459568E+03  0.45343443026E+03  0.12500000000E+03 0.  0.
         25    1    1    2    0    0 -0.13523742617E+03  0.76688867273E+02 -0.12665806836E+04  0.12821942020E+04  0.12500000000E+03 0.  0.
</event>
<event>
 4    0  0.2202290E-002  0.3399746E+03  0.7546771E-02  0.1066807E+00
         21   -1    0    0  502  501  0.00000000000E+00  0.00000000000E+00  0.23224842646E+03  0.23224842646E+03  0.00000000000E+00 0. -1.
         21   -1    0    0  501  502 -0.00000000000E+00 -0.00000000000E+00 -0.49766864547E+03  0.49766864547E+03  0.00000000000E+00 0. -1.
         25    1    1    2    0    0 -0.10148229480E+02 -0.31586017235E+03 -0.12269010725E+03  0.36131495604E+03  0.12500000000E+03 0.  0.
         25    1    1    2    0    0  0.10148229480E+02  0.31586017235E+03 -0.14273011176E+03  0.36860211589E+03  0.12500000000E+03 0.  0.
</event>
<event>
 4    0  0.2202290E-002  0.2053183E+03  0.7546771E-02  0.1145328E+00
         21   -1    0    0  502  501  0.00000000000E+00  0.00000000000E+00  0.36793595737E+03  0.36793595737E+03  0.00000000000E+00 0. -1.
         21   -1    0    0  501  502 -0.00000000000E+00 -0.00000000000E+00 -0.11457316695E+03  0.11457316695E+03  0.00000000000E+00 0. -1.
         25    1    1    2    0    0  0.58731823512E+02  0.44440235569E+02 -0.44026361080E+02  0.15161689253E+03  0.12500000000E+03 0.  0.
         25    1    1    2    0    0 -0.58731823512E+02 -0.44440235569E+02  0.29738915150E+03  0.33089223179E+03  0.12500000000E+03 0.  0.
</event>
<event>
 4    0  0.2202290E-002  0.2614243E+03  0.7546771E-02  0.1106291E+00
         21   -1    0    0  502  501  0.00000000000E+00  0.00000000000E+00  0.54067571901E+03  0.54067571901E+03  0.00000000000E+00 0.  1.
         21   -1    0    0  501  502 -0.00000000000E+00 -0.00000000000E+00 -0.12640229072E+03  0.12640229072E+03  0.00000000000E+00 0.  1.
         25    1    1    2    0    0  0.33882601235E+02  0.13665196070E+03 -0.24267544979E+02  0.18983072135E+03  0.12500000000E+03 0.  0.
         25    1    1    2    0    0 -0.33882601235E+02 -0.13665196070E+03  0.43854097326E+03  0.47724728837E+03  0.12500000000E+03 0.  0.
</event>
<event>
 4    0  0.2202290E-002  0.2673772E+03  0.7546771E-02  0.1102790E+00
         21   -1    0    0  502  501  0.00000000000E+00  0.00000000000E+00  0.66448238057E+03  0.66448238057E+03  0.00000000000E+00 0. -1.
         21   -1    0    0  501  502 -0.00000000000E+00 -0.00000000000E+00 -0.10758836512E+03  0.10758836512E+03  0.00000000000E+00 0. -1.
         25    1    1    2    0    0 -0.20230572270E+03 -0.76853450331E+02  0.14123787814E+03  0.28706653669E+03  0.12500000000E+03 0.  0.
         25    1    1    2    0    0  0.20230572270E+03  0.76853450331E+02  0.41565613731E+03  0.48500420900E+03  0.12500000000E+03 0.  0.
</event>
<event>
 4    0  0.2202290E-002  0.2176775E+03  0.7546771E-02  0.1135627E+00
         21   -1    0    0  502  501  0.00000000000E+00  0.00000000000E+00  0.23488490105E+03  0.23488490105E+03  0.00000000000E+00 0.  1.
         21   -1    0    0  501  502 -0.00000000000E+00 -0.00000000000E+00 -0.20173068306E+03  0.20173068306E+03  0.00000000000E+00 0.  1.
         25    1    1    2    0    0 -0.96501733846E+02  0.14646582063E+03 -0.15036702403E+02  0.21590721078E+03  0.12500000000E+03 0.  0.
         25    1    1    2    0    0  0.96501733846E+02 -0.14646582063E+03  0.48190920398E+02  0.22070837333E+03  0.12500000000E+03 0.  0.
</event>
<event>
 4    0  0.2202290E-002  0.2009154E+03  0.7546771E-02  0.1148969E+00
         21   -1    0    0  502  501  0.00000000000E+00  0.00000000000E+00  0.68097817821E+02  0.68097817821E+02  0.00000000000E+00 0.  1.
         21   -1    0    0  501  502 -0.00000000000E+00 -0.00000000000E+00 -0.59277932685E+03  0.59277932685E+03  0.00000000000E+00 0.  1.
         25    1    1    2    0    0  0.47485460014E+02 -0.50682012142E+02 -0.30224629294E+02  0.14615766652E+03  0.12500000000E+03 0.  0.
         25    1    1    2    0    0 -0.47485460014E+02  0.50682012142E+02 -0.49445687973E+03  0.51471947814E+03  0.12500000000E+03 0.  0.
</event>
<event>
 4    0  0.2202290E-002  0.2532134E+03  0.7546771E-02  0.1111291E+00
         21   -1    0    0  502  501  0.00000000000E+00  0.00000000000E+00  0.66914728683E+03  0.66914728683E+03  0.00000000000E+00 0.  1.
         21   -1    0    0  501  502 -0.00000000000E+00 -0.00000000000E+00 -0.95819040139E+02  0.95819040139E+02  0.00000000000E+00 0.  1.
         25    1    1    2    0    0 -0.43812589428E+02  0.19839428228E+03  0.15838383376E+03  0.28633943674E+03  0.12500000000E+03 0.  0.
         25    1    1    2    0    0  0.43812589428E+02 -0.19839428228E+03  0.41494441292E+03  0.47862689023E+03  0.12500000000E+03 0.  0.
</event>
<event>
 4    0  0.2202290E-002  0.2594677E+03  0.7546771E-02  0.1107463E+00
         21   -1    0    0  502  501  0.00000000000E+00  0.00000000000E+00  0.18546169545E+04  0.18546169545E+04  0.00000000000E+00 0. -1.
         21   -1    0    0  501  502 -0.00000000000E+00 -0.00000000000E+00 -0.36300477541E+02  0.36300477541E+02  0.00000000000E+00 0. -1.
         25    1    1    2    0    0 -0.24146514028E+02 -0.14939383987E+03  0.15275051759E+04  0.15400644908E+04  0.12500000000E+03 0.  0.
         25    1    1    2    0    0  0.24146514028E+02  0.14939383987E+03  0.29081130107E+03  0.35085294122E+03  0.12500000000E+03 0.  0.
</event>
<event>
 4    0  0.2202290E-002  0.1696404E+03  0.7546771E-02  0.1178223E+00
         21   -1    0    0  502  501  0.00000000000E+00  0.00000000000E+00  0.34728406366E+02  0.34728406366E+02  0.00000000000E+00 0. -1.
         21   -1    0    0  501  502 -0.00000000000E+00 -0.00000000000E+00 -0.82865474808E+03  0.82865474808E+03  0.00000000000E+00 0. -1.
         25    1    1    2    0    0  0.10930521571E+03 -0.34702726317E+02 -0.39944274215E+03  0.43397167379E+03  0.12500000000E+03 0.  0.
         25    1    1    2    0    0 -0.10930521571E+03  0.34702726317E+02 -0.39448359956E+03  0.42941148065E+03  0.12500000000E+03 0.  0.
</event>
<event>
 4    0  0.2202290E-002  0.4782351E+03  0.7546771E-02  0.1019621E+00
         21   -1    0    0  502  501  0.00000000000E+00  0.00000000000E+00  0.53898989543E+03  0.53898989543E+03  0.00000000000E+00 0.  1.
         21   -1    0    0  501  502 -0.00000000000E+00 -0.00000000000E+00 -0.42432859776E+03  0.42432859776E+03  0.00000000000E+00 0.  1.
         25    1    1    2    0    0 -0.26897093253E+03  0.68637798390E+00  0.43516732818E+03  0.52663216496E+03  0.12500000000E+03 0.  0.
         25    1    1    2    0    0  0.26897093253E+03 -0.68637798390E+00 -0.32050603052E+03  0.43668632822E+03  0.12500000000E+03 0.  0.
</event>
<event>
 4    0  0.2202290E-002  0.2306506E+03  0.7546771E-02  0.1126183E+00
         21   -1    0    0  502  501  0.00000000000E+00  0.00000000000E+00  0.10406753603E+04  0.10406753603E+04  0.00000000000E+00 0.  1.
         21   -1    0    0  501  502 -0.00000000000E+00 -0.00000000000E+00 -0.51120339721E+02  0.51120339721E+02  0.00000000000E+00 0.  1.
         25    1    1    2    0    0  0.52173696667E+02  0.67754144316E+02  0.90650077073E+03  0.91906548517E+03  0.12500000000E+03 0.  0.
         25    1    1    2    0    0 -0.52173696667E+02 -0.67754144316E+02  0.83054249798E+02  0.17273021480E+03  0.12500000000E+03 0.  0.
</event>
<event>
 4    0  0.2202290E-002  0.2030290E+03  0.7546771E-02  0.1147208E+00
         21   -1    0    0  502  501  0.00000000000E+00  0.00000000000E+00  0.17329756232E+03  0.17329756232E+03  0.00000000000E+00 0.  1.
         21   -1    0    0  501  502 -0.00000000000E+00 -0.00000000000E+00 -0.23786117583E+03  0.23786117583E+03  0.00000000000E+00 0.  1.
         25    1    1    2    0    0 -0.50472953230E+02 -0.69568746611E+02 -0.16891549783E+03  0.22703474386E+03  0.12500000000E+03 0.  0.
         25    1    1    2    0    0  0.50472953230E+02  0.69568746611E+02  0.10435188432E+03  0.18412399429E+03  0.12500000000E+03 0.  0.
</event>
<event>
 4    0  0.2202290E-002  0.2542582E+03  0.7546771E-02  0.1110643E+00
         21   -1    0    0  502  501  0.00000000000E+00  0.00000000000E+00  0.32502407778E+03  0.32502407778E+03  0.00000000000E+00 0. -1.
         21   -1    0    0  501  502 -0.00000000000E+00 -0.00000000000E+00 -0.19889981909E+03  0.19889981909E+03  0.00000000000E+00 0. -1.
         25    1    1    2    0    0 -0.11998367966E+03  0.18582547445E+03  0.53017907261E+02  0.25954400173E+03  0.12500000000E+03 0.  0.
         25    1    1    2    0    0  0.11998367966E+03 -0.18582547445E+03  0.73106351431E+02  0.26437989515E+03  0.12500000000E+03 0.  0.
</event>
<event>
 4    0  0.2202290E-002  0.2134614E+03  0.7546771E-02  0.1138854E+00
         21   -1    0    0  502  501  0.00000000000E+00  0.00000000000E+00  0.15420023061E+03  0.15420023061E+03  0.00000000000E+00 0.  1.
         21   -1    0    0  501  502 -0.00000000000E+00 -0.00000000000E+00 -0.29549746408E+03  0.29549746408E+03  0.00000000000E+00 0.  1.
         25    1    1    2    0    0  0.56904634152E+02 -0.17855532936E+02  0.10044748308E+03  0.17108960898E+03  0.12500000000E+03 0.  0.
         25    1    1    2    0    0 -0.56904634152E+02  0.17855532936E+02 -0.24174471655E+03  0.27860808571E+03  0.12500000000E+03 0.  0.
</event>
<event>
 4    0  0.2202290E-002  0.2073217E+03  0.7546771E-02  0.1143705E+00
         21   -1    0    0  502  501  0.00000000000E+00  0.00000000000E+00  0.49398355863E+02  0.49398355863E+02  0.00000000000E+00 0. -1.
         21   -1    0    0  501  502 -0.00000000000E+00 -0.00000000000E+00 -0.87011611254E+03  0.87011611254E+03  0.00000000000E+00 0. -1.
         25    1    1    2    0    0 -0.10718911955E+02  0.12343730681E+03 -0.16737558967E+03  0.24288114748E+03  0.12500000000E+03 0.  0.
         25    1    1    2    0    0  0.10718911955E+02 -0.12343730681E+03 -0.65334216701E+03  0.67663332092E+03  0.12500000000E+03 0.  0.
</event>
<event>
 4    0  0.2202290E-002  0.2119011E+03  0.7546771E-02  0.1140069E+00
         21   -1    0    0  502  501  0.00000000000E+00  0.00000000000E+00  0.27042287497E+02  0.27042287497E+02  0.00000000000E+00 0.  1.
         21   -1    0    0  501  502 -0.00000000000E+00 -0.00000000000E+00 -0.16604399255E+04  0.16604399255E+04  0.00000000000E+00 0.  1.
         25    1    1    2    0    0  0.15418312990E+03  0.26749271543E+02 -0.54114632265E+03  0.57702019340E+03  0.12500000000E+03 0.  0.
         25    1    1    2    0    0 -0.15418312990E+03 -0.26749271543E+02 -0.10922513153E+04  0.11104620196E+04  0.12500000000E+03 0.  0.
</event>
<event>
 4    0  0.2202290E-002  0.3191498E+03  0.7546771E-02  0.1076041E+00
         21   -1    0    0  502  501  0.00000000000E+00  0.00000000000E+00  0.42703978948E+03  0.42703978948E+03  0.00000000000E+00 0. -1.
         21   -1    0    0  501  502 -0.00000000000E+00 -0.00000000000E+00 -0.23851781638E+03  0.23851781638E+03  0.00000000000E+00 0. -1.
         25    1    1    2    0    0 -0.12282160405E+03  0.25407357220E+03  0.95957810106E+01  0.30879702966E+03  0.12500000000E+03 0.  0.
         25    1    1    2    0    0  0.12282160405E+03 -0.25407357220E+03  0.17892619208E+03  0.35676057620E+03  0.12500000000E+03 0.  0.
</event>
<event>
 4    0  0.2202290E-002  0.1507212E+03  0.7546771E-02  0.1199590E+00
         21   -1    0    0  502  501  0.00000000000E+00  0.00000000000E+00  0.62449402536E+02  0.62449402536E+02  0.00000000000E+00 0. -1.
         21   -1    0    0  501  502 -0.00000000000E+00 -0.00000000000E+00 -0.36376437190E+03  0.36376437190E+03  0.00000000000E+00 0. -1.
         25    1    1    2    0    0 -0.12768693524E+02  0.31204427148E+02 -0.41546563134E+02  0.13597011700E+03  0.12500000000E+03 0.  0.
         25    1    1    2    0    0  0.12768693524E+02 -0.31204427148E+02 -0.25976840623E+03  0.29024365743E+03  0.12500000000E+03 0.  0.
</event>
<event>
 4    0  0.2202290E-002  0.2150506E+03  0.7546771E-02  0.1137628E+00
         21   -1    0    0  502  501  0.00000000000E+00  0.00000000000E+00  0.92491765751E+02  0.92491765751E+02  0.00000000000E+00 0. -1.
         21   -1    0    0  501  502 -0.00000000000E+00 -0.00000000000E+00 -0.50000928101E+03  0.50000928101E+03  0.00000000000E+00 0. -1.
         25    1    1    2    0    0 -0.95122543460E+02  0.78449131358E+02 -0.37481902731E+03  0.41390441858E+03  0.12500000000E+03 0.  0.
         25    1    1    2    0    0  0.95122543460E+02 -0.78449131358E+02 -0.32698487952E+02  0.17859662819E+03  0.12500000000E+03 0.  0.
</event>
<event>
 4    0  0.2202290E-002  0.2115757E+03  0.7546771E-02  0.1140324E+00
         21   -1    0    0  502  501  0.00000000000E+00  0.00000000000E+00  0.13667852070E+03  0.13667852070E+03  0.00000000000E+00 0.  1.
         21   -1    0    0  501  502 -0.00000000000E+00 -0.00000000000E+00 -0.32751523419E+03  0.32751523419E+03  0.00000000000E+00 0.  1.
         25    1    1    2    0    0  0.10303624255E+03  0.13596809411E+03 -0.10195516003E+03  0.23478425107E+03  0.12500000000E+03 0.  0.
         25    1    1    2    0    0 -0.10303624255E+03 -0.13596809411E+03 -0.88881553454E+02  0.22940950381E+03  0.12500000000E+03 0.  0.
</event>
<event>
 4    0  0.2202290E-002  0.2466823E+03  0.7546771E-02  0.1115420E+00
         21   -1    0    0  502  501  0.00000000000E+00  0.00000000000E+00  0.48017611890E+02  0.48017611890E+02  0.00000000000E+00 0.  1.
         21   -1    0    0  501  502 -0.00000000000E+00 -0.00000000000E+00 -0.12672880421E+04  0.12672880421E+04  0.00000000000E+00 0.  1.
         25    1    1    2    0    0  0.21235662033E+02 -0.19491790946E+03 -0.82920676837E+03  0.86119266688E+03  0.12500000000E+03 0.  0.
         25    1    1    2    0    0 -0.21235662033E+02  0.19491790946E+03 -0.39006366181E+03  0.45411298708E+03  0.12500000000E+03 0.  0.
</event>
<event>
 4    0  0.2202290E-002  0.2663215E+03  0.7546771E-02  0.1103404E+00
         21   -1    0    0  502  501  0.00000000000E+00  0.00000000000E+00  0.17943897714E+04  0.17943897714E+04  0.00000000000E+00 0.  1.
         21   -1    0    0  501  502 -0.00000000000E+00 -0.00000000000E+00 -0.39527170558E+02  0.39527170558E+02  0.00000000000E+00 0.  1.
         25    1    1    2    0    0 -0.23723728404E+02 -0.23018792900E+03  0.73328081530E+03  0.77902185594E+03  0.12500000000E+03 0.  0.
         25    1    1    2    0    0  0.23723728404E+02  0.23018792900E+03  0.10215817855E+04  0.10548950860E+04  0.12500000000E+03 0.  0.
</event>
<event>
 4    0  0.2202290E-002  0.2937571E+03  0.7546771E-02  0.1088404E+00
         21   -1    0    0  502  501  0.00000000000E+00  0.00000000000E+00  0.14935927212E+03  0.14935927212E+03  0.00000000000E+00 0.  1.
         21   -1    0    0  501  502 -0.00000000000E+00 -0.00000000000E+00 -0.57775623304E+03  0.57775623304E+03  0.00000000000E+00 0.  1.
         25    1    1    2    0    0 -0.20457964835E+02 -0.26142489247E+03 -0.26824050518E+03  0.39539786462E+03  0.12500000000E+03 0.  0.
         25    1    1    2    0    0  0.20457964835E+02  0.26142489247E+03 -0.16015645574E+03  0.33171764054E+03  0.12500000000E+03 0.  0.
</event>
<event>
 4    0  0.2202290E-002  0.2263399E+03  0.7546771E-02  0.1129243E+00
         21   -1    0    0  502  501  0.00000000000E+00  0.00000000000E+00  0.18450854533E+03  0.18450854533E+03  0.00000000000E+00 0.  1.
         21   -1    0    0  501  502 -0.00000000000E+00 -0.00000000000E+00 -0.27765509310E+03  0.27765509310E+03  0.00000000000E+00 0.  1.
         25    1    1    2    0    0  0.87633366880E+02 -0.84293554202E+02  0.10074011799E+03  0.20139161264E+03  0.12500000000E+03 0.  0.
         25    1    1    2    0    0 -0.87633366880E+02  0.84293554202E+02 -0.19388666576E+03  0.26077202578E+03  0.12500000000E+03 0.  0.
</event>
<event>
 4    0  0.2202290E-002  0.3035665E+03  0.7546771E-02  0.1083471E+00
         21   -1    0    0  502  501  0.00000000000E+00  0.00000000000E+00  0.11648793669E+03  0.11648793669E+03  0.00000000000E+00 0. -1.
         21   -1    0    0  501  502 -0.00000000000E+00 -0.00000000000E+00 -0.79109172860E+03  0.79109172860E+03  0.00000000000E+00 0. -1.
         25    1    1    2    0    0 -0.15971946068E+03  0.21709306030E+03 -0.24409229392E+03  0.38450715326E+03  0.12500000000E+03 0.  0.
         25    1    1    2    0    0  0.15971946068E+03 -0.21709306030E+03 -0.43051149798E+03  0.52307251204E+03  0.12500000000E+03 0.  0.
</event>
<event>
 4    0  0.2202290E-002  0.2030731E+03  0.7546771E-02  0.1147172E+00
         21   -1    0    0  502  501  0.00000000000E+00  0.00000000000E+00  0.28841760135E+03  0.28841760135E+03  0.00000000000E+00 0.  1.
         21   -1    0    0  501  502 -0.00000000000E+00 -0.00000000000E+00 -0.14298254458E+03  0.14298254458E+03  0.00000000000E+00 0.  1.
         25    1    1    2    0    0 -0.70658634663E+01  0.10591174157E+03  0.19994188500E+03  0.25859037261E+03  0.12500000000E+03 0.  0.
         25    1    1    2    0    0  0.70658634663E+01 -0.10591174157E+03 -0.54506828225E+02  0.17280977331E+03  0.12500000000E+03 0.  0.
</event>
<event>
 4    0  0.2202290E-002  0.2113892E+03  0.7546771E-02  0.1140471E+00
         21   -1    0    0  502  501  0.00000000000E+00  0.00000000000E+00  0.15385655414E+04  0.15385655414E+04  0.00000000000E+00 0. -1.
         21   -1    0    0  501  502 -0.00000000000E+00 -0.00000000000E+00 -0.29043531013E+02  0.29043531013E+02  0.00000000000E+00 0. -1.
         25    1    1    2    0    0  0.51255300750E+00  0.11263833374E+03  0.28031644738E+03  0.32694031200E+03  0.12500000000E+03 0.  0.
         25    1    1    2    0    0 -0.51255300750E+00 -0.11263833374E+03  0.12292055630E+04  0.12406687604E+04  0.12500000000E+03 0.  0.
</event>
<event>
 4    0  0.2202290E-002  0.3541963E+03  0.7546771E-02  0.1060906E+00
         21   -1    0    0  502  501  0.00000000000E+00  0.00000000000E+00  0.13815350762E+04  0.13815350762E+04  0.00000000000E+00 0.  1.
         21   -1    0    0  501  502 -0.00000000000E+00 -0.00000000000E+00 -0.90808424484E+02  0.90808424484E+02  0.00000000000E+00 0.  1.
         25    1    1    2    0    0  0.11167195726E+01  0.30414985595E+03  0.37181778154E+03  0.49636865796E+03  0.12500000000E+03 0.  0.
         25    1    1    2    0    0 -0.11167195726E+01 -0.30414985595E+03  0.91890887018E+03  0.97597484272E+03  0.12500000000E+03 0.  0.
</event>
<event>
 4    0  0.2202290E-002  0.2978240E+03  0.7546771E-02  0.1086333E+00
         21   -1    0    0  502  501  0.00000000000E+00  0.00000000000E+00  0.24360313641E+03  0.24360313641E+03  0.00000000000E+00 0. -1.
         21   -1    0    0  501  502 -0.00000000000E+00 -0.00000000000E+00 -0.36411325683E+03  0.36411325683E+03  0.00000000000E+00 0. -1.
         25    1    1    2    0    0 -0.16279362911E+03 -0.20957056501E+03 -0.77087084148E+01  0.29343825855E+03  0.12500000000E+03 0.  0.
         25    1    1    2    0    0  0.16279362911E+03  0.20957056501E+03 -0.11280141201E+03  0.31427813470E+03  0.12500000000E+03 0.  0.
</event>
<event>
 4    0  0.2202290E-002  0.1483396E+03  0.7546771E-02  0.1202528E+00
         21   -1    0    0  502  501  0.00000000000E+00  0.00000000000E+00  0.18600307642E+02  0.18600307642E+02  0.00000000000E+00 0.  1.
         21   -1    0    0  501  502 -0.00000000000E+00 -0.00000000000E+00 -0.11830260496E+04  0.11830260496E+04  0.00000000000E+00 0.  1.
         25    1    1    2    0    0 -0.28989904911E+02  0.74348744523E+02 -0.59594679786E+03  0.61412192298E+03  0.12500000000E+03 0.  0.
         25    1    1    2    0    0  0.28989904911E+02 -0.74348744523E+02 -0.56847894408E+03  0.58750443425E+03  0.12500000000E+03 0.  0.
</event>
<event>
 4    0  0.2202290E-002  0.2280000E+03  0.7546771E-02  0.1128055E+00
         21   -1    0    0  502  501  0.00000000000E+00  0.00000000000E+00  0.12008335846E+03  0.12008335846E+03  0.00000000000E+00 0. -1.
         21   -1    0    0  501  502 -0.00000000000E+00 -0.00000000000E+00 -0.43289918275E+03  0.43289918275E+03  0.00000000000E+00 0. -1.
         25    1    1    2    0    0 -0.16237127892E+03 -0.64810301930E+02 -0.24871661127E+03  0.32870923348E+03  0.12500000000E+03 0.  0.
         25    1    1    2    0    0  0.16237127892E+03  0.64810301930E+02 -0.64099213029E+02  0.22427330774E+03  0.12500000000E+03 0.  0.
</event>
<event>
 4    0  0.2202290E-002  0.2241299E+03  0.7546771E-02  0.1130841E+00
         21   -1    0    0  502  501  0.00000000000E+00  0.00000000000E+00  0.67586048899E+02  0.67586048899E+02  0.00000000000E+00 0. -1.
         21   -1    0    0  501  502 -0.00000000000E+00 -0.00000000000E+00 -0.74326283175E+03  0.74326283175E+03  0.00000000000E+00 0. -1.
         25    1    1    2    0    0 -0.14390988005E+02 -0.14205855638E+03 -0.12212239877E+03  0.22566925856E+03  0.12500000000E+03 0.  0.
         25    1    1    2    0    0  0.14390988005E+02  0.14205855638E+03 -0.55355438408E+03  0.58517962209E+03  0.12500000000E+03 0.  0.
</event>
<event>
 4    0  0.2202290E-002  0.1849905E+03  0.7546771E-02  0.1163059E+00
         21   -1    0    0  502  501  0.00000000000E+00  0.00000000000E+00  0.31806190702E+03  0.31806190702E+03  0.00000000000E+00 0. -1.
         21   -1    0    0  501  502 -0.00000000000E+00 -0.00000000000E+00 -0.10759375077E+03  0.10759375077E+03  0.00000000000E+00 0. -1.
         25    1    1    2    0    0  0.10098612295E+03 -0.66392688683E+02  0.32559729001E+02  0.17689353321E+03  0.12500000000E+03 0.  0.
         25    1    1    2    0    0 -0.10098612295E+03  0.66392688683E+02  0.17790842725E+03  0.24876212458E+03  0.12500000000E+03 0.  0.
</event>
<event>
 4    0  0.2202290E-002  0.2816573E+03  0.7546771E-02  0.1094787E+00
         21   -1    0    0  502  501  0.00000000000E+00  0.00000000000E+00  0.82393937160E+02  0.82393937160E+02  0.00000000000E+00 0.  1.
         21   -1    0    0  501  502 -0.00000000000E+00 -0.00000000000E+00 -0.96282385723E+03  0.96282385723E+03  0.00000000000E+00 0.  1.
         25    1    1    2    0    0 -0.42531639726E+02  0.10023955485E+02 -0.90146608364E+03  0.91113968194E+03  0.12500000000E+03 0.  0.
         25    1    1    2    0    0  0.42531639726E+02 -0.10023955485E+02  0.21036163563E+02  0.13407811245E+03  0.12500000000E+03 0.  0.
</event>
<event>
 4    0  0.2202290E-002  0.1900224E+03  0.7546771E-02  0.1158441E+00
         21   -1    0    0  502  501  0.00000000000E+00  0.00000000000E+00  0.26522127389E+03  0.26522127389E+03  0.00000000000E+00 0.  1.
         21   -1    0    0  501  502 -0.00000000000E+00 -0.00000000000E+00 -0.13614479723E+03  0.13614479723E+03  0.00000000000E+00 0.  1.
         25    1    1    2    0    0  0.33743637454E+02  0.15076589575E+01  0.21141844561E+03  0.24791866660E+03  0.12500000000E+03 0.  0.
         25    1    1    2    0    0 -0.33743637454E+02 -0.15076589575E+01 -0.82341968951E+02  0.15344740452E+03  0.12500000000E+03 0.  0.
</event>
<event>
 4    0  0.2202290E-002  0.2119798E+03  0.7546771E-02  0.1140008E+00
         21   -1    0    0  502  501  0.00000000000E+00  0.00000000000E+00  0.15170819561E+03  0.15170819561E+03  0.00000000000E+00 0. -1.
         21   -1    0    0  501  502 -0.00000000000E+00 -0.00000000000E+00 -0.29619661617E+03  0.29619661617E+03  0.00000000000E+00 0. -1.
         25    1    1    2    0    0 -0.76864810902E+02 -0.69038936903E+02  0.71979319277E+02  0.17742772153E+03  0.12500000000E+03 0.  0.
         25    1    1    2    0    0  0.76864810902E+02  0.69038936903E+02 -0.21646773984E+03  0.27047709026E+03  0.12500000000E+03 0.  0.
</event>
<event>
 4    0  0.2202290E-002  0.2456165E+03  0.7546771E-02  0.1116107E+00
         21   -1    0    0  502  501  0.00000000000E+00  0.00000000000E+00  0.18530455348E+03  0.18530455348E+03  0.00000000000E+00 0. -1.
         21   -1    0    0  501  502 -0.00000000000E+00 -0.00000000000E+00 -0.32555848515E+03  0.32555848515E+03  0.00000000000E+00 0. -1.
         25    1    1    2    0    0  0.43017735001E+02  0.17319280364E+03 -0.18804308849E+03  0.28780457933E+03  0.12500000000E+03 0.  0.
         25    1    1    2    0    0 -0.43017735001E+02 -0.17319280364E+03  0.47789156811E+02  0.22305845930E+03  0.12500000000E+03 0.  0.
</event>
<event>
 4    0  0.2202290E-002  0.2011737E+03  0.7546771E-02  0.1148753E+00
         21   -1    0    0  502  501  0.00000000000E+00  0.00000000000E+00  0.76800907333E+03  0.76800907333E+03  0.00000000000E+00 0.  1.
         21   -1    0    0  501  502 -0.00000000000E+00 -0.00000000000E+00 -0.52695780722E+02  0.52695780722E+02  0.00000000000E+00 0.  1.
         25    1    1    2    0    0 -0.10121526104E+03 -0.46489598334E+02  0.58516458291E+03  0.60864472471E+03  0.12500000000E+03 0.  0.
         25    1    1    2    0    0  0.10121526104E+03  0.46489598334E+02  0.13014870970E+03  0.21206012934E+03  0.12500000000E+03 0.  0.
</event>
<event>
 4    0  0.2202290E-002  0.1857995E+03  0.7546771E-02  0.1162305E+00
         21   -1    0    0  502  501  0.00000000000E+00  0.00000000000E+00  0.53418223228E+02  0.53418223228E+02  0.00000000000E+00 0.  1.
         21   -1    0    0  501  502 -0.00000000000E+00 -0.00000000000E+00 -0.64624874631E+03  0.64624874631E+03  0.00000000000E+00 0.  1.
         25    1    1    2    0    0  0.52351225284E+02  0.10400242353E+03 -0.43399648309E+03  0.46640658467E+03  0.12500000000E+03 0.  0.
         25    1    1    2    0    0 -0.52351225284E+02 -0.10400242353E+03 -0.15883404000E+03  0.23326038487E+03  0.12500000000E+03 0.  0.
</event>
<event>
 4    0  0.2202290E-002  0.2207516E+03  0.7546771E-02  0.1133324E+00
         21   -1    0    0  502  501  0.00000000000E+00  0.00000000000E+00  0.22745135428E+03  0.22745135428E+03  0.00000000000E+00 0.  1.
         21   -1    0    0  501  502 -0.00000000000E+00 -0.00000000000E+00 -0.21424925445E+03  0.21424925445E+03  0.00000000000E+00 0.  1.
         25    1    1    2    0    0 -0.17118363352E+03  0.61363813158E+02  0.52139964568E+00  0.22066858818E+03  0.12500000000E+03 0.  0.
         25    1    1    2    0    0  0.17118363352E+03 -0.61363813158E+02  0.12680700187E+02  0.22103202055E+03  0.12500000000E+03 0.  0.
</event>
<event>
 4    0  0.2202290E-002  0.1819953E+03  0.7546771E-02  0.1165886E+00
         21   -1    0    0  502  501  0.00000000000E+00  0.00000000000E+00  0.57842000671E+03  0.57842000671E+03  0.00000000000E+00 0. -1.
         21   -1    0    0  501  502 -0.00000000000E+00 -0.00000000000E+00 -0.57263416571E+02  0.57263416571E+02  0.00000000000E+00 0. -1.
         25    1    1    2    0    0 -0.52921588500E+02 -0.48392213771E+02  0.45469752316E+03  0.47698777600E+03  0.12500000000E+03 0.  0.
         25    1    1    2    0    0  0.52921588500E+02  0.48392213771E+02  0.66459066979E+02  0.15869564728E+03  0.12500000000E+03 0.  0.
</event>
<event>
 4    0  0.2202290E-002  0.2981284E+03  0.7546771E-02  0.1086180E+00
         21   -1    0    0  502  501  0.00000000000E+00  0.00000000000E+00  0.59415445033E+03  0.59415445033E+03  0.00000000000E+00 0.  1.
         21   -1    0    0  501  502 -0.00000000000E+00 -0.00000000000E+00 -0.14959169448E+03  0.14959169448E+03  0.00000000000E+00 0.  1.
         25    1    1    2    0    0 -0.20426501213E+03  0.11179193288E+03  0.50191369037E+02  0.26900893101E+03  0.12500000000E+03 0.  0.
         25    1    1    2    0    0  0.20426501213E+03 -0.11179193288E+03  0.39437138682E+03  0.47473721381E+03  0.12500000000E+03 0.  0.
</event>
<event>
 4    0  0.2202290E-002  0.1752702E+03  0.7546771E-02  0.1172461E+00
         21   -1    0    0  502  501  0.00000000000E+00  0.00000000000E+00  0.15912522686E+03  0.15912522686E+03  0.00000000000E+00 0. -1.
         21   -1    0    0  501  502 -0.00000000000E+00 -0.00000000000E+00 -0.19305324690E+03  0.19305324690E+03  0.00000000000E+00 0. -1.
         25    1    1    2    0    0  0.89961478024E+02  0.83001836061E+02 -0.27609249145E+02  0.17711477340E+03  0.12500000000E+03 0.  0.
         25    1    1    2    0    0 -0.89961478024E+02 -0.83001836061E+02 -0.63187708919E+01  0.17506370036E+03  0.12500000000E+03 0.  0.
</event>
<event>
 4    0  0.2202290E-002  0.2354914E+03  0.7546771E-02  0.1122833E+00
         21   -1    0    0  502  501  0.00000000000E+00  0.00000000000E+00  0.72401708535E+02  0.72401708535E+02  0.00000000000E+00 0. -1.
         21   -1    0    0  501  502 -0.00000000000E+00 -0.00000000000E+00 -0.76595149401E+03  0.76595149401E+03  0.00000000000E+00 0. -1.
         25    1    1    2    0    0  0.19789617814E+03  0.15312244907E+02 -0.38385014466E+03  0.44984808071E+03  0.12500000000E+03 0.  0.
         25    1    1    2    0    0 -0.19789617814E+03 -0.15312244907E+02 -0.30969964082E+03  0.38850512183E+03  0.12500000000E+03 0.  0.
</event>
<event>
 4    0  0.2202290E-002  0.1878920E+03  0.7546771E-02  0.1160376E+00
         21   -1    0    0  502  501  0.00000000000E+00  0.00000000000E+00  0.19786980137E+03  0.19786980137E+03  0.00000000000E+00 0.  1.
         21   -1    0    0  501  502 -0.00000000000E+00 -0.00000000000E+00 -0.17841737916E+03  0.17841737916E+03  0.00000000000E+00 0.  1.
         25    1    1    2    0    0  0.75636513634E+02  0.76642948439E+02 -0.80301828521E+02  0.18348952941E+03  0.12500000000E+03 0.  0.
         25    1    1    2    0    0 -0.75636513634E+02 -0.76642948439E+02  0.99754250726E+02  0.19279765112E+03  0.12500000000E+03 0.  0.
</event>
<event>
 4    0  0.2202290E-002  0.1764079E+03  0.7546771E-02  0.1171325E+00
         21   -1    0    0  502  501  0.00000000000E+00  0.00000000000E+00  0.67548969191E+02  0.67548969191E+02  0.00000000000E+00 0. -1.
         21   -1    0    0  501  502 -0.00000000000E+00 -0.00000000000E+00 -0.46069927027E+03  0.46069927027E+03  0.00000000000E+00 0. -1.
         25    1    1    2    0    0  0.72224882260E+02 -0.99225790752E+02 -0.16543519716E+03  0.24094811812E+03  0.12500000000E+03 0.  0.
         25    1    1    2    0    0 -0.72224882260E+02  0.99225790752E+02 -0.22771510392E+03  0.28730012134E+03  0.12500000000E+03 0.  0.
</event>
<event>
 4    0  0.2202290E-002  0.2056444E+03  0.7546771E-02  0.1145062E+00
         21   -1    0    0  502  501  0.00000000000E+00  0.00000000000E+00  0.17185443040E+02  0.17185443040E+02  0.00000000000E+00 0. -1.
         21   -1    0    0  501  502 -0.00000000000E+00 -0.00000000000E+00 -0.24607817870E+04  0.24607817870E+04  0.00000000000E+00 0. -1.
         25    1    1    2    0    0  0.10397378172E+03 -0.50339949009E+02 -0.19171429975E+04  0.19246835923E+04  0.12500000000E+03 0.  0.
         25    1    1    2    0    0 -0.10397378172E+03  0.50339949009E+02 -0.52645334648E+03  0.55328363772E+03  0.12500000000E+03 0.  0.
</event>
<event>
 4    0  0.2202290E-002  0.2207363E+03  0.7546771E-02  0.1133335E+00
         21   -1    0    0  502  501  0.00000000000E+00  0.00000000000E+00  0.44459535199E+02  0.44459535199E+02  0.00000000000E+00 0.  1.
         21   -1    0    0  501  502 -0.00000000000E+00 -0.00000000000E+00 -0.10959297132E+04  0.10959297132E+04  0.00000000000E+00 0.  1.
         25    1    1    2    0    0 -0.14492378637E+03  0.77763635384E+02 -0.72664754044E+03  0.75544141723E+03  0.12500000000E+03 0.  0.
         25    1    1    2    0    0  0.14492378637E+03 -0.77763635384E+02 -0.32482263754E+03  0.38494783114E+03  0.12500000000E+03 0.  0.
</event>
<event>
 4    0  0.2202290E-002  0.2084232E+03  0.7546771E-02  0.1142821E+00
         21   -1    0    0  502  501  0.00000000000E+00  0.00000000000E+00  0.45712882654E+03  0.45712882654E+03  0.00000000000E+00 0. -1.
         21   -1    0    0  501  502 -0.00000000000E+00 -0.00000000000E+00 -0.95028429865E+02  0.95028429865E+02  0.00000000000E+00 0. -1.
         25    1    1    2    0    0  0.15886830826E+03 -0.21420565994E+02  0.12010026272E+03  0.23610813862E+03  0.12500000000E+03 0.  0.
         25    1    1    2    0    0 -0.15886830826E+03  0.21420565994E+02  0.24200013396E+03  0.31604911779E+03  0.12500000000E+03 0.  0.
</event>
<event>
 4    0  0.2202290E-002  0.2994444E+03  0.7546771E-02  0.1085519E+00
         21   -1    0    0  502  501  0.00000000000E+00  0.00000000000E+00  0.10363046069E+04  0.10363046069E+04  0.00000000000E+00 0.  1.
         21   -1    0    0  501  502 -0.00000000000E+00 -0.00000000000E+00 -0.86525650869E+02  0.86525650869E+02  0.00000000000E+00 0.  1.
         25    1    1    2    0    0 -0.23777998652E+01 -0.19393225033E+03  0.83271971301E+03  0.86409634422E+03  0.12500000000E+03 0.  0.
         25    1    1    2    0    0  0.23777998652E+01  0.19393225033E+03  0.11705924304E+03  0.25873391357E+03  0.12500000000E+03 0.  0.
</event>
<event>
 4    0  0.2202290E-002  0.1762165E+03  0.7546771E-02  0.1171516E+00
         21   -1    0    0  502  501  0.00000000000E+00  0.00000000000E+00  0.25777993211E+03  0.25777993211E+03  0.00000000000E+00 0.  1.
         21   -1    0    0  501  502 -0.00000000000E+00 -0.00000000000E+00 -0.12046031713E+03  0.12046031713E+03  0.00000000000E+00 0.  1.
         25    1    1    2    0    0  0.34100249606E+02 -0.38868231009E+02 -0.52541987404E+02  0.14511797561E+03  0.12500000000E+03 0.  0.
         25    1    1    2    0    0 -0.34100249606E+02  0.38868231009E+02  0.18986160238E+03  0.23312227363E+03  0.12500000000E+03 0.  0.
</event>
<event>
 4    0  0.2202290E-002  0.2291616E+03  0.7546771E-02  0.1127231E+00
         21   -1    0    0  502  501  0.00000000000E+00  0.00000000000E+00  0.25447051056E+03  0.25447051056E+03  0.00000000000E+00 0. -1.
         21   -1    0    0  501  502 -0.00000000000E+00 -0.00000000000E+00 -0.20636981252E+03  0.20636981252E+03  0.00000000000E+00 0. -1.
         25    1    1    2    0    0  0.62333958129E+02  0.70536793147E+02 -0.14428797759E+03  0.21284966996E+03  0.12500000000E+03 0.  0.
         25    1    1    2    0    0 -0.62333958129E+02 -0.70536793147E+02  0.19238867563E+03  0.24799065312E+03  0.12500000000E+03 0.  0.
</event>
<event>
 4    0  0.2202290E-002  0.4185654E+03  0.7546771E-02  0.1037534E+00
         21   -1    0    0  502  501  0.00000000000E+00  0.00000000000E+00  0.46292458031E+03  0.46292458031E+03  0.00000000000E+00 0.  1.
         21   -1    0    0  501  502 -0.00000000000E+00 -0.00000000000E+00 -0.37845687093E+03  0.37845687093E+03  0.00000000000E+00 0. -1.
         25    1    1    2    0    0 -0.20361143477E+03  0.26960248851E+03 -0.17198889372E+03  0.39918454096E+03  0.12500000000E+03 0.  0.
         25    1    1    2    0    0  0.20361143477E+03 -0.26960248851E+03  0.25645660310E+03  0.44219691027E+03  0.12500000000E+03 0.  0.
</event>
<event>
 4    0  0.2202290E-002  0.2379313E+03  0.7546771E-02  0.1121179E+00
         21   -1    0    0  502  501  0.00000000000E+00  0.00000000000E+00  0.85155003310E+03  0.85155003310E+03  0.00000000000E+00 0.  1.
         21   -1    0    0  501  502 -0.00000000000E+00 -0.00000000000E+00 -0.66480322069E+02  0.66480322069E+02  0.00000000000E+00 0.  1.
         25    1    1    2    0    0  0.18382947285E+03 -0.41752294075E+02  0.53495300537E+03  0.58080654878E+03  0.12500000000E+03 0.  0.
         25    1    1    2    0    0 -0.18382947285E+03  0.41752294075E+02  0.25011670566E+03  0.33722380639E+03  0.12500000000E+03 0.  0.
</event>
<event>
 4    0  0.2202290E-002  0.2194135E+03  0.7546771E-02  0.1134321E+00
         21   -1    0    0  502  501  0.00000000000E+00  0.00000000000E+00  0.15178922045E+03  0.15178922045E+03  0.00000000000E+00 0. -1.
         21   -1    0    0  501  502 -0.00000000000E+00 -0.00000000000E+00 -0.31716540671E+03  0.31716540671E+03  0.00000000000E+00 0. -1.
         25    1    1    2    0    0 -0.48494472064E+02  0.11327400219E+03  0.58011899726E+02  0.18485966002E+03  0.12500000000E+03 0.  0.
         25    1    1    2    0    0  0.48494472064E+02 -0.11327400219E+03 -0.22338808599E+03  0.28409496714E+03  0.12500000000E+03 0.  0.
</event>
<event>
 4    0  0.2202290E-002  0.2051926E+03  0.7546771E-02  0.1145430E+00
         21   -1    0    0  502  501  0.00000000000E+00  0.00000000000E+00  0.39869073271E+03  0.39869073271E+03  0.00000000000E+00 0.  1.
         21   -1    0    0  501  502 -0.00000000000E+00 -0.00000000000E+00 -0.10560571899E+03  0.10560571899E+03  0.00000000000E+00 0.  1.
         25    1    1    2    0    0  0.48328809543E+02 -0.15015469020E+03  0.97436428396E+02  0.22360894973E+03  0.12500000000E+03 0.  0.
         25    1    1    2    0    0 -0.48328809543E+02  0.15015469020E+03  0.19564858533E+03  0.28068750197E+03  0.12500000000E+03 0.  0.
</event>
<event>
 4    0  0.2202290E-002  0.1807741E+03  0.7546771E-02  0.1167056E+00
         21   -1    0    0  502  501  0.00000000000E+00  0.00000000000E+00  0.37474424297E+02  0.37474424297E+02  0.00000000000E+00 0. -1.
         21   -1    0    0  501  502 -0.00000000000E+00 -0.00000000000E+00 -0.87204217903E+03  0.87204217903E+03  0.00000000000E+00 0. -1.
         25    1    1    2    0    0 -0.96505546931E+02 -0.33517586535E+02 -0.62192473439E+03  0.64253569896E+03  0.12500000000E+03 0.  0.
         25    1    1    2    0    0  0.96505546931E+02  0.33517586535E+02 -0.21264302035E+03  0.26698090437E+03  0.12500000000E+03 0.  0.
</event>
<event>
 4    0  0.2202290E-002  0.1992881E+03  0.7546771E-02  0.1150341E+00
         21   -1    0    0  502  501  0.00000000000E+00  0.00000000000E+00  0.98668104078E+02  0.98668104078E+02  0.00000000000E+00 0.  1.
         21   -1    0    0  501  502 -0.00000000000E+00 -0.00000000000E+00 -0.40251865679E+03  0.40251865679E+03  0.00000000000E+00 0.  1.
         25    1    1    2    0    0  0.70493847747E+01  0.15492326203E+03 -0.15986229777E+03  0.25540529594E+03  0.12500000000E+03 0.  0.
         25    1    1    2    0    0 -0.70493847747E+01 -0.15492326203E+03 -0.14398825494E+03  0.24578146493E+03  0.12500000000E+03 0.  0.
</event>
<event>
 4    0  0.2202290E-002  0.1666569E+03  0.7546771E-02  0.1181380E+00
         21   -1    0    0  502  501  0.00000000000E+00  0.00000000000E+00  0.11670646889E+04  0.11670646889E+04  0.00000000000E+00 0. -1.
         21   -1    0    0  501  502 -0.00000000000E+00 -0.00000000000E+00 -0.23798616553E+02  0.23798616553E+02  0.00000000000E+00 0. -1.
         25    1    1    2    0    0 -0.26838889990E+02 -0.20932133239E+02  0.94619880620E+03  0.95502652375E+03  0.12500000000E+03 0.  0.
         25    1    1    2    0    0  0.26838889990E+02  0.20932133239E+02  0.19706726618E+03  0.23583678173E+03  0.12500000000E+03 0.  0.
</event>
<event>
 4    0  0.2202290E-002  0.1781425E+03  0.7546771E-02  0.1169613E+00
         21   -1    0    0  502  501  0.00000000000E+00  0.00000000000E+00  0.82274938594E+02  0.82274938594E+02  0.00000000000E+00 0.  1.
         21   -1    0    0  501  502 -0.00000000000E+00 -0.00000000000E+00 -0.38571609497E+03  0.38571609497E+03  0.00000000000E+00 0.  1.
         25    1    1    2    0    0 -0.11243586774E+03  0.44743680429E+02 -0.10142857112E+03  0.20138663395E+03  0.12500000000E+03 0.  0.
         25    1    1    2    0    0  0.11243586774E+03 -0.44743680429E+02 -0.20201258526E+03  0.26660439962E+03  0.12500000000E+03 0.  0.
</event>
<event>
 4    0  0.2202290E-002  0.2296137E+03  0.7546771E-02  0.1126912E+00
         21   -1    0    0  502  501  0.00000000000E+00  0.00000000000E+00  0.35997260796E+02  0.35997260796E+02  0.00000000000E+00 0. -1.
         21   -1    0    0  501  502 -0.00000000000E+00 -0.00000000000E+00 -0.14646242885E+04  0.14646242885E+04  0.00000000000E+00 0.  1.
         25    1    1    2    0    0 -0.16826581589E+03 -0.58297136852E+02 -0.95411795546E+03  0.97861024617E+03  0.12500000000E+03 0.  0.
         25    1    1    2    0    0  0.16826581589E+03  0.58297136852E+02 -0.47450907227E+03  0.52201130316E+03  0.12500000000E+03 0.  0.
</event>
<event>
 4    0  0.2202290E-002  0.2271789E+03  0.7546771E-02  0.1128641E+00
         21   -1    0    0  502  501  0.00000000000E+00  0.00000000000E+00  0.18408236359E+03  0.18408236359E+03  0.00000000000E+00 0. -1.
         21   -1    0    0  501  502 -0.00000000000E+00 -0.00000000000E+00 -0.28036510772E+03  0.28036510772E+03  0.00000000000E+00 0. -1.
         25    1    1    2    0    0  0.17316661351E+03  0.21694202902E+02  0.27859901748E+02  0.21646821614E+03  0.12500000000E+03 0.  0.
         25    1    1    2    0    0 -0.17316661351E+03 -0.21694202902E+02 -0.12414264588E+03  0.24797925518E+03  0.12500000000E+03 0.  0.
</event>
<event>
 4    0  0.2202290E-002  0.2421898E+03  0.7546771E-02  0.1118343E+00
         21   -1    0    0  502  501  0.00000000000E+00  0.00000000000E+00  0.27224854069E+04  0.27224854069E+04  0.00000000000E+00 0.  1.
         21   -1    0    0  501  502 -0.00000000000E+00 -0.00000000000E+00 -0.21544987824E+02  0.21544987824E+02  0.00000000000E+00 0.  1.
         25    1    1    2    0    0 -0.12103288617E+03  0.15963974638E+03  0.10455506620E+04  0.10718838533E+04  0.12500000000E+03 0.  0.
         25    1    1    2    0    0  0.12103288617E+03 -0.15963974638E+03  0.16553897571E+04  0.16721465414E+04  0.12500000000E+03 0.  0.
</event>
<event>
 4    0  0.2202290E-002  0.3453254E+03  0.7546771E-02  0.1064550E+00
         21   -1    0    0  502  501  0.00000000000E+00  0.00000000000E+00  0.85162094646E+03  0.85162094646E+03  0.00000000000E+00 0. -1.
         21   -1    0    0  501  502 -0.00000000000E+00 -0.00000000000E+00 -0.14002664073E+03  0.14002664073E+03  0.00000000000E+00 0. -1.
         25    1    1    2    0    0  0.63262238587E+02  0.97204425896E+02  0.78695775426E+03  0.80521942241E+03  0.12500000000E+03 0.  0.
         25    1    1    2    0    0 -0.63262238587E+02 -0.97204425896E+02 -0.75363448532E+02  0.18642816477E+03  0.12500000000E+03 0.  0.
</event>
<event>
 4    0  0.2202290E-002  0.2382151E+03  0.7546771E-02  0.1120988E+00
         21   -1    0    0  502  501  0.00000000000E+00  0.00000000000E+00  0.29507539518E+03  0.29507539518E+03  0.00000000000E+00 0. -1.
         21   -1    0    0  501  502 -0.00000000000E+00 -0.00000000000E+00 -0.19231172019E+03  0.19231172019E+03  0.00000000000E+00 0. -1.
         25    1    1    2    0    0  0.18603527025E+03  0.12824437084E+02  0.13288766230E+03  0.26087874340E+03  0.12500000000E+03 0.  0.
         25    1    1    2    0    0 -0.18603527025E+03 -0.12824437084E+02 -0.30123987305E+02  0.22650837198E+03  0.12500000000E+03 0.  0.
</event>
<event>
 4    0  0.2202290E-002  0.2018900E+03  0.7546771E-02  0.1148154E+00
         21   -1    0    0  502  501  0.00000000000E+00  0.00000000000E+00  0.11217916794E+03  0.11217916794E+03  0.00000000000E+00 0. -1.
         21   -1    0    0  501  502 -0.00000000000E+00 -0.00000000000E+00 -0.36334350356E+03  0.36334350356E+03  0.00000000000E+00 0. -1.
         25    1    1    2    0    0  0.14829911887E+02 -0.10923320870E+03 -0.25976896932E+03  0.30863690251E+03  0.12500000000E+03 0.  0.
         25    1    1    2    0    0 -0.14829911887E+02  0.10923320870E+03  0.86046336945E+01  0.16688576899E+03  0.12500000000E+03 0.  0.
</event>
<event>
 4    0  0.2202290E-002  0.2342825E+03  0.7546771E-02  0.1123661E+00
         21   -1    0    0  502  501  0.00000000000E+00  0.00000000000E+00  0.34923479422E+03  0.34923479422E+03  0.00000000000E+00 0.  1.
         21   -1    0    0  501  502 -0.00000000000E+00 -0.00000000000E+00 -0.15716726482E+03  0.15716726482E+03  0.00000000000E+00 0.  1.
         25    1    1    2    0    0  0.16005330495E+03  0.11051685415E+03  0.55132771348E+02  0.23768815274E+03  0.12500000000E+03 0.  0.
         25    1    1    2    0    0 -0.16005330495E+03 -0.11051685415E+03  0.13693475805E+03  0.26871390630E+03  0.12500000000E+03 0.  0.
</event>
<event>
 4    0  0.2202290E-002  0.2245966E+03  0.7546771E-02  0.1130502E+00
         21   -1    0    0  502  501  0.00000000000E+00  0.00000000000E+00  0.33164718684E+03  0.33164718684E+03  0.00000000000E+00 0.  1.
         21   -1    0    0  501  502 -0.00000000000E+00 -0.00000000000E+00 -0.15210034307E+03  0.15210034307E+03  0.00000000000E+00 0.  1.
         25    1    1    2    0    0  0.17412957614E+03  0.66988127426E+02  0.93201427510E+02  0.24314609722E+03  0.12500000000E+03 0.  0.
         25    1    1    2    0    0 -0.17412957614E+03 -0.66988127426E+02  0.86345416268E+02  0.24060143269E+03  0.12500000000E+03 0.  0.
</event>
<event>
 4    0  0.2202290E-002  0.1841792E+03  0.7546771E-02  0.1163819E+00
         21   -1    0    0  502  501  0.00000000000E+00  0.00000000000E+00  0.24495896905E+04  0.24495896905E+04  0.00000000000E+00 0.  1.
         21   -1    0    0  501  502 -0.00000000000E+00 -0.00000000000E+00 -0.13848020515E+02  0.13848020515E+02  0.00000000000E+00 0.  1.
         25    1    1    2    0    0 -0.91513950859E+02 -0.96895416175E+02  0.10634111144E+04  0.10789957011E+04  0.12500000000E+03 0.  0.
         25    1    1    2    0    0  0.91513950859E+02  0.96895416175E+02  0.13723305556E+04  0.13844420099E+04  0.12500000000E+03 0.  0.
</event>
<event>
 4    0  0.2202290E-002  0.1908680E+03  0.7546771E-02  0.1157681E+00
         21   -1    0    0  502  501  0.00000000000E+00  0.00000000000E+00  0.18385866923E+03  0.18385866923E+03  0.00000000000E+00 0. -1.
         21   -1    0    0  501  502 -0.00000000000E+00 -0.00000000000E+00 -0.19814449029E+03  0.19814449029E+03  0.00000000000E+00 0. -1.
         25    1    1    2    0    0  0.11264254173E+03  0.32146417484E+02  0.77081604261E+02  0.18785182480E+03  0.12500000000E+03 0.  0.
         25    1    1    2    0    0 -0.11264254173E+03 -0.32146417484E+02 -0.91367425319E+02  0.19415133472E+03  0.12500000000E+03 0.  0.
</event>
<event>
 4    0  0.2202290E-002  0.3785357E+03  0.7546771E-02  0.1051476E+00
         21   -1    0    0  502  501  0.00000000000E+00  0.00000000000E+00  0.33691470497E+03  0.33691470497E+03  0.00000000000E+00 0. -1.
         21   -1    0    0  501  502 -0.00000000000E+00 -0.00000000000E+00 -0.42529828202E+03  0.42529828202E+03  0.00000000000E+00 0. -1.
         25    1    1    2    0    0  0.15015244002E+03 -0.17782141614E+03  0.22875463751E+03  0.34945657164E+03  0.12500000000E+03 0.  0.
         25    1    1    2    0    0 -0.15015244002E+03  0.17782141614E+03 -0.31713821455E+03  0.41275641535E+03  0.12500000000E+03 0.  0.
</event>
<event>
 4    0  0.2202290E-002  0.3791652E+03  0.7546771E-02  0.1051243E+00
         21   -1    0    0  502  501  0.00000000000E+00  0.00000000000E+00  0.30769856615E+03  0.30769856615E+03  0.00000000000E+00 0.  1.
         21   -1    0    0  501  502 -0.00000000000E+00 -0.00000000000E+00 -0.46723077114E+03  0.46723077114E+03  0.00000000000E+00 0.  1.
         25    1    1    2    0    0 -0.35657833529E+03 -0.29925210205E+02 -0.69670019922E+02  0.38538622067E+03  0.12500000000E+03 0.  0.
         25    1    1    2    0    0  0.35657833529E+03  0.29925210205E+02 -0.89862185070E+02  0.38954311662E+03  0.12500000000E+03 0.  0.
</event>
<event>
 4    0  0.2202290E-002  0.2476873E+03  0.7546771E-02  0.1114775E+00
         21   -1    0    0  502  501  0.00000000000E+00  0.00000000000E+00  0.36863039358E+03  0.36863039358E+03  0.00000000000E+00 0.  1.
         21   -1    0    0  501  502 -0.00000000000E+00 -0.00000000000E+00 -0.16642409821E+03  0.16642409821E+03  0.00000000000E+00 0.  1.
         25    1    1    2    0    0 -0.13050200370E+03  0.14111212709E+03 -0.10741325167E+00  0.22927803410E+03  0.12500000000E+03 0.  0.
         25    1    1    2    0    0  0.13050200370E+03 -0.14111212709E+03  0.20231370862E+03  0.30577645769E+03  0.12500000000E+03 0.  0.
</event>
<event>
 4    0  0.2202290E-002  0.1482419E+03  0.7546771E-02  0.1202650E+00
         21   -1    0    0  502  501  0.00000000000E+00  0.00000000000E+00  0.36007373583E+03  0.36007373583E+03  0.00000000000E+00 0.  1.
         21   -1    0    0  501  502 -0.00000000000E+00 -0.00000000000E+00 -0.61031018724E+02  0.61031018724E+02  0.00000000000E+00 0.  1.
         25    1    1    2    0    0  0.62146552189E+02 -0.17815787619E+02  0.83341459849E+02  0.16355548039E+03  0.12500000000E+03 0.  0.
         25    1    1    2    0    0 -0.62146552189E+02  0.17815787619E+02  0.21570125726E+03  0.25754927416E+03  0.12500000000E+03 0.  0.
</event>
<event>
 4    0  0.2202290E-002  0.2083479E+03  0.7546771E-02  0.1142881E+00
         21   -1    0    0  502  501  0.00000000000E+00  0.00000000000E+00  0.85821078692E+02  0.85821078692E+02  0.00000000000E+00 0. -1.
         21   -1    0    0  501  502 -0.00000000000E+00 -0.00000000000E+00 -0.50580617669E+03  0.50580617669E+03  0.00000000000E+00 0. -1.
         25    1    1    2    0    0 -0.28845802082E+02 -0.15409217405E+03 -0.29040115421E+03  0.35289418920E+03  0.12500000000E+03 0.  0.
         25    1    1    2    0    0  0.28845802082E+02  0.15409217405E+03 -0.12958394378E+03  0.23873306618E+03  0.12500000000E+03 0.  0.
</event>
<event>
 4    0  0.2202290E-002  0.2492929E+03  0.7546771E-02  0.1113753E+00
         21   -1    0    0  502  501  0.00000000000E+00  0.00000000000E+00  0.10272837515E+03  0.10272837515E+03  0.00000000000E+00 0.  1.
         21   -1    0    0  501  502 -0.00000000000E+00 -0.00000000000E+00 -0.60496366645E+03  0.60496366645E+03  0.00000000000E+00 0.  1.
         25    1    1    2    0    0  0.67332312332E+02 -0.19714918543E+03 -0.33040721488E+03  0.41011628747E+03  0.12500000000E+03 0.  0.
         25    1    1    2    0    0 -0.67332312332E+02  0.19714918543E+03 -0.17182807642E+03  0.29757575413E+03  0.12500000000E+03 0.  0.
</event>
<event>
 4    0  0.2202290E-002  0.2315139E+03  0.7546771E-02  0.1125579E+00
         21   -1    0    0  502  501  0.00000000000E+00  0.00000000000E+00  0.46908244764E+03  0.46908244764E+03  0.00000000000E+00 0.  1.
         21   -1    0    0  501  502 -0.00000000000E+00 -0.00000000000E+00 -0.11426286710E+03  0.11426286710E+03  0.00000000000E+00 0.  1.
         25    1    1    2    0    0  0.44487108535E+02  0.42885700724E+01 -0.61550797389E+02  0.14632496478E+03  0.12500000000E+03 0.  0.
         25    1    1    2    0    0 -0.44487108535E+02 -0.42885700724E+01  0.41637037793E+03  0.43702034996E+03  0.12500000000E+03 0.  0.
</event>
<event>
 4    0  0.2202290E-002  0.1757367E+03  0.7546771E-02  0.1171994E+00
         21   -1    0    0  502  501  0.00000000000E+00  0.00000000000E+00  0.35073561575E+03  0.35073561575E+03  0.00000000000E+00 0. -1.
         21   -1    0    0  501  502 -0.00000000000E+00 -0.00000000000E+00 -0.88053153118E+02  0.88053153118E+02  0.00000000000E+00 0. -1.
         25    1    1    2    0    0  0.11864523910E+03 -0.34373778998E+02  0.13089557026E+03  0.21912758785E+03  0.12500000000E+03 0.  0.
         25    1    1    2    0    0 -0.11864523910E+03  0.34373778998E+02  0.13178689237E+03  0.21966118101E+03  0.12500000000E+03 0.  0.
</event>
<event>
 4    0  0.2202290E-002  0.2397125E+03  0.7546771E-02  0.1119985E+00
         21   -1    0    0  502  501  0.00000000000E+00  0.00000000000E+00  0.22879205816E+03  0.22879205816E+03  0.00000000000E+00 0.  1.
         21   -1    0    0  501  502 -0.00000000000E+00 -0.00000000000E+00 -0.25115408173E+03  0.25115408173E+03  0.00000000000E+00 0.  1.
         25    1    1    2    0    0  0.12350916945E+02 -0.60702647284E+02  0.18396604883E+03  0.23088062643E+03  0.12500000000E+03 0.  0.
         25    1    1    2    0    0 -0.12350916945E+02  0.60702647284E+02 -0.20632807240E+03  0.24906551347E+03  0.12500000000E+03 0.  0.
</event>
<event>
 4    0  0.2202290E-002  0.3675713E+03  0.7546771E-02  0.1055626E+00
         21   -1    0    0  502  501  0.00000000000E+00  0.00000000000E+00  0.95500202136E+03  0.95500202136E+03  0.00000000000E+00 0. -1.
         21   -1    0    0  501  502 -0.00000000000E+00 -0.00000000000E+00 -0.14147469945E+03  0.14147469945E+03  0.00000000000E+00 0. -1.
         25    1    1    2    0    0 -0.49495383445E+01  0.82176824917E+00  0.92227274613E+03  0.93071864250E+03  0.12500000000E+03 0.  0.
         25    1    1    2    0    0  0.49495383445E+01 -0.82176824917E+00 -0.10874542422E+03  0.16575807830E+03  0.12500000000E+03 0.  0.
</event>
<event>
 4    0  0.2202290E-002  0.2541902E+03  0.7546771E-02  0.1110685E+00
         21   -1    0    0  502  501  0.00000000000E+00  0.00000000000E+00  0.12335062126E+03  0.12335062126E+03  0.00000000000E+00 0.  1.
         21   -1    0    0  501  502 -0.00000000000E+00 -0.00000000000E+00 -0.52381290029E+03  0.52381290029E+03  0.00000000000E+00 0. -1.
         25    1    1    2    0    0  0.98228747629E+02  0.19395837713E+03 -0.25300897247E+03  0.35624047926E+03  0.12500000000E+03 0.  0.
         25    1    1    2    0    0 -0.98228747629E+02 -0.19395837713E+03 -0.14745330656E+03  0.29092304229E+03  0.12500000000E+03 0.  0.
</event>
<event>
 4    0  0.2202290E-002  0.1892846E+03  0.7546771E-02  0.1159108E+00
         21   -1    0    0  502  501  0.00000000000E+00  0.00000000000E+00  0.73559077059E+02  0.73559077059E+02  0.00000000000E+00 0.  1.
         21   -1    0    0  501  502 -0.00000000000E+00 -0.00000000000E+00 -0.48707330704E+03  0.48707330704E+03  0.00000000000E+00 0.  1.
         25    1    1    2    0    0 -0.58061463751E+02 -0.86891588630E+02 -0.64077284875E+02  0.17507764045E+03  0.12500000000E+03 0.  0.
         25    1    1    2    0    0  0.58061463751E+02  0.86891588630E+02 -0.34943694511E+03  0.38555474366E+03  0.12500000000E+03 0.  0.
</event>
<event>
 4    0  0.2202290E-002  0.2310102E+03  0.7546771E-02  0.1125931E+00
         21   -1    0    0  502  501  0.00000000000E+00  0.00000000000E+00  0.11295425366E+04  0.11295425366E+04  0.00000000000E+00 0. -1.
         21   -1    0    0  501  502 -0.00000000000E+00 -0.00000000000E+00 -0.47245428331E+02  0.47245428331E+02  0.00000000000E+00 0. -1.
         25    1    1    2    0    0 -0.18987736885E+03  0.33985640167E+02  0.48238501681E+03  0.53434889667E+03  0.12500000000E+03 0.  0.
         25    1    1    2    0    0  0.18987736885E+03 -0.33985640167E+02  0.59991209146E+03  0.64243906825E+03  0.12500000000E+03 0.  0.
</event>
<event>
 4    0  0.2202290E-002  0.2072192E+03  0.7546771E-02  0.1143787E+00
         21   -1    0    0  502  501  0.00000000000E+00  0.00000000000E+00  0.10518464912E+03  0.10518464912E+03  0.00000000000E+00 0. -1.
         21   -1    0    0  501  502 -0.00000000000E+00 -0.00000000000E+00 -0.40823258287E+03  0.40823258287E+03  0.00000000000E+00 0. -1.
         25    1    1    2    0    0  0.54566114721E+02 -0.12809221658E+02 -0.34413363314E+03  0.37039775174E+03  0.12500000000E+03 0.  0.
         25    1    1    2    0    0 -0.54566114721E+02  0.12809221658E+02  0.41085699388E+02  0.14301948024E+03  0.12500000000E+03 0.  0.
</event>
<event>
 4    0  0.2202290E-002  0.2342067E+03  0.7546771E-02  0.1123713E+00
         21   -1    0    0  502  501  0.00000000000E+00  0.00000000000E+00  0.18684605437E+03  0.18684605437E+03  0.00000000000E+00 0. -1.
         21   -1    0    0  501  502 -0.00000000000E+00 -0.00000000000E+00 -0.29357214014E+03  0.29357214014E+03  0.00000000000E+00 0. -1.
         25    1    1    2    0    0  0.21451249850E+02  0.19108900006E+03 -0.10204134060E+03  0.25102310104E+03  0.12500000000E+03 0.  0.
         25    1    1    2    0    0 -0.21451249850E+02 -0.19108900006E+03 -0.46847451704E+01  0.22939509346E+03  0.12500000000E+03 0.  0.
</event>
<event>
 4    0  0.2202290E-002  0.3408607E+03  0.7546771E-02  0.1066430E+00
         21   -1    0    0  502  501  0.00000000000E+00  0.00000000000E+00  0.64687910067E+03  0.64687910067E+03  0.00000000000E+00 0. -1.
         21   -1    0    0  501  502 -0.00000000000E+00 -0.00000000000E+00 -0.17961004971E+03  0.17961004971E+03  0.00000000000E+00 0. -1.
         25    1    1    2    0    0  0.11576454087E+03  0.29141691131E+03  0.17630990909E+03  0.38083517322E+03  0.12500000000E+03 0.  0.
         25    1    1    2    0    0 -0.11576454087E+03 -0.29141691131E+03  0.29095914187E+03  0.44565397716E+03  0.12500000000E+03 0.  0.
</event>
<event>
 4    0  0.2202290E-002  0.2269556E+03  0.7546771E-02  0.1128801E+00
         21   -1    0    0  502  501  0.00000000000E+00  0.00000000000E+00  0.57135800488E+03  0.57135800488E+03  0.00000000000E+00 0.  1.
         21   -1    0    0  501  502 -0.00000000000E+00 -0.00000000000E+00 -0.90151601064E+02  0.90151601064E+02  0.00000000000E+00 0.  1.
         25    1    1    2    0    0  0.12859007351E+03  0.36951665087E+02  0.45170863658E+02  0.18859013623E+03  0.12500000000E+03 0.  0.
         25    1    1    2    0    0 -0.12859007351E+03 -0.36951665087E+02  0.43603554016E+03  0.47291946972E+03  0.12500000000E+03 0.  0.
</event>
<event>
 4    0  0.2202290E-002  0.2780974E+03  0.7546771E-02  0.1096733E+00
         21   -1    0    0  502  501  0.00000000000E+00  0.00000000000E+00  0.39941164440E+02  0.39941164440E+02  0.00000000000E+00 0.  1.
         21   -1    0    0  501  502 -0.00000000000E+00 -0.00000000000E+00 -0.19363017649E+04  0.19363017649E+04  0.00000000000E+00 0.  1.
         25    1    1    2    0    0  0.64834537769E+02 -0.21143592493E+02 -0.99412007080E+02  0.17366149816E+03  0.12500000000E+03 0.  0.
         25    1    1    2    0    0 -0.64834537769E+02  0.21143592493E+02 -0.17969485933E+04  0.18025814312E+04  0.12500000000E+03 0.  0.
</event>
<event>
 4    0  0.2202290E-002  0.2234142E+03  0.7546771E-02  0.1131363E+00
         21   -1    0    0  502  501  0.00000000000E+00  0.00000000000E+00  0.56821639807E+03  0.56821639807E+03  0.00000000000E+00 0.  1.
         21   -1    0    0  501  502 -0.00000000000E+00 -0.00000000000E+00 -0.87843160110E+02  0.87843160110E+02  0.00000000000E+00 0.  1.
         25    1    1    2    0    0 -0.54401403105E+02 -0.14961552352E+03  0.37904849691E+03  0.42970580697E+03  0.12500000000E+03 0.  0.
         25    1    1    2    0    0  0.54401403105E+02  0.14961552352E+03  0.10132474106E+03  0.22635375121E+03  0.12500000000E+03 0.  0.
</event>
<event>
 4    0  0.2202290E-002  0.1880875E+03  0.7546771E-02  0.1160198E+00
         21   -1    0    0  502  501  0.00000000000E+00  0.00000000000E+00  0.26841447705E+03  0.26841447705E+03  0.00000000000E+00 0.  1.
         21   -1    0    0  501  502 -0.00000000000E+00 -0.00000000000E+00 -0.13179957572E+03  0.13179957572E+03  0.00000000000E+00 0.  1.
         25    1    1    2    0    0 -0.29353766183E+02 -0.20007045619E+00  0.21453223642E+03  0.25002152724E+03  0.12500000000E+03 0.  0.
         25    1    1    2    0    0  0.29353766183E+02  0.20007045619E+00 -0.77917335098E+02  0.15019252553E+03  0.12500000000E+03 0.  0.
</event>
<event>
 4    0  0.2202290E-002  0.1993104E+03  0.7546771E-02  0.1150322E+00
         21   -1    0    0  502  501  0.00000000000E+00  0.00000000000E+00  0.78579456892E+02  0.78579456892E+02  0.00000000000E+00 0. -1.
         21   -1    0    0  501  502 -0.00000000000E+00 -0.00000000000E+00 -0.50553459370E+03  0.50553459370E+03  0.00000000000E+00 0. -1.
         25    1    1    2    0    0  0.65176927190E+02 -0.12772576670E+03 -0.30063412805E+03  0.35576366068E+03  0.12500000000E+03 0.  0.
         25    1    1    2    0    0 -0.65176927190E+02  0.12772576670E+03 -0.12632100876E+03  0.22835038991E+03  0.12500000000E+03 0.  0.
</event>
<event>
 4    0  0.2202290E-002  0.2086896E+03  0.7546771E-02  0.1142608E+00
         21   -1    0    0  502  501  0.00000000000E+00  0.00000000000E+00  0.91462985587E+03  0.91462985587E+03  0.00000000000E+00 0. -1.
         21   -1    0    0  501  502 -0.00000000000E+00 -0.00000000000E+00 -0.47616360742E+02  0.47616360742E+02  0.00000000000E+00 0. -1.
         25    1    1    2    0    0 -0.13598743308E+03 -0.22932418302E+02  0.21591505946E+03  0.28506629170E+03  0.12500000000E+03 0.  0.
         25    1    1    2    0    0  0.13598743308E+03  0.22932418302E+02  0.65109843567E+03  0.67717992491E+03  0.12500000000E+03 0.  0.
</event>
<event>
 4    0  0.2202290E-002  0.2142664E+03  0.7546771E-02  0.1138231E+00
         21   -1    0    0  502  501  0.00000000000E+00  0.00000000000E+00  0.36319819699E+03  0.36319819699E+03  0.00000000000E+00 0.  1.
         21   -1    0    0  501  502 -0.00000000000E+00 -0.00000000000E+00 -0.12640510017E+03  0.12640510017E+03  0.00000000000E+00 0.  1.
         25    1    1    2    0    0  0.76034426197E+02 -0.15561786109E+03  0.13775027880E+03  0.25416194044E+03  0.12500000000E+03 0.  0.
         25    1    1    2    0    0 -0.76034426197E+02  0.15561786109E+03  0.99042818014E+02  0.23544135673E+03  0.12500000000E+03 0.  0.
</event>
<event>
 4    0  0.2202290E-002  0.2020393E+03  0.7546771E-02  0.1148030E+00
         21   -1    0    0  502  501  0.00000000000E+00  0.00000000000E+00  0.70746106400E+03  0.70746106400E+03  0.00000000000E+00 0. -1.
         21   -1    0    0  501  502 -0.00000000000E+00 -0.00000000000E+00 -0.57699090901E+02  0.57699090901E+02  0.00000000000E+00 0. -1.
         25    1    1    2    0    0  0.47899276472E+02 -0.11264706265E+02  0.39120165121E+02  0.13991648085E+03  0.12500000000E+03 0.  0.
         25    1    1    2    0    0 -0.47899276472E+02  0.11264706265E+02  0.61064180798E+03  0.62524367405E+03  0.12500000000E+03 0.  0.
</event>
<event>
 4    0  0.2202290E-002  0.2645211E+03  0.7546771E-02  0.1104457E+00
         21   -1    0    0  502  501  0.00000000000E+00  0.00000000000E+00  0.65151350795E+03  0.65151350795E+03  0.00000000000E+00 0. -1.
         21   -1    0    0  501  502 -0.00000000000E+00 -0.00000000000E+00 -0.10739828252E+03  0.10739828252E+03  0.00000000000E+00 0. -1.
         25    1    1    2    0    0 -0.38503398933E+02  0.14041448882E+03  0.10885039795E+02  0.19220360166E+03  0.12500000000E+03 0.  0.
         25    1    1    2    0    0  0.38503398933E+02 -0.14041448882E+03  0.53323018563E+03  0.56670818881E+03  0.12500000000E+03 0.  0.
</event>
<event>
 4    0  0.2202290E-002  0.1962252E+03  0.7546771E-02  0.1152963E+00
         21   -1    0    0  502  501  0.00000000000E+00  0.00000000000E+00  0.38802907551E+03  0.38802907551E+03  0.00000000000E+00 0. -1.
         21   -1    0    0  501  502 -0.00000000000E+00 -0.00000000000E+00 -0.99230501013E+02  0.99230501013E+02  0.00000000000E+00 0. -1.
         25    1    1    2    0    0 -0.15597631105E+02 -0.24346479520E+02 -0.39938255313E+02  0.13437299356E+03  0.12500000000E+03 0.  0.
         25    1    1    2    0    0  0.15597631105E+02  0.24346479520E+02  0.32873682981E+03  0.35288658296E+03  0.12500000000E+03 0.  0.
</event>
<event>
 4    0  0.2202290E-002  0.1666383E+03  0.7546771E-02  0.1181400E+00
         21   -1    0    0  502  501  0.00000000000E+00  0.00000000000E+00  0.52406269752E+03  0.52406269752E+03  0.00000000000E+00 0. -1.
         21   -1    0    0  501  502 -0.00000000000E+00 -0.00000000000E+00 -0.52986629245E+02  0.52986629245E+02  0.00000000000E+00 0. -1.
         25    1    1    2    0    0  0.23690732318E+01 -0.44641659545E+02  0.40993160286E+03  0.43089141242E+03  0.12500000000E+03 0.  0.
         25    1    1    2    0    0 -0.23690732318E+01  0.44641659545E+02  0.61144465419E+02  0.14615791435E+03  0.12500000000E+03 0.  0.
</event>
<event>
 4    0  0.2202290E-002  0.3081308E+03  0.7546771E-02  0.1081245E+00
         21   -1    0    0  502  501  0.00000000000E+00  0.00000000000E+00  0.89458909466E+03  0.89458909466E+03  0.00000000000E+00 0. -1.
         21   -1    0    0  501  502 -0.00000000000E+00 -0.00000000000E+00 -0.10613203322E+03  0.10613203322E+03  0.00000000000E+00 0. -1.
         25    1    1    2    0    0 -0.19850650303E+03 -0.41268997068E+02  0.76800240798E+02  0.25026234006E+03  0.12500000000E+03 0.  0.
         25    1    1    2    0    0  0.19850650303E+03  0.41268997068E+02  0.71165682064E+03  0.75045878783E+03  0.12500000000E+03 0.  0.
</event>
<event>
 4    0  0.2202290E-002  0.4288474E+03  0.7546771E-02  0.1034225E+00
         21   -1    0    0  502  501  0.00000000000E+00  0.00000000000E+00  0.70860733509E+03  0.70860733509E+03  0.00000000000E+00 0.  1.
         21   -1    0    0  501  502 -0.00000000000E+00 -0.00000000000E+00 -0.25953737065E+03  0.25953737065E+03  0.00000000000E+00 0.  1.
         25    1    1    2    0    0  0.25779736363E+03 -0.31902332264E+03  0.23249452841E+03  0.48776435584E+03  0.12500000000E+03 0.  0.
         25    1    1    2    0    0 -0.25779736363E+03  0.31902332264E+03  0.21657543603E+03  0.48038034991E+03  0.12500000000E+03 0.  0.
</event>
<event>
 4    0  0.2202290E-002  0.2919080E+03  0.7546771E-02  0.1089357E+00
         21   -1    0    0  502  501  0.00000000000E+00  0.00000000000E+00  0.28751531408E+03  0.28751531408E+03  0.00000000000E+00 0. -1.
         21   -1    0    0  501  502 -0.00000000000E+00 -0.00000000000E+00 -0.29636789191E+03  0.29636789191E+03  0.00000000000E+00 0.  1.
         25    1    1    2    0    0 -0.58444406883E+02  0.25345279491E+03  0.39524633961E+02  0.29127523862E+03  0.12500000000E+03 0.  0.
         25    1    1    2    0    0  0.58444406883E+02 -0.25345279491E+03 -0.48377211796E+02  0.29260796737E+03  0.12500000000E+03 0.  0.
</event>
<event>
 4    0  0.2202290E-002  0.3403503E+03  0.7546771E-02  0.1066647E+00
         21   -1    0    0  502  501  0.00000000000E+00  0.00000000000E+00  0.13127862571E+04  0.13127862571E+04  0.00000000000E+00 0.  1.
         21   -1    0    0  501  502 -0.00000000000E+00 -0.00000000000E+00 -0.88238517741E+02  0.88238517741E+02  0.00000000000E+00 0.  1.
         25    1    1    2    0    0 -0.13884848489E+03  0.25901779750E+03  0.37010209879E+03  0.48884525640E+03  0.12500000000E+03 0.  0.
         25    1    1    2    0    0  0.13884848489E+03 -0.25901779750E+03  0.85444564060E+03  0.91217951847E+03  0.12500000000E+03 0.  0.
</event>
<event>
 4    0  0.2202290E-002  0.2074407E+03  0.7546771E-02  0.1143609E+00
         21   -1    0    0  502  501  0.00000000000E+00  0.00000000000E+00  0.81616176132E+03  0.81616176132E+03  0.00000000000E+00 0.  1.
         21   -1    0    0  501  502 -0.00000000000E+00 -0.00000000000E+00 -0.52724408300E+02  0.52724408300E+02  0.00000000000E+00 0.  1.
         25    1    1    2    0    0 -0.45646807550E+02  0.56730966124E+02  0.69309125398E+03  0.70802720279E+03  0.12500000000E+03 0.  0.
         25    1    1    2    0    0  0.45646807550E+02 -0.56730966124E+02  0.70346099038E+02  0.16085896682E+03  0.12500000000E+03 0.  0.
</event>
<event>
 4    0  0.2202290E-002  0.1928262E+03  0.7546771E-02  0.1155937E+00
         21   -1    0    0  502  501  0.00000000000E+00  0.00000000000E+00  0.98862204789E+03  0.98862204789E+03  0.00000000000E+00 0.  1.
         21   -1    0    0  501  502 -0.00000000000E+00 -0.00000000000E+00 -0.37609867165E+02  0.37609867165E+02  0.00000000000E+00 0.  1.
         25    1    1    2    0    0 -0.62186808081E+02 -0.10031491219E+03  0.70789572823E+03  0.72847212902E+03  0.12500000000E+03 0.  0.
         25    1    1    2    0    0  0.62186808081E+02  0.10031491219E+03  0.24311645249E+03  0.29775978603E+03  0.12500000000E+03 0.  0.
</event>
<event>
 4    0  0.2202290E-002  0.3408449E+03  0.7546771E-02  0.1066437E+00
         21   -1    0    0  502  501  0.00000000000E+00  0.00000000000E+00  0.11066683475E+03  0.11066683475E+03  0.00000000000E+00 0. -1.
         21   -1    0    0  501  502 -0.00000000000E+00 -0.00000000000E+00 -0.10497746607E+04  0.10497746607E+04  0.00000000000E+00 0. -1.
         25    1    1    2    0    0  0.24106296658E+02  0.30621193192E+03 -0.60362977379E+03  0.68872401192E+03  0.12500000000E+03 0.  0.
         25    1    1    2    0    0 -0.24106296658E+02 -0.30621193192E+03 -0.33547805215E+03  0.47171748352E+03  0.12500000000E+03 0.  0.
</event>
<event>
 4    0  0.2202290E-002  0.2714185E+03  0.7546771E-02  0.1100470E+00
         21   -1    0    0  502  501  0.00000000000E+00  0.00000000000E+00  0.10620324735E+03  0.10620324735E+03  0.00000000000E+00 0.  1.
         21   -1    0    0  501  502 -0.00000000000E+00 -0.00000000000E+00 -0.69365125099E+03  0.69365125099E+03  0.00000000000E+00 0.  1.
         25    1    1    2    0    0  0.22449269517E+03 -0.84611077948E+02 -0.26120698036E+03  0.37604533142E+03  0.12500000000E+03 0.  0.
         25    1    1    2    0    0 -0.22449269517E+03  0.84611077948E+02 -0.32624102328E+03  0.42380916692E+03  0.12500000000E+03 0.  0.
</event>
<event>
 4    0  0.2202290E-002  0.2727102E+03  0.7546771E-02  0.1099738E+00
         21   -1    0    0  502  501  0.00000000000E+00  0.00000000000E+00  0.97816043568E+02  0.97816043568E+02  0.00000000000E+00 0.  1.
         21   -1    0    0  501  502 -0.00000000000E+00 -0.00000000000E+00 -0.76031337987E+03  0.76031337987E+03  0.00000000000E+00 0.  1.
         25    1    1    2    0    0  0.12475279164E+03 -0.15218522476E+03 -0.10862167500E+03  0.25719111559E+03  0.12500000000E+03 0.  0.
         25    1    1    2    0    0 -0.12475279164E+03  0.15218522476E+03 -0.55387566130E+03  0.60093830785E+03  0.12500000000E+03 0.  0.
</event>
<event>
 4    0  0.2202290E-002  0.2274348E+03  0.7546771E-02  0.1128458E+00
         21   -1    0    0  502  501  0.00000000000E+00  0.00000000000E+00  0.14974128426E+03  0.14974128426E+03  0.00000000000E+00 0.  1.
         21   -1    0    0  501  502 -0.00000000000E+00 -0.00000000000E+00 -0.34543976579E+03  0.34543976579E+03  0.00000000000E+00 0.  1.
         25    1    1    2    0    0  0.11535768924E+03  0.12866784192E+03 -0.11863376874E+02  0.21360840274E+03  0.12500000000E+03 0.  0.
         25    1    1    2    0    0 -0.11535768924E+03 -0.12866784192E+03 -0.18383510466E+03  0.28157264731E+03  0.12500000000E+03 0.  0.
</event>
<event>
 4    0  0.2202290E-002  0.1952208E+03  0.7546771E-02  0.1153835E+00
         21   -1    0    0  502  501  0.00000000000E+00  0.00000000000E+00  0.18673089682E+03  0.18673089682E+03  0.00000000000E+00 0.  1.
         21   -1    0    0  501  502 -0.00000000000E+00 -0.00000000000E+00 -0.20409680222E+03  0.20409680222E+03  0.00000000000E+00 0.  1.
         25    1    1    2    0    0 -0.11673477367E+03  0.93505834117E+02 -0.19456051752E+02  0.19589253775E+03  0.12500000000E+03 0.  0.
         25    1    1    2    0    0  0.11673477367E+03 -0.93505834117E+02  0.20901463560E+01  0.19493516129E+03  0.12500000000E+03 0.  0.
</event>
<event>
 4    0  0.2202290E-002  0.2425119E+03  0.7546771E-02  0.1118131E+00
         21   -1    0    0  502  501  0.00000000000E+00  0.00000000000E+00  0.37009487454E+02  0.37009487454E+02  0.00000000000E+00 0. -1.
         21   -1    0    0  501  502 -0.00000000000E+00 -0.00000000000E+00 -0.15891066060E+04  0.15891066060E+04  0.00000000000E+00 0. -1.
         25    1    1    2    0    0 -0.13616598105E+03 -0.11523156847E+03 -0.41859337707E+03  0.47187382222E+03  0.12500000000E+03 0.  0.
         25    1    1    2    0    0  0.13616598105E+03  0.11523156847E+03 -0.11335037415E+04  0.11542422712E+04  0.12500000000E+03 0.  0.
</event>
<event>
 4    0  0.2202290E-002  0.2252245E+03  0.7546771E-02  0.1130047E+00
         21   -1    0    0  502  501  0.00000000000E+00  0.00000000000E+00  0.38205748887E+03  0.38205748887E+03  0.00000000000E+00 0. -1.
         21   -1    0    0  501  502 -0.00000000000E+00 -0.00000000000E+00 -0.13277074582E+03  0.13277074582E+03  0.00000000000E+00 0. -1.
         25    1    1    2    0    0  0.70671189794E+02  0.48771950747E+02  0.31495949741E+03  0.34956774058E+03  0.12500000000E+03 0.  0.
         25    1    1    2    0    0 -0.70671189794E+02 -0.48771950747E+02 -0.65672754362E+02  0.16526049411E+03  0.12500000000E+03 0.  0.
</event>
<event>
 4    0  0.2202290E-002  0.2088372E+03  0.7546771E-02  0.1142490E+00
         21   -1    0    0  502  501  0.00000000000E+00  0.00000000000E+00  0.14471852802E+03  0.14471852802E+03  0.00000000000E+00 0.  1.
         21   -1    0    0  501  502 -0.00000000000E+00 -0.00000000000E+00 -0.30136415211E+03  0.30136415211E+03  0.00000000000E+00 0.  1.
         25    1    1    2    0    0  0.45847604422E+02 -0.14927656351E+03 -0.14242581375E+03  0.24555163951E+03  0.12500000000E+03 0.  0.
         25    1    1    2    0    0 -0.45847604422E+02  0.14927656351E+03 -0.14219810335E+02  0.20053104061E+03  0.12500000000E+03 0.  0.
</event>
<event>
 4    0  0.2202290E-002  0.1564438E+03  0.7546771E-02  0.1192771E+00
         21   -1    0    0  502  501  0.00000000000E+00  0.00000000000E+00  0.15337423524E+03  0.15337423524E+03  0.00000000000E+00 0.  1.
         21   -1    0    0  501  502 -0.00000000000E+00 -0.00000000000E+00 -0.15957480671E+03  0.15957480671E+03  0.00000000000E+00 0.  1.
         25    1    1    2    0    0  0.22618968945E+02 -0.23753573384E+02 -0.91286831745E+02  0.15822179260E+03  0.12500000000E+03 0.  0.
         25    1    1    2    0    0 -0.22618968945E+02  0.23753573384E+02  0.85086260275E+02  0.15472724935E+03  0.12500000000E+03 0.  0.
</event>
<event>
 4    0  0.2202290E-002  0.2437526E+03  0.7546771E-02  0.1117318E+00
         21   -1    0    0  502  501  0.00000000000E+00  0.00000000000E+00  0.15206731744E+04  0.15206731744E+04  0.00000000000E+00 0. -1.
         21   -1    0    0  501  502 -0.00000000000E+00 -0.00000000000E+00 -0.39071719209E+02  0.39071719209E+02  0.00000000000E+00 0. -1.
         25    1    1    2    0    0 -0.14808694643E+03 -0.22389545744E+01  0.12137943989E+04  0.12291690687E+04  0.12500000000E+03 0.  0.
         25    1    1    2    0    0  0.14808694643E+03  0.22389545744E+01  0.26780705628E+03  0.33057582491E+03  0.12500000000E+03 0.  0.
</event>
<event>
 4    0  0.2202290E-002  0.1834139E+03  0.7546771E-02  0.1164539E+00
         21   -1    0    0  502  501  0.00000000000E+00  0.00000000000E+00  0.14102385905E+04  0.14102385905E+04  0.00000000000E+00 0. -1.
         21   -1    0    0  501  502 -0.00000000000E+00 -0.00000000000E+00 -0.23854595944E+02  0.23854595944E+02  0.00000000000E+00 0. -1.
         25    1    1    2    0    0  0.11352265102E+03 -0.65951834916E+02  0.58410273872E+03  0.61158649937E+03  0.12500000000E+03 0.  0.
         25    1    1    2    0    0 -0.11352265102E+03  0.65951834916E+02  0.80228125579E+03  0.82250668703E+03  0.12500000000E+03 0.  0.
</event>
<event>
 4    0  0.2202290E-002  0.4879613E+03  0.7546771E-02  0.1016970E+00
         21   -1    0    0  502  501  0.00000000000E+00  0.00000000000E+00  0.37560444802E+03  0.37560444802E+03  0.00000000000E+00 0.  1.
         21   -1    0    0  501  502 -0.00000000000E+00 -0.00000000000E+00 -0.63392821533E+03  0.63392821533E+03  0.00000000000E+00 0.  1.
         25    1    1    2    0    0  0.14455198249E+03 -0.11425166749E+03  0.31999507482E+03  0.38983402504E+03  0.12500000000E+03 0.  0.
         25    1    1    2    0    0 -0.14455198249E+03  0.11425166749E+03 -0.57831884213E+03  0.61969863831E+03  0.12500000000E+03 0.  0.
</event>
<event>
 4    0  0.2202290E-002  0.2451494E+03  0.7546771E-02  0.1116409E+00
         21   -1    0    0  502  501  0.00000000000E+00  0.00000000000E+00  0.82281219646E+02  0.82281219646E+02  0.00000000000E+00 0. -1.
         21   -1    0    0  501  502 -0.00000000000E+00 -0.00000000000E+00 -0.73040036165E+03  0.73040036165E+03  0.00000000000E+00 0. -1.
         25    1    1    2    0    0  0.12630309644E+03  0.14130415564E+03 -0.17075978295E+03  0.28408315692E+03  0.12500000000E+03 0.  0.
         25    1    1    2    0    0 -0.12630309644E+03 -0.14130415564E+03 -0.47735935906E+03  0.52859842438E+03  0.12500000000E+03 0.  0.
</event>
<event>
 4    0  0.2202290E-002  0.4037244E+03  0.7546771E-02  0.1042498E+00
         21   -1    0    0  502  501  0.00000000000E+00  0.00000000000E+00  0.37541911397E+03  0.37541911397E+03  0.00000000000E+00 0. -1.
         21   -1    0    0  501  502 -0.00000000000E+00 -0.00000000000E+00 -0.43416379116E+03  0.43416379116E+03  0.00000000000E+00 0. -1.
         25    1    1    2    0    0  0.20179075427E+03 -0.21692971452E+03  0.21538425859E+03  0.38703150828E+03  0.12500000000E+03 0.  0.
         25    1    1    2    0    0 -0.20179075427E+03  0.21692971452E+03 -0.27412893578E+03  0.42255139685E+03  0.12500000000E+03 0.  0.
</event>
<event>
 4    0  0.2202290E-002  0.3793744E+03  0.7546771E-02  0.1051165E+00
         21   -1    0    0  502  501  0.00000000000E+00  0.00000000000E+00  0.33835272558E+03  0.33835272558E+03  0.00000000000E+00 0. -1.
         21   -1    0    0  501  502 -0.00000000000E+00 -0.00000000000E+00 -0.42536948374E+03  0.42536948374E+03  0.00000000000E+00 0. -1.
         25    1    1    2    0    0 -0.82728053075E+02  0.78623547186E+02  0.29823784562E+03  0.34292332306E+03  0.12500000000E+03 0.  0.
         25    1    1    2    0    0  0.82728053075E+02 -0.78623547186E+02 -0.38525460378E+03  0.42079888626E+03  0.12500000000E+03 0.  0.
</event>
<event>
 4    0  0.2202290E-002  0.2566626E+03  0.7546771E-02  0.1109165E+00
         21   -1    0    0  502  501  0.00000000000E+00  0.00000000000E+00  0.16528573398E+03  0.16528573398E+03  0.00000000000E+00 0.  1.
         21   -1    0    0  501  502 -0.00000000000E+00 -0.00000000000E+00 -0.39855627490E+03  0.39855627490E+03  0.00000000000E+00 0.  1.
         25    1    1    2    0    0 -0.19102486393E+03 -0.46696864742E+02  0.15630079228E+01  0.23302046865E+03  0.12500000000E+03 0.  0.
         25    1    1    2    0    0  0.19102486393E+03  0.46696864742E+02 -0.23483354885E+03  0.33082154023E+03  0.12500000000E+03 0.  0.
</event>
<event>
 4    0  0.2202290E-002  0.2420419E+03  0.7546771E-02  0.1118440E+00
         21   -1    0    0  502  501  0.00000000000E+00  0.00000000000E+00  0.18738930802E+04  0.18738930802E+04  0.00000000000E+00 0. -1.
         21   -1    0    0  501  502 -0.00000000000E+00 -0.00000000000E+00 -0.31263400059E+02  0.31263400059E+02  0.00000000000E+00 0. -1.
         25    1    1    2    0    0 -0.43586591948E+02  0.20262076187E+03  0.91314917405E+03  0.94468056940E+03  0.12500000000E+03 0.  0.
         25    1    1    2    0    0  0.43586591948E+02 -0.20262076187E+03  0.92948050610E+03  0.96047591087E+03  0.12500000000E+03 0.  0.
</event>
<event>
 4    0  0.2202290E-002  0.3972674E+03  0.7546771E-02  0.1044730E+00
         21   -1    0    0  502  501  0.00000000000E+00  0.00000000000E+00  0.20386178277E+03  0.20386178277E+03  0.00000000000E+00 0.  1.
         21   -1    0    0  501  502 -0.00000000000E+00 -0.00000000000E+00 -0.77415888753E+03  0.77415888753E+03  0.00000000000E+00 0.  1.
         25    1    1    2    0    0  0.53604547394E+01  0.13722267280E+03  0.14714907242E+03  0.23693173261E+03  0.12500000000E+03 0.  0.
         25    1    1    2    0    0 -0.53604547394E+01 -0.13722267280E+03 -0.71744617718E+03  0.74108893768E+03  0.12500000000E+03 0.  0.
</event>
<event>
 4    0  0.2202290E-002  0.2816201E+03  0.7546771E-02  0.1094807E+00
         21   -1    0    0  502  501  0.00000000000E+00  0.00000000000E+00  0.10541983171E+03  0.10541983171E+03  0.00000000000E+00 0. -1.
         21   -1    0    0  501  502 -0.00000000000E+00 -0.00000000000E+00 -0.75232409362E+03  0.75232409362E+03  0.00000000000E+00 0. -1.
         25    1    1    2    0    0  0.95091355925E+02 -0.35511063139E+02 -0.67530354997E+03  0.69423575692E+03  0.12500000000E+03 0.  0.
         25    1    1    2    0    0 -0.95091355925E+02  0.35511063139E+02  0.28399288064E+02  0.16350816842E+03  0.12500000000E+03 0.  0.
</event>
<event>
 4    0  0.2202290E-002  0.2023967E+03  0.7546771E-02  0.1147732E+00
         21   -1    0    0  502  501  0.00000000000E+00  0.00000000000E+00  0.12306986009E+03  0.12306986009E+03  0.00000000000E+00 0.  1.
         21   -1    0    0  501  502 -0.00000000000E+00 -0.00000000000E+00 -0.33285516196E+03  0.33285516196E+03  0.00000000000E+00 0.  1.
         25    1    1    2    0    0  0.14297269440E+03  0.69518331644E+02 -0.95780737980E+02  0.22376983609E+03  0.12500000000E+03 0.  0.
         25    1    1    2    0    0 -0.14297269440E+03 -0.69518331644E+02 -0.11400456389E+03  0.23215518596E+03  0.12500000000E+03 0.  0.
</event>
<event>
 4    0  0.2202290E-002  0.1810141E+03  0.7546771E-02  0.1166825E+00
         21   -1    0    0  502  501  0.00000000000E+00  0.00000000000E+00  0.29334239527E+02  0.29334239527E+02  0.00000000000E+00 0.  1.
         21   -1    0    0  501  502 -0.00000000000E+00 -0.00000000000E+00 -0.11169918025E+04  0.11169918025E+04  0.00000000000E+00 0.  1.
         25    1    1    2    0    0 -0.71105315146E+02  0.10176378291E+03 -0.41215558631E+03  0.44822880394E+03  0.12500000000E+03 0.  0.
         25    1    1    2    0    0  0.71105315146E+02 -0.10176378291E+03 -0.67550197670E+03  0.69809723812E+03  0.12500000000E+03 0.  0.
</event>
<event>
 4    0  0.2202290E-002  0.2323824E+03  0.7546771E-02  0.1124974E+00
         21   -1    0    0  502  501  0.00000000000E+00  0.00000000000E+00  0.42882819410E+03  0.42882819410E+03  0.00000000000E+00 0. -1.
         21   -1    0    0  501  502 -0.00000000000E+00 -0.00000000000E+00 -0.12592819116E+03  0.12592819116E+03  0.00000000000E+00 0. -1.
         25    1    1    2    0    0  0.36395945599E+02 -0.91558324360E+02  0.35355413204E+03  0.38772814690E+03  0.12500000000E+03 0.  0.
         25    1    1    2    0    0 -0.36395945599E+02  0.91558324360E+02 -0.50654129094E+02  0.16702823836E+03  0.12500000000E+03 0.  0.
</event>
<event>
 4    0  0.2202290E-002  0.2737901E+03  0.7546771E-02  0.1099130E+00
         21   -1    0    0  502  501  0.00000000000E+00  0.00000000000E+00  0.57328000171E+02  0.57328000171E+02  0.00000000000E+00 0.  1.
         21   -1    0    0  501  502 -0.00000000000E+00 -0.00000000000E+00 -0.13075814997E+04  0.13075814997E+04  0.00000000000E+00 0.  1.
         25    1    1    2    0    0 -0.39046197238E+02 -0.23659274391E+03 -0.73191160578E+03  0.78026939622E+03  0.12500000000E+03 0.  0.
         25    1    1    2    0    0  0.39046197238E+02  0.23659274391E+03 -0.51834189376E+03  0.58464010367E+03  0.12500000000E+03 0.  0.
</event>
<event>
 4    0  0.2202290E-002  0.1881082E+03  0.7546771E-02  0.1160179E+00
         21   -1    0    0  502  501  0.00000000000E+00  0.00000000000E+00  0.10428272519E+04  0.10428272519E+04  0.00000000000E+00 0.  1.
         21   -1    0    0  501  502 -0.00000000000E+00 -0.00000000000E+00 -0.33931486181E+02  0.33931486181E+02  0.00000000000E+00 0.  1.
         25    1    1    2    0    0  0.29894107304E+02  0.60447355559E+02  0.15144690285E+03  0.20762635870E+03  0.12500000000E+03 0.  0.
         25    1    1    2    0    0 -0.29894107304E+02 -0.60447355559E+02  0.85744886287E+03  0.86913237938E+03  0.12500000000E+03 0.  0.
</event>
<event>
 4    0  0.2202290E-002  0.2886912E+03  0.7546771E-02  0.1091034E+00
         21   -1    0    0  502  501  0.00000000000E+00  0.00000000000E+00  0.37373524399E+03  0.37373524399E+03  0.00000000000E+00 0. -1.
         21   -1    0    0  501  502 -0.00000000000E+00 -0.00000000000E+00 -0.22299904151E+03  0.22299904151E+03  0.00000000000E+00 0. -1.
         25    1    1    2    0    0 -0.92239804444E+02  0.13756162461E+03 -0.13207343740E+03  0.24596702006E+03  0.12500000000E+03 0.  0.
         25    1    1    2    0    0  0.92239804444E+02 -0.13756162461E+03  0.28280963989E+03  0.35076726544E+03  0.12500000000E+03 0.  0.
</event>
<event>
 4    0  0.2202290E-002  0.2580368E+03  0.7546771E-02  0.1108329E+00
         21   -1    0    0  502  501  0.00000000000E+00  0.00000000000E+00  0.10868819011E+04  0.10868819011E+04  0.00000000000E+00 0. -1.
         21   -1    0    0  501  502 -0.00000000000E+00 -0.00000000000E+00 -0.61260567792E+02  0.61260567792E+02  0.00000000000E+00 0. -1.
         25    1    1    2    0    0  0.21999252226E+03  0.14805369618E+02  0.62047856087E+03  0.67024962015E+03  0.12500000000E+03 0.  0.
         25    1    1    2    0    0 -0.21999252226E+03 -0.14805369618E+02  0.40514277247E+03  0.47789284877E+03  0.12500000000E+03 0.  0.
</event>
<event>
 4    0  0.2202290E-002  0.1953052E+03  0.7546771E-02  0.1153762E+00
         21   -1    0    0  502  501  0.00000000000E+00  0.00000000000E+00  0.37723230397E+02  0.37723230397E+02  0.00000000000E+00 0. -1.
         21   -1    0    0  501  502 -0.00000000000E+00 -0.00000000000E+00 -0.10111577461E+04  0.10111577461E+04  0.00000000000E+00 0. -1.
         25    1    1    2    0    0 -0.33874999893E+02 -0.13362006933E+03 -0.64596999504E+03  0.67223810740E+03  0.12500000000E+03 0.  0.
         25    1    1    2    0    0  0.33874999893E+02  0.13362006933E+03 -0.32746452062E+03  0.37664286906E+03  0.12500000000E+03 0.  0.
</event>
<event>
 4    0  0.2202290E-002  0.2276535E+03  0.7546771E-02  0.1128302E+00
         21   -1    0    0  502  501  0.00000000000E+00  0.00000000000E+00  0.41226635116E+03  0.41226635116E+03  0.00000000000E+00 0.  1.
         21   -1    0    0  501  502 -0.00000000000E+00 -0.00000000000E+00 -0.12571030792E+03  0.12571030792E+03  0.00000000000E+00 0.  1.
         25    1    1    2    0    0 -0.12737653538E+03  0.12895827334E+03  0.74929475689E+02  0.23258212390E+03  0.12500000000E+03 0.  0.
         25    1    1    2    0    0  0.12737653538E+03 -0.12895827334E+03  0.21162656755E+03  0.30539453519E+03  0.12500000000E+03 0.  0.
</event>
<event>
 4    0  0.2202290E-002  0.4190655E+03  0.7546771E-02  0.1037371E+00
         21   -1    0    0  502  501  0.00000000000E+00  0.00000000000E+00  0.62240437808E+03  0.62240437808E+03  0.00000000000E+00 0.  1.
         21   -1    0    0  501  502 -0.00000000000E+00 -0.00000000000E+00 -0.28215723279E+03  0.28215723279E+03  0.00000000000E+00 0.  1.
         25    1    1    2    0    0  0.24604004857E+03  0.12569856485E+03 -0.14203290909E+03  0.33486442327E+03  0.12500000000E+03 0.  0.
         25    1    1    2    0    0 -0.24604004857E+03 -0.12569856485E+03  0.48228005438E+03  0.56969718760E+03  0.12500000000E+03 0.  0.
</event>
<event>
 4    0  0.2202290E-002  0.3240783E+03  0.7546771E-02  0.1073788E+00
         21   -1    0    0  502  501  0.00000000000E+00  0.00000000000E+00  0.10462315750E+04  0.10462315750E+04  0.00000000000E+00 0. -1.
         21   -1    0    0  501  502 -0.00000000000E+00 -0.00000000000E+00 -0.10038572306E+03  0.10038572306E+03  0.00000000000E+00 0. -1.
         25    1    1    2    0    0 -0.44011603122E+02 -0.29287293761E+03  0.40019533206E+03  0.51331557798E+03  0.12500000000E+03 0.  0.
         25    1    1    2    0    0  0.44011603122E+02  0.29287293761E+03  0.54565051984E+03  0.63330172003E+03  0.12500000000E+03 0.  0.
</event>
<event>
 4    0  0.2202290E-002  0.2204347E+03  0.7546771E-02  0.1133559E+00
         21   -1    0    0  502  501  0.00000000000E+00  0.00000000000E+00  0.12054736027E+04  0.12054736027E+04  0.00000000000E+00 0. -1.
         21   -1    0    0  501  502 -0.00000000000E+00 -0.00000000000E+00 -0.40309023100E+02  0.40309023100E+02  0.00000000000E+00 0. -1.
         25    1    1    2    0    0  0.12069004859E+02  0.81575333863E+01  0.10939886934E+04  0.11012031909E+04  0.12500000000E+03 0.  0.
         25    1    1    2    0    0 -0.12069004859E+02 -0.81575333863E+01  0.71175886146E+02  0.14457943491E+03  0.12500000000E+03 0.  0.
</event>
<event>
 4    0  0.2202290E-002  0.1931540E+03  0.7546771E-02  0.1155647E+00
         21   -1    0    0  502  501  0.00000000000E+00  0.00000000000E+00  0.26377444952E+03  0.26377444952E+03  0.00000000000E+00 0. -1.
         21   -1    0    0  501  502 -0.00000000000E+00 -0.00000000000E+00 -0.14144078711E+03  0.14144078711E+03  0.00000000000E+00 0. -1.
         25    1    1    2    0    0  0.87427612871E+01 -0.14603213402E+03  0.43563143581E+02  0.19729310054E+03  0.12500000000E+03 0.  0.
         25    1    1    2    0    0 -0.87427612871E+01  0.14603213402E+03  0.78770518827E+02  0.20792213609E+03  0.12500000000E+03 0.  0.
</event>
<event>
 4    0  0.2202290E-002  0.3350997E+03  0.7546771E-02  0.1068902E+00
         21   -1    0    0  502  501  0.00000000000E+00  0.00000000000E+00  0.80677270731E+03  0.80677270731E+03  0.00000000000E+00 0. -1.
         21   -1    0    0  501  502 -0.00000000000E+00 -0.00000000000E+00 -0.13918641117E+03  0.13918641117E+03  0.00000000000E+00 0. -1.
         25    1    1    2    0    0  0.10196364372E+03  0.24895811131E+03  0.11381337214E+03  0.31773449530E+03  0.12500000000E+03 0.  0.
         25    1    1    2    0    0 -0.10196364372E+03 -0.24895811131E+03  0.55377292399E+03  0.62822462318E+03  0.12500000000E+03 0.  0.
</event>
<event>
 4    0  0.2202290E-002  0.1974187E+03  0.7546771E-02  0.1151935E+00
         21   -1    0    0  502  501  0.00000000000E+00  0.00000000000E+00  0.23045297407E+03  0.23045297407E+03  0.00000000000E+00 0.  1.
         21   -1    0    0  501  502 -0.00000000000E+00 -0.00000000000E+00 -0.16911964354E+03  0.16911964354E+03  0.00000000000E+00 0.  1.
         25    1    1    2    0    0  0.13295946075E+02  0.83058631281E+02 -0.98431313057E+02  0.17997011364E+03  0.12500000000E+03 0.  0.
         25    1    1    2    0    0 -0.13295946075E+02 -0.83058631281E+02  0.15976464359E+03  0.21960250398E+03  0.12500000000E+03 0.  0.
</event>
<event>
 4    0  0.2202290E-002  0.1870676E+03  0.7546771E-02  0.1161133E+00
         21   -1    0    0  502  501  0.00000000000E+00  0.00000000000E+00  0.24949188284E+03  0.24949188284E+03  0.00000000000E+00 0.  1.
         21   -1    0    0  501  502 -0.00000000000E+00 -0.00000000000E+00 -0.14026229753E+03  0.14026229753E+03  0.00000000000E+00 0.  1.
         25    1    1    2    0    0 -0.17984606259E+02 -0.72251438419E+02 -0.67876131638E+02  0.16054870184E+03  0.12500000000E+03 0.  0.
         25    1    1    2    0    0  0.17984606259E+02  0.72251438419E+02  0.17710571695E+03  0.22920547854E+03  0.12500000000E+03 0.  0.
</event>
<event>
 4    0  0.2202290E-002  0.1506407E+03  0.7546771E-02  0.1199688E+00
         21   -1    0    0  502  501  0.00000000000E+00  0.00000000000E+00  0.59788108776E+02  0.59788108776E+02  0.00000000000E+00 0.  1.
         21   -1    0    0  501  502 -0.00000000000E+00 -0.00000000000E+00 -0.37955092513E+03  0.37955092513E+03  0.00000000000E+00 0.  1.
         25    1    1    2    0    0  0.73112537573E+02  0.39436328573E+02 -0.14103884989E+03  0.20595539405E+03  0.12500000000E+03 0.  0.
         25    1    1    2    0    0 -0.73112537573E+02 -0.39436328573E+02 -0.17872396647E+03  0.23338363985E+03  0.12500000000E+03 0.  0.
</event>
<event>
 4    0  0.2202290E-002  0.2270911E+03  0.7546771E-02  0.1128704E+00
         21   -1    0    0  502  501  0.00000000000E+00  0.00000000000E+00  0.65417723159E+03  0.65417723159E+03  0.00000000000E+00 0.  1.
         21   -1    0    0  501  502 -0.00000000000E+00 -0.00000000000E+00 -0.78832397154E+02  0.78832397154E+02  0.00000000000E+00 0.  1.
         25    1    1    2    0    0  0.17596036944E+03  0.52371284779E+02  0.21127871971E+03  0.30654281998E+03  0.12500000000E+03 0.  0.
         25    1    1    2    0    0 -0.17596036944E+03 -0.52371284779E+02  0.36406611473E+03  0.42646680876E+03  0.12500000000E+03 0.  0.
</event>
<event>
 4    0  0.2202290E-002  0.1584030E+03  0.7546771E-02  0.1190512E+00
         21   -1    0    0  502  501  0.00000000000E+00  0.00000000000E+00  0.71032981652E+02  0.71032981652E+02  0.00000000000E+00 0. -1.
         21   -1    0    0  501  502 -0.00000000000E+00 -0.00000000000E+00 -0.35323753981E+03  0.35323753981E+03  0.00000000000E+00 0. -1.
         25    1    1    2    0    0 -0.79326273360E+02 -0.23542582812E+01 -0.65720978620E+02  0.16199520736E+03  0.12500000000E+03 0.  0.
         25    1    1    2    0    0  0.79326273360E+02  0.23542582812E+01 -0.21648357954E+03  0.26227531410E+03  0.12500000000E+03 0.  0.
</event>
<event>
 4    0  0.2202290E-002  0.1513343E+03  0.7546771E-02  0.1198843E+00
         21   -1    0    0  502  501  0.00000000000E+00  0.00000000000E+00  0.28601606370E+02  0.28601606370E+02  0.00000000000E+00 0. -1.
         21   -1    0    0  501  502 -0.00000000000E+00 -0.00000000000E+00 -0.80072627987E+03  0.80072627987E+03  0.00000000000E+00 0. -1.
         25    1    1    2    0    0 -0.67188864415E+02 -0.35215577566E+02 -0.27914485585E+03  0.31512113695E+03  0.12500000000E+03 0.  0.
         25    1    1    2    0    0  0.67188864415E+02  0.35215577566E+02 -0.49297981766E+03  0.51420674930E+03  0.12500000000E+03 0.  0.
</event>
<event>
 4    0  0.2202290E-002  0.3158447E+03  0.7546771E-02  0.1077578E+00
         21   -1    0    0  502  501  0.00000000000E+00  0.00000000000E+00  0.95654411603E+02  0.95654411603E+02  0.00000000000E+00 0. -1.
         21   -1    0    0  501  502 -0.00000000000E+00 -0.00000000000E+00 -0.10428989391E+04  0.10428989391E+04  0.00000000000E+00 0. -1.
         25    1    1    2    0    0 -0.26262451116E+02  0.13153130321E+03 -0.10078563649E+02  0.18362128827E+03  0.12500000000E+03 0.  0.
         25    1    1    2    0    0  0.26262451116E+02 -0.13153130321E+03 -0.93716596383E+03  0.95493206241E+03  0.12500000000E+03 0.  0.
</event>
<event>
 4    0  0.2202290E-002  0.2432254E+03  0.7546771E-02  0.1117663E+00
         21   -1    0    0  502  501  0.00000000000E+00  0.00000000000E+00  0.14581694466E+04  0.14581694466E+04  0.00000000000E+00 0.  1.
         21   -1    0    0  501  502 -0.00000000000E+00 -0.00000000000E+00 -0.40570439866E+02  0.40570439866E+02  0.00000000000E+00 0.  1.
         25    1    1    2    0    0 -0.14605082448E+03  0.13422750812E+03  0.50946985130E+03  0.56083187913E+03  0.12500000000E+03 0.  0.
         25    1    1    2    0    0  0.14605082448E+03 -0.13422750812E+03  0.90812915542E+03  0.93790800732E+03  0.12500000000E+03 0.  0.
</event>
<event>
 4    0  0.2202290E-002  0.3008622E+03  0.7546771E-02  0.1084810E+00
         21   -1    0    0  502  501  0.00000000000E+00  0.00000000000E+00  0.31108351404E+03  0.31108351404E+03  0.00000000000E+00 0.  1.
         21   -1    0    0  501  502 -0.00000000000E+00 -0.00000000000E+00 -0.29097675226E+03  0.29097675226E+03  0.00000000000E+00 0.  1.
         25    1    1    2    0    0  0.22241546463E+03 -0.15534235019E+03 -0.25927584521E+02  0.29982849149E+03  0.12500000000E+03 0.  0.
         25    1    1    2    0    0 -0.22241546463E+03  0.15534235019E+03  0.46034346304E+02  0.30223177482E+03  0.12500000000E+03 0.  0.
</event>
<event>
 4    0  0.2202290E-002  0.1785057E+03  0.7546771E-02  0.1169257E+00
         21   -1    0    0  502  501  0.00000000000E+00  0.00000000000E+00  0.77737609019E+02  0.77737609019E+02  0.00000000000E+00 0.  1.
         21   -1    0    0  501  502 -0.00000000000E+00 -0.00000000000E+00 -0.40989546371E+03  0.40989546371E+03  0.00000000000E+00 0.  1.
         25    1    1    2    0    0 -0.60275501496E+02  0.86298519610E+02 -0.67975968765E+02  0.17699238090E+03  0.12500000000E+03 0.  0.
         25    1    1    2    0    0  0.60275501496E+02 -0.86298519610E+02 -0.26418188593E+03  0.31064069183E+03  0.12500000000E+03 0.  0.
</event>
<event>
 4    0  0.2202290E-002  0.1692116E+03  0.7546771E-02  0.1178673E+00
         21   -1    0    0  502  501  0.00000000000E+00  0.00000000000E+00  0.43190480116E+02  0.43190480116E+02  0.00000000000E+00 0.  1.
         21   -1    0    0  501  502 -0.00000000000E+00 -0.00000000000E+00 -0.66293693890E+03  0.66293693890E+03  0.00000000000E+00 0.  1.
         25    1    1    2    0    0 -0.15970741722E+02 -0.11132208780E+03 -0.34945630781E+03  0.38780456791E+03  0.12500000000E+03 0.  0.
         25    1    1    2    0    0  0.15970741722E+02  0.11132208780E+03 -0.27029015097E+03  0.31832285111E+03  0.12500000000E+03 0.  0.
</event>
<event>
 4    0  0.2202290E-002  0.2281233E+03  0.7546771E-02  0.1127968E+00
         21   -1    0    0  502  501  0.00000000000E+00  0.00000000000E+00  0.54727474209E+03  0.54727474209E+03  0.00000000000E+00 0. -1.
         21   -1    0    0  501  502 -0.00000000000E+00 -0.00000000000E+00 -0.95089826370E+02  0.95089826370E+02  0.00000000000E+00 0. -1.
         25    1    1    2    0    0 -0.76508609345E+02  0.16611918741E+03  0.30277126843E+03  0.37515942307E+03  0.12500000000E+03 0.  0.
         25    1    1    2    0    0  0.76508609345E+02 -0.16611918741E+03  0.14941364730E+03  0.26720514540E+03  0.12500000000E+03 0.  0.
</event>
<event>
 4    0  0.2202290E-002  0.1991672E+03  0.7546771E-02  0.1150444E+00
         21   -1    0    0  502  501  0.00000000000E+00  0.00000000000E+00  0.10312613014E+03  0.10312613014E+03  0.00000000000E+00 0.  1.
         21   -1    0    0  501  502 -0.00000000000E+00 -0.00000000000E+00 -0.38465096953E+03  0.38465096953E+03  0.00000000000E+00 0.  1.
         25    1    1    2    0    0 -0.99050881698E+02 -0.67760767577E+02 -0.20532816922E+02  0.17449697808E+03  0.12500000000E+03 0.  0.
         25    1    1    2    0    0  0.99050881698E+02  0.67760767577E+02 -0.26099202247E+03  0.31328012159E+03  0.12500000000E+03 0.  0.
</event>
<event>
 4    0  0.2202290E-002  0.1790102E+03  0.7546771E-02  0.1168764E+00
         21   -1    0    0  502  501  0.00000000000E+00  0.00000000000E+00  0.12170909358E+04  0.12170909358E+04  0.00000000000E+00 0.  1.
         21   -1    0    0  501  502 -0.00000000000E+00 -0.00000000000E+00 -0.26328889917E+02  0.26328889917E+02  0.00000000000E+00 0.  1.
         25    1    1    2    0    0 -0.45440082633E+02 -0.11677806169E+03  0.50233613666E+03  0.53260539896E+03  0.12500000000E+03 0.  0.
         25    1    1    2    0    0  0.45440082633E+02  0.11677806169E+03  0.68842590923E+03  0.71081442677E+03  0.12500000000E+03 0.  0.
</event>
<event>
 4    0  0.2202290E-002  0.1836022E+03  0.7546771E-02  0.1164362E+00
         21   -1    0    0  502  501  0.00000000000E+00  0.00000000000E+00  0.10144480342E+03  0.10144480342E+03  0.00000000000E+00 0. -1.
         21   -1    0    0  501  502 -0.00000000000E+00 -0.00000000000E+00 -0.33229667890E+03  0.33229667890E+03  0.00000000000E+00 0. -1.
         25    1    1    2    0    0  0.51268820451E+02  0.38539199578E+01 -0.26220590003E+03  0.29499199762E+03  0.12500000000E+03 0.  0.
         25    1    1    2    0    0 -0.51268820451E+02 -0.38539199578E+01  0.31354024550E+02  0.13874948470E+03  0.12500000000E+03 0.  0.
</event>
<event>
 4    0  0.2202290E-002  0.2047166E+03  0.7546771E-02  0.1145820E+00
         21   -1    0    0  502  501  0.00000000000E+00  0.00000000000E+00  0.90493524479E+03  0.90493524479E+03  0.00000000000E+00 0. -1.
         21   -1    0    0  501  502 -0.00000000000E+00 -0.00000000000E+00 -0.46311489083E+02  0.46311489083E+02  0.00000000000E+00 0. -1.
         25    1    1    2    0    0 -0.12409618079E+03  0.94392421034E+02  0.53253938870E+03  0.56879960597E+03  0.12500000000E+03 0.  0.
         25    1    1    2    0    0  0.12409618079E+03 -0.94392421034E+02  0.32608436701E+03  0.38244712791E+03  0.12500000000E+03 0.  0.
</event>
<event>
 4    0  0.2202290E-002  0.1575080E+03  0.7546771E-02  0.1191539E+00
         21   -1    0    0  502  501  0.00000000000E+00  0.00000000000E+00  0.75763283620E+02  0.75763283620E+02  0.00000000000E+00 0. -1.
         21   -1    0    0  501  502 -0.00000000000E+00 -0.00000000000E+00 -0.32745107793E+03  0.32745107793E+03  0.00000000000E+00 0. -1.
         25    1    1    2    0    0 -0.93112590832E+02  0.12491833765E+02 -0.15005443198E+03  0.21671948006E+03  0.12500000000E+03 0.  0.
         25    1    1    2    0    0  0.93112590832E+02 -0.12491833765E+02 -0.10163336233E+03  0.18649488149E+03  0.12500000000E+03 0.  0.
</event>
<event>
 4    0  0.2202290E-002  0.1828620E+03  0.7546771E-02  0.1165062E+00
         21   -1    0    0  502  501  0.00000000000E+00  0.00000000000E+00  0.69162224239E+02  0.69162224239E+02  0.00000000000E+00 0.  1.
         21   -1    0    0  501  502 -0.00000000000E+00 -0.00000000000E+00 -0.48347949992E+03  0.48347949992E+03  0.00000000000E+00 0.  1.
         25    1    1    2    0    0  0.13702547186E+02  0.13033104862E+03 -0.24537383420E+03  0.30497091754E+03  0.12500000000E+03 0.  0.
         25    1    1    2    0    0 -0.13702547186E+02 -0.13033104862E+03 -0.16894344148E+03  0.24767080662E+03  0.12500000000E+03 0.  0.
</event>
<event>
 4    0  0.2202290E-002  0.1740293E+03  0.7546771E-02  0.1173710E+00
         21   -1    0    0  502  501  0.00000000000E+00  0.00000000000E+00  0.33522602627E+03  0.33522602627E+03  0.00000000000E+00 0. -1.
         21   -1    0    0  501  502 -0.00000000000E+00 -0.00000000000E+00 -0.90345612529E+02  0.90345612529E+02  0.00000000000E+00 0. -1.
         25    1    1    2    0    0 -0.75111161316E+02 -0.42241813764E+02  0.22644272453E+03  0.27263045479E+03  0.12500000000E+03 0.  0.
         25    1    1    2    0    0  0.75111161316E+02  0.42241813764E+02  0.18437689211E+02  0.15294118401E+03  0.12500000000E+03 0.  0.
</event>
<event>
 4    0  0.2202290E-002  0.3526842E+03  0.7546771E-02  0.1061519E+00
         21   -1    0    0  502  501  0.00000000000E+00  0.00000000000E+00  0.14535520198E+04  0.14535520198E+04  0.00000000000E+00 0.  1.
         21   -1    0    0  501  502 -0.00000000000E+00 -0.00000000000E+00 -0.85573911157E+02  0.85573911157E+02  0.00000000000E+00 0.  1.
         25    1    1    2    0    0 -0.61492768256E+02 -0.17199231117E+03  0.84833914198E+02  0.23703271640E+03  0.12500000000E+03 0.  0.
         25    1    1    2    0    0  0.61492768256E+02  0.17199231117E+03  0.12831441944E+04  0.13020932145E+04  0.12500000000E+03 0.  0.
</event>
<event>
 4    0  0.2202290E-002  0.2499846E+03  0.7546771E-02  0.1113315E+00
         21   -1    0    0  502  501  0.00000000000E+00  0.00000000000E+00  0.27100804028E+03  0.27100804028E+03  0.00000000000E+00 0.  1.
         21   -1    0    0  501  502 -0.00000000000E+00 -0.00000000000E+00 -0.23059208201E+03  0.23059208201E+03  0.00000000000E+00 0.  1.
         25    1    1    2    0    0  0.35527259588E+02 -0.83063012086E+02  0.21758726935E+03  0.26670371188E+03  0.12500000000E+03 0.  0.
         25    1    1    2    0    0 -0.35527259588E+02  0.83063012086E+02 -0.17717131108E+03  0.23489641040E+03  0.12500000000E+03 0.  0.
</event>
<event>
 4    0  0.2202290E-002  0.1703877E+03  0.7546771E-02  0.1177444E+00
         21   -1    0    0  502  501  0.00000000000E+00  0.00000000000E+00  0.31140716993E+03  0.31140716993E+03  0.00000000000E+00 0.  1.
         21   -1    0    0  501  502 -0.00000000000E+00 -0.00000000000E+00 -0.93228356187E+02  0.93228356187E+02  0.00000000000E+00 0.  1.
         25    1    1    2    0    0  0.56314251965E+02  0.54958169995E+02  0.82286120453E+01  0.14793378749E+03  0.12500000000E+03 0.  0.
         25    1    1    2    0    0 -0.56314251965E+02 -0.54958169995E+02  0.20995020170E+03  0.25670173863E+03  0.12500000000E+03 0.  0.
</event>
<event>
 4    0  0.2202290E-002  0.2655601E+03  0.7546771E-02  0.1103848E+00
         21   -1    0    0  502  501  0.00000000000E+00  0.00000000000E+00  0.18364277541E+03  0.18364277541E+03  0.00000000000E+00 0.  1.
         21   -1    0    0  501  502 -0.00000000000E+00 -0.00000000000E+00 -0.38401822216E+03  0.38401822216E+03  0.00000000000E+00 0. -1.
         25    1    1    2    0    0 -0.49504371393E+02  0.22513096513E+03 -0.55316754228E+02  0.26799174902E+03  0.12500000000E+03 0.  0.
         25    1    1    2    0    0  0.49504371393E+02 -0.22513096513E+03 -0.14505869252E+03  0.29966924854E+03  0.12500000000E+03 0.  0.
</event>
<event>
 4    0  0.2202290E-002  0.1848493E+03  0.7546771E-02  0.1163191E+00
         21   -1    0    0  502  501  0.00000000000E+00  0.00000000000E+00  0.21095734221E+02  0.21095734221E+02  0.00000000000E+00 0. -1.
         21   -1    0    0  501  502 -0.00000000000E+00 -0.00000000000E+00 -0.16197242227E+04  0.16197242227E+04  0.00000000000E+00 0. -1.
         25    1    1    2    0    0 -0.78019627751E+02  0.42878147670E+02 -0.12566637496E+04  0.12659993592E+04  0.12500000000E+03 0.  0.
         25    1    1    2    0    0  0.78019627751E+02 -0.42878147670E+02 -0.34196473889E+03  0.37482059776E+03  0.12500000000E+03 0.  0.
</event>
<event>
 4    0  0.2202290E-002  0.3340060E+03  0.7546771E-02  0.1069378E+00
         21   -1    0    0  502  501  0.00000000000E+00  0.00000000000E+00  0.66731419778E+02  0.66731419778E+02  0.00000000000E+00 0.  1.
         21   -1    0    0  501  502 -0.00000000000E+00 -0.00000000000E+00 -0.16717762894E+04  0.16717762894E+04  0.00000000000E+00 0.  1.
         25    1    1    2    0    0 -0.25177885695E+03  0.10770660911E+03 -0.11791380454E+04  0.12169572041E+04  0.12500000000E+03 0.  0.
         25    1    1    2    0    0  0.25177885695E+03 -0.10770660911E+03 -0.42590682422E+03  0.52155050510E+03  0.12500000000E+03 0.  0.
</event>
<event>
 4    0  0.2202290E-002  0.2796335E+03  0.7546771E-02  0.1095889E+00
         21   -1    0    0  502  501  0.00000000000E+00  0.00000000000E+00  0.79713653633E+03  0.79713653633E+03  0.00000000000E+00 0. -1.
         21   -1    0    0  501  502 -0.00000000000E+00 -0.00000000000E+00 -0.98094706960E+02  0.98094706960E+02  0.00000000000E+00 0. -1.
         25    1    1    2    0    0  0.13870375784E+03  0.16194565409E+03  0.55887161860E+03  0.61108723877E+03  0.12500000000E+03 0.  0.
         25    1    1    2    0    0 -0.13870375784E+03 -0.16194565409E+03  0.14017021078E+03  0.28414400452E+03  0.12500000000E+03 0.  0.
</event>
<event>
 4    0  0.2202290E-002  0.2277198E+03  0.7546771E-02  0.1128255E+00
         21   -1    0    0  502  501  0.00000000000E+00  0.00000000000E+00  0.22700223183E+03  0.22700223183E+03  0.00000000000E+00 0.  1.
         21   -1    0    0  501  502 -0.00000000000E+00 -0.00000000000E+00 -0.22843973400E+03  0.22843973400E+03  0.00000000000E+00 0.  1.
         25    1    1    2    0    0 -0.62343695131E+02 -0.43369158952E+02  0.17382067905E+03  0.22717008768E+03  0.12500000000E+03 0.  0.
         25    1    1    2    0    0  0.62343695131E+02  0.43369158952E+02 -0.17525818122E+03  0.22827187816E+03  0.12500000000E+03 0.  0.
</event>
<event>
 4    0  0.2202290E-002  0.2259598E+03  0.7546771E-02  0.1129516E+00
         21   -1    0    0  502  501  0.00000000000E+00  0.00000000000E+00  0.64039415300E+03  0.64039415300E+03  0.00000000000E+00 0.  1.
         21   -1    0    0  501  502 -0.00000000000E+00 -0.00000000000E+00 -0.79728792518E+02  0.79728792518E+02  0.00000000000E+00 0.  1.
         25    1    1    2    0    0  0.82622114552E+02 -0.14962318465E+03  0.40599861852E+03  0.45790106949E+03  0.12500000000E+03 0.  0.
         25    1    1    2    0    0 -0.82622114552E+02  0.14962318465E+03  0.15466674196E+03  0.26222187602E+03  0.12500000000E+03 0.  0.
</event>
<event>
 4    0  0.2202290E-002  0.3112023E+03  0.7546771E-02  0.1079771E+00
         21   -1    0    0  502  501  0.00000000000E+00  0.00000000000E+00  0.80834139871E+02  0.80834139871E+02  0.00000000000E+00 0.  1.
         21   -1    0    0  501  502 -0.00000000000E+00 -0.00000000000E+00 -0.11980934535E+04  0.11980934535E+04  0.00000000000E+00 0.  1.
         25    1    1    2    0    0  0.15401369495E+03  0.20286139412E+03 -0.29589501177E+03  0.40994124146E+03  0.12500000000E+03 0.  0.
         25    1    1    2    0    0 -0.15401369495E+03 -0.20286139412E+03 -0.82136430186E+03  0.86898635192E+03  0.12500000000E+03 0.  0.
</event>
<event>
 4    0  0.2202290E-002  0.2746180E+03  0.7546771E-02  0.1098665E+00
         21   -1    0    0  502  501  0.00000000000E+00  0.00000000000E+00  0.15549770111E+03  0.15549770111E+03  0.00000000000E+00 0.  1.
         21   -1    0    0  501  502 -0.00000000000E+00 -0.00000000000E+00 -0.48499153463E+03  0.48499153463E+03  0.00000000000E+00 0.  1.
         25    1    1    2    0    0 -0.15302406348E+03  0.16742141862E+03 -0.27126761911E+03  0.37504321964E+03  0.12500000000E+03 0.  0.
         25    1    1    2    0    0  0.15302406348E+03 -0.16742141862E+03 -0.58226214402E+02  0.26544601609E+03  0.12500000000E+03 0.  0.
</event>
<event>
 4    0  0.2202290E-002  0.2079662E+03  0.7546771E-02  0.1143187E+00
         21   -1    0    0  502  501  0.00000000000E+00  0.00000000000E+00  0.30549387672E+02  0.30549387672E+02  0.00000000000E+00 0. -1.
         21   -1    0    0  501  502 -0.00000000000E+00 -0.00000000000E+00 -0.14157384337E+04  0.14157384337E+04  0.00000000000E+00 0. -1.
         25    1    1    2    0    0 -0.41120414671E+02  0.33569634893E+02 -0.12402661703E+04  0.12476790380E+04  0.12500000000E+03 0.  0.
         25    1    1    2    0    0  0.41120414671E+02 -0.33569634893E+02 -0.14492287574E+03  0.19860878329E+03  0.12500000000E+03 0.  0.
</event>
<event>
 4    0  0.2202290E-002  0.2620864E+03  0.7546771E-02  0.1105896E+00
         21   -1    0    0  502  501  0.00000000000E+00  0.00000000000E+00  0.23919724357E+03  0.23919724357E+03  0.00000000000E+00 0. -1.
         21   -1    0    0  501  502 -0.00000000000E+00 -0.00000000000E+00 -0.28716581765E+03  0.28716581765E+03  0.00000000000E+00 0. -1.
         25    1    1    2    0    0 -0.15799704694E+03  0.33705169207E+02  0.14091261886E+03  0.24815412837E+03  0.12500000000E+03 0.  0.
         25    1    1    2    0    0  0.15799704694E+03 -0.33705169207E+02 -0.18888119294E+03  0.27820893285E+03  0.12500000000E+03 0.  0.
</event>
<event>
 4    0  0.2202290E-002  0.2078928E+03  0.7546771E-02  0.1143246E+00
         21   -1    0    0  502  501  0.00000000000E+00  0.00000000000E+00  0.12019564151E+03  0.12019564151E+03  0.00000000000E+00 0. -1.
         21   -1    0    0  501  502 -0.00000000000E+00 -0.00000000000E+00 -0.35957568624E+03  0.35957568624E+03  0.00000000000E+00 0. -1.
         25    1    1    2    0    0 -0.59103875049E+01  0.95276225491E+02 -0.27655953067E+03  0.31815509713E+03  0.12500000000E+03 0.  0.
         25    1    1    2    0    0  0.59103875049E+01 -0.95276225491E+02  0.37179485949E+02  0.16161623062E+03  0.12500000000E+03 0.  0.
</event>
<event>
 4    0  0.2202290E-002  0.1836253E+03  0.7546771E-02  0.1164340E+00
         21   -1    0    0  502  501  0.00000000000E+00  0.00000000000E+00  0.49905903668E+02  0.49905903668E+02  0.00000000000E+00 0. -1.
         21   -1    0    0  501  502 -0.00000000000E+00 -0.00000000000E+00 -0.67563650291E+03  0.67563650291E+03  0.00000000000E+00 0. -1.
         25    1    1    2    0    0 -0.32442668488E+02 -0.11720888976E+03 -0.19932725617E+03  0.26485242236E+03  0.12500000000E+03 0.  0.
         25    1    1    2    0    0  0.32442668488E+02  0.11720888976E+03 -0.42640334307E+03  0.46068998422E+03  0.12500000000E+03 0.  0.
</event>
<event>
 4    0  0.2202290E-002  0.3087427E+03  0.7546771E-02  0.1080950E+00
         21   -1    0    0  502  501  0.00000000000E+00  0.00000000000E+00  0.12227530001E+04  0.12227530001E+04  0.00000000000E+00 0. -1.
         21   -1    0    0  501  502 -0.00000000000E+00 -0.00000000000E+00 -0.77956928467E+02  0.77956928467E+02  0.00000000000E+00 0. -1.
         25    1    1    2    0    0 -0.33443719553E+01  0.24734727937E+03  0.85894822655E+03  0.90255687761E+03  0.12500000000E+03 0.  0.
         25    1    1    2    0    0  0.33443719553E+01 -0.24734727937E+03  0.28584784505E+03  0.39815305092E+03  0.12500000000E+03 0.  0.
</event>
<event>
 4    0  0.2202290E-002  0.2473444E+03  0.7546771E-02  0.1114995E+00
         21   -1    0    0  502  501  0.00000000000E+00  0.00000000000E+00  0.10783485424E+03  0.10783485424E+03  0.00000000000E+00 0.  1.
         21   -1    0    0  501  502 -0.00000000000E+00 -0.00000000000E+00 -0.56734208337E+03  0.56734208337E+03  0.00000000000E+00 0.  1.
         25    1    1    2    0    0  0.85951612792E+02 -0.12350219252E+03 -0.23151914086E+02  0.19698091894E+03  0.12500000000E+03 0.  0.
         25    1    1    2    0    0 -0.85951612792E+02  0.12350219252E+03 -0.43635531505E+03  0.47819601867E+03  0.12500000000E+03 0.  0.
</event>
<event>
 4    0  0.2202290E-002  0.1806451E+03  0.7546771E-02  0.1167180E+00
         21   -1    0    0  502  501  0.00000000000E+00  0.00000000000E+00  0.11165026790E+03  0.11165026790E+03  0.00000000000E+00 0.  1.
         21   -1    0    0  501  502 -0.00000000000E+00 -0.00000000000E+00 -0.29227564178E+03  0.29227564178E+03  0.00000000000E+00 0.  1.
         25    1    1    2    0    0  0.59108339452E+02  0.10074413883E+03 -0.25463540626E+02  0.17296406911E+03  0.12500000000E+03 0.  0.
         25    1    1    2    0    0 -0.59108339452E+02 -0.10074413883E+03 -0.15516183325E+03  0.23096184057E+03  0.12500000000E+03 0.  0.
</event>
<event>
 4    0  0.2202290E-002  0.1906848E+03  0.7546771E-02  0.1157845E+00
         21   -1    0    0  502  501  0.00000000000E+00  0.00000000000E+00  0.11042281644E+03  0.11042281644E+03  0.00000000000E+00 0. -1.
         21   -1    0    0  501  502 -0.00000000000E+00 -0.00000000000E+00 -0.32928604903E+03  0.32928604903E+03  0.00000000000E+00 0. -1.
         25    1    1    2    0    0 -0.64211323732E+02  0.12423653216E+03 -0.14900199570E+03  0.23955042213E+03  0.12500000000E+03 0.  0.
         25    1    1    2    0    0  0.64211323732E+02 -0.12423653216E+03 -0.69861236898E+02  0.20015844334E+03  0.12500000000E+03 0.  0.
</event>
<event>
 4    0  0.2202290E-002  0.2541511E+03  0.7546771E-02  0.1110709E+00
         21   -1    0    0  502  501  0.00000000000E+00  0.00000000000E+00  0.30606479975E+03  0.30606479975E+03  0.00000000000E+00 0. -1.
         21   -1    0    0  501  502 -0.00000000000E+00 -0.00000000000E+00 -0.21104276793E+03  0.21104276793E+03  0.00000000000E+00 0. -1.
         25    1    1    2    0    0 -0.42158431212E+02  0.13784096968E+03 -0.12329721258E+03  0.22716661039E+03  0.12500000000E+03 0.  0.
         25    1    1    2    0    0  0.42158431212E+02 -0.13784096968E+03  0.21831924440E+03  0.28994095730E+03  0.12500000000E+03 0.  0.
</event>
<event>
 4    0  0.2202290E-002  0.2021323E+03  0.7546771E-02  0.1147952E+00
         21   -1    0    0  502  501  0.00000000000E+00  0.00000000000E+00  0.66614771123E+03  0.66614771123E+03  0.00000000000E+00 0.  1.
         21   -1    0    0  501  502 -0.00000000000E+00 -0.00000000000E+00 -0.61333965253E+02  0.61333965253E+02  0.00000000000E+00 0.  1.
         25    1    1    2    0    0  0.60005770451E+02  0.73461789294E+02  0.53169653429E+03  0.55436768624E+03  0.12500000000E+03 0.  0.
         25    1    1    2    0    0 -0.60005770451E+02 -0.73461789294E+02  0.73117211695E+02  0.17311399025E+03  0.12500000000E+03 0.  0.
</event>
<event>
 4    0  0.2202290E-002  0.2433306E+03  0.7546771E-02  0.1117594E+00
         21   -1    0    0  502  501  0.00000000000E+00  0.00000000000E+00  0.42862839531E+02  0.42862839531E+02  0.00000000000E+00 0.  1.
         21   -1    0    0  501  502 -0.00000000000E+00 -0.00000000000E+00 -0.13813781245E+04  0.13813781245E+04  0.00000000000E+00 0.  1.
         25    1    1    2    0    0 -0.78083816990E+02  0.16707587074E+03 -0.38291309874E+03  0.44301114010E+03  0.12500000000E+03 0.  0.
         25    1    1    2    0    0  0.78083816990E+02 -0.16707587074E+03 -0.95560218623E+03  0.98122982394E+03  0.12500000000E+03 0.  0.
</event>
<event>
 4    0  0.2202290E-002  0.1830898E+03  0.7546771E-02  0.1164846E+00
         21   -1    0    0  502  501  0.00000000000E+00  0.00000000000E+00  0.12561607915E+03  0.12561607915E+03  0.00000000000E+00 0. -1.
         21   -1    0    0  501  502 -0.00000000000E+00 -0.00000000000E+00 -0.26685979816E+03  0.26685979816E+03  0.00000000000E+00 0. -1.
         25    1    1    2    0    0 -0.12352630731E+03 -0.64265439242E+01 -0.12524048237E+03  0.21589401911E+03  0.12500000000E+03 0.  0.
         25    1    1    2    0    0  0.12352630731E+03  0.64265439242E+01 -0.16003236644E+02  0.17658185820E+03  0.12500000000E+03 0.  0.
</event>
<event>
 4    0  0.2202290E-002  0.2370327E+03  0.7546771E-02  0.1121785E+00
         21   -1    0    0  502  501  0.00000000000E+00  0.00000000000E+00  0.44462956028E+02  0.44462956028E+02  0.00000000000E+00 0.  1.
         21   -1    0    0  501  502 -0.00000000000E+00 -0.00000000000E+00 -0.12636253716E+04  0.12636253716E+04  0.00000000000E+00 0.  1.
         25    1    1    2    0    0 -0.13580908864E+02 -0.17082875699E+03 -0.31766076860E+03  0.38196893749E+03  0.12500000000E+03 0.  0.
         25    1    1    2    0    0  0.13580908864E+02  0.17082875699E+03 -0.90150164699E+03  0.92611939016E+03  0.12500000000E+03 0.  0.
</event>
<event>
 4    0  0.2202290E-002  0.1502216E+03  0.7546771E-02  0.1200201E+00
         21   -1    0    0  502  501  0.00000000000E+00  0.00000000000E+00  0.63526685047E+02  0.63526685047E+02  0.00000000000E+00 0. -1.
         21   -1    0    0  501  502 -0.00000000000E+00 -0.00000000000E+00 -0.35522897114E+03  0.35522897114E+03  0.00000000000E+00 0. -1.
         25    1    1    2    0    0 -0.62302237439E+02  0.65326143782E+01 -0.22241183699E+03  0.26270947656E+03  0.12500000000E+03 0.  0.
         25    1    1    2    0    0  0.62302237439E+02 -0.65326143782E+01 -0.69290449109E+02  0.15604617963E+03  0.12500000000E+03 0.  0.
</event>
<event>
 4    0  0.2202290E-002  0.2133179E+03  0.7546771E-02  0.1138965E+00
         21   -1    0    0  502  501  0.00000000000E+00  0.00000000000E+00  0.86444649965E+03  0.86444649965E+03  0.00000000000E+00 0.  1.
         21   -1    0    0  501  502 -0.00000000000E+00 -0.00000000000E+00 -0.52640083664E+02  0.52640083664E+02  0.00000000000E+00 0.  1.
         25    1    1    2    0    0 -0.61202093120E+02  0.64148548578E+02  0.86933194027E+02  0.17619055795E+03  0.12500000000E+03 0.  0.
         25    1    1    2    0    0  0.61202093120E+02 -0.64148548578E+02  0.72487322196E+03  0.74089602537E+03  0.12500000000E+03 0.  0.
</event>
<event>
 4    0  0.2202290E-002  0.2059460E+03  0.7546771E-02  0.1144817E+00
         21   -1    0    0  502  501  0.00000000000E+00  0.00000000000E+00  0.79613661124E+03  0.79613661124E+03  0.00000000000E+00 0. -1.
         21   -1    0    0  501  502 -0.00000000000E+00 -0.00000000000E+00 -0.53274454764E+02  0.53274454764E+02  0.00000000000E+00 0. -1.
         25    1    1    2    0    0 -0.10879932790E+03  0.97182456446E+02  0.52446684804E+03  0.55854471467E+03  0.12500000000E+03 0.  0.
         25    1    1    2    0    0  0.10879932790E+03 -0.97182456446E+02  0.21839530844E+03  0.29086635134E+03  0.12500000000E+03 0.  0.
</event>
<event>
 4    0  0.2202290E-002  0.1798435E+03  0.7546771E-02  0.1167955E+00
         21   -1    0    0  502  501  0.00000000000E+00  0.00000000000E+00  0.16865882046E+03  0.16865882046E+03  0.00000000000E+00 0.  1.
         21   -1    0    0  501  502 -0.00000000000E+00 -0.00000000000E+00 -0.19176998531E+03  0.19176998531E+03  0.00000000000E+00 0.  1.
         25    1    1    2    0    0  0.25865520764E-02 -0.11907949176E+03 -0.62045735211E+02  0.18345189730E+03  0.12500000000E+03 0.  0.
         25    1    1    2    0    0 -0.25865520764E-02  0.11907949176E+03  0.38934570362E+02  0.17697690848E+03  0.12500000000E+03 0.  0.
</event>
<event>
 4    0  0.2202290E-002  0.2154005E+03  0.7546771E-02  0.1137359E+00
         21   -1    0    0  502  501  0.00000000000E+00  0.00000000000E+00  0.12367739769E+04  0.12367739769E+04  0.00000000000E+00 0.  1.
         21   -1    0    0  501  502 -0.00000000000E+00 -0.00000000000E+00 -0.37514848401E+02  0.37514848401E+02  0.00000000000E+00 0.  1.
         25    1    1    2    0    0 -0.70935131975E+02  0.17353041993E+02  0.12784348992E+03  0.19313694346E+03  0.12500000000E+03 0.  0.
         25    1    1    2    0    0  0.70935131975E+02 -0.17353041993E+02  0.10714156386E+04  0.10811518819E+04  0.12500000000E+03 0.  0.
</event>
<event>
 4    0  0.2202290E-002  0.1553086E+03  0.7546771E-02  0.1194097E+00
         21   -1    0    0  502  501  0.00000000000E+00  0.00000000000E+00  0.34118550864E+03  0.34118550864E+03  0.00000000000E+00 0. -1.
         21   -1    0    0  501  502 -0.00000000000E+00 -0.00000000000E+00 -0.70696942343E+02  0.70696942343E+02  0.00000000000E+00 0. -1.
         25    1    1    2    0    0 -0.79577536034E+02 -0.46309289369E+02  0.12951969884E+03  0.20218181647E+03  0.12500000000E+03 0.  0.
         25    1    1    2    0    0  0.79577536034E+02  0.46309289369E+02  0.14096886746E+03  0.20970063451E+03  0.12500000000E+03 0.  0.
</event>
<event>
 4    0  0.2202290E-002  0.2377759E+03  0.7546771E-02  0.1121283E+00
         21   -1    0    0  502  501  0.00000000000E+00  0.00000000000E+00  0.69836551483E+03  0.69836551483E+03  0.00000000000E+00 0.  1.
         21   -1    0    0  501  502 -0.00000000000E+00 -0.00000000000E+00 -0.80956688320E+02  0.80956688320E+02  0.00000000000E+00 0.  1.
         25    1    1    2    0    0 -0.19107495972E+03 -0.16212530601E+02  0.41414621050E+03  0.47319612218E+03  0.12500000000E+03 0.  0.
         25    1    1    2    0    0  0.19107495972E+03  0.16212530601E+02  0.20326261602E+03  0.30612608097E+03  0.12500000000E+03 0.  0.
</event>
<event>
 4    0  0.2202290E-002  0.2898132E+03  0.7546771E-02  0.1090447E+00
         21   -1    0    0  502  501  0.00000000000E+00  0.00000000000E+00  0.40058455937E+03  0.40058455937E+03  0.00000000000E+00 0. -1.
         21   -1    0    0  501  502 -0.00000000000E+00 -0.00000000000E+00 -0.20967288362E+03  0.20967288362E+03  0.00000000000E+00 0. -1.
         25    1    1    2    0    0 -0.18285855085E+02 -0.16119407179E+03 -0.12043874776E+03  0.23758870604E+03  0.12500000000E+03 0.  0.
         25    1    1    2    0    0  0.18285855085E+02  0.16119407179E+03  0.31135042351E+03  0.37266873695E+03  0.12500000000E+03 0.  0.
</event>
<event>
 4    0  0.2202290E-002  0.3694484E+03  0.7546771E-02  0.1054904E+00
         21   -1    0    0  502  501  0.00000000000E+00  0.00000000000E+00  0.85835173341E+03  0.85835173341E+03  0.00000000000E+00 0.  1.
         21   -1    0    0  501  502 -0.00000000000E+00 -0.00000000000E+00 -0.15901653267E+03  0.15901653267E+03  0.00000000000E+00 0.  1.
         25    1    1    2    0    0 -0.21027306348E+03 -0.27637327627E+03  0.32703622872E+03  0.49312741148E+03  0.12500000000E+03 0.  0.
         25    1    1    2    0    0  0.21027306348E+03  0.27637327627E+03  0.37229897203E+03  0.52424085460E+03  0.12500000000E+03 0.  0.
</event>
<event>
 4    0  0.2202290E-002  0.2422962E+03  0.7546771E-02  0.1118273E+00
         21   -1    0    0  502  501  0.00000000000E+00  0.00000000000E+00  0.49003563896E+03  0.49003563896E+03  0.00000000000E+00 0. -1.
         21   -1    0    0  501  502 -0.00000000000E+00 -0.00000000000E+00 -0.11980239935E+03  0.11980239935E+03  0.00000000000E+00 0. -1.
         25    1    1    2    0    0 -0.20298582288E+03  0.30423418200E+02  0.22397859194E+03  0.32851215854E+03  0.12500000000E+03 0.  0.
         25    1    1    2    0    0  0.20298582288E+03 -0.30423418200E+02  0.14625464767E+03  0.28132587978E+03  0.12500000000E+03 0.  0.
</event>
<event>
 4    0  0.2202290E-002  0.2539854E+03  0.7546771E-02  0.1110812E+00
         21   -1    0    0  502  501  0.00000000000E+00  0.00000000000E+00  0.11084817907E+04  0.11084817907E+04  0.00000000000E+00 0. -1.
         21   -1    0    0  501  502 -0.00000000000E+00 -0.00000000000E+00 -0.58195444518E+02  0.58195444518E+02  0.00000000000E+00 0. -1.
         25    1    1    2    0    0  0.78912462649E+02 -0.20403188612E+03  0.45152544419E+03  0.51706519324E+03  0.12500000000E+03 0.  0.
         25    1    1    2    0    0 -0.78912462649E+02  0.20403188612E+03  0.59876090195E+03  0.64961204193E+03  0.12500000000E+03 0.  0.
</event>
<event>
 4    0  0.2202290E-002  0.2100198E+03  0.7546771E-02  0.1141550E+00
         21   -1    0    0  502  501  0.00000000000E+00  0.00000000000E+00  0.17975341181E+03  0.17975341181E+03  0.00000000000E+00 0. -1.
         21   -1    0    0  501  502 -0.00000000000E+00 -0.00000000000E+00 -0.24538226336E+03  0.24538226336E+03  0.00000000000E+00 0. -1.
         25    1    1    2    0    0  0.65632386241E+01  0.16214286953E+03 -0.79744130484E+02  0.21981244867E+03  0.12500000000E+03 0.  0.
         25    1    1    2    0    0 -0.65632386241E+01 -0.16214286953E+03  0.14115278932E+02  0.20532322650E+03  0.12500000000E+03 0.  0.
</event>
<event>
 4    0  0.2202290E-002  0.2638275E+03  0.7546771E-02  0.1104865E+00
         21   -1    0    0  502  501  0.00000000000E+00  0.00000000000E+00  0.53608931232E+03  0.53608931232E+03  0.00000000000E+00 0. -1.
         21   -1    0    0  501  502 -0.00000000000E+00 -0.00000000000E+00 -0.12983829708E+03  0.12983829708E+03  0.00000000000E+00 0. -1.
         25    1    1    2    0    0 -0.21370462482E+03 -0.75229433781E+02  0.13814776391E+03  0.29332394899E+03  0.12500000000E+03 0.  0.
         25    1    1    2    0    0  0.21370462482E+03  0.75229433781E+02  0.26810325132E+03  0.37260366040E+03  0.12500000000E+03 0.  0.
</event>
<event>
 4    0  0.2202290E-002  0.2225741E+03  0.7546771E-02  0.1131978E+00
         21   -1    0    0  502  501  0.00000000000E+00  0.00000000000E+00  0.10558943357E+03  0.10558943357E+03  0.00000000000E+00 0.  1.
         21   -1    0    0  501  502 -0.00000000000E+00 -0.00000000000E+00 -0.46916836118E+03  0.46916836118E+03  0.00000000000E+00 0.  1.
         25    1    1    2    0    0 -0.38701255153E+02 -0.17059441635E+03 -0.10746099403E+03  0.24036036960E+03  0.12500000000E+03 0.  0.
         25    1    1    2    0    0  0.38701255153E+02  0.17059441635E+03 -0.25611793359E+03  0.33439742514E+03  0.12500000000E+03 0.  0.
</event>
<event>
 4    0  0.2202290E-002  0.2004537E+03  0.7546771E-02  0.1149357E+00
         21   -1    0    0  502  501  0.00000000000E+00  0.00000000000E+00  0.42975736749E+03  0.42975736749E+03  0.00000000000E+00 0. -1.
         21   -1    0    0  501  502 -0.00000000000E+00 -0.00000000000E+00 -0.93498512427E+02  0.93498512427E+02  0.00000000000E+00 0. -1.
         25    1    1    2    0    0 -0.11885696822E+03  0.10182824599E+03  0.15796041638E+03  0.25509304914E+03  0.12500000000E+03 0.  0.
         25    1    1    2    0    0  0.11885696822E+03 -0.10182824599E+03  0.17829843868E+03  0.26816283078E+03  0.12500000000E+03 0.  0.
</event>
<event>
 4    0  0.2202290E-002  0.1484198E+03  0.7546771E-02  0.1202428E+00
         21   -1    0    0  502  501  0.00000000000E+00  0.00000000000E+00  0.50612173787E+02  0.50612173787E+02  0.00000000000E+00 0. -1.
         21   -1    0    0  501  502 -0.00000000000E+00 -0.00000000000E+00 -0.43523984555E+03  0.43523984555E+03  0.00000000000E+00 0. -1.
         25    1    1    2    0    0  0.80012813290E+01 -0.66025876709E+02 -0.11948312455E+03  0.18526913923E+03  0.12500000000E+03 0.  0.
         25    1    1    2    0    0 -0.80012813290E+01  0.66025876709E+02 -0.26514454721E+03  0.30058288011E+03  0.12500000000E+03 0.  0.
</event>
<event>
 4    0  0.2202290E-002  0.1951413E+03  0.7546771E-02  0.1153904E+00
         21   -1    0    0  502  501  0.00000000000E+00  0.00000000000E+00  0.46974408596E+02  0.46974408596E+02  0.00000000000E+00 0. -1.
         21   -1    0    0  501  502 -0.00000000000E+00 -0.00000000000E+00 -0.81065716998E+03  0.81065716998E+03  0.00000000000E+00 0. -1.
         25    1    1    2    0    0 -0.12722936749E+03  0.78406648609E+02 -0.40593609839E+03  0.45027106333E+03  0.12500000000E+03 0.  0.
         25    1    1    2    0    0  0.12722936749E+03 -0.78406648609E+02 -0.35774666299E+03  0.40736051524E+03  0.12500000000E+03 0.  0.
</event>
<event>
 4    0  0.2202290E-002  0.1862322E+03  0.7546771E-02  0.1161904E+00
         21   -1    0    0  502  501  0.00000000000E+00  0.00000000000E+00  0.84582229359E+03  0.84582229359E+03  0.00000000000E+00 0. -1.
         21   -1    0    0  501  502 -0.00000000000E+00 -0.00000000000E+00 -0.41004387600E+02  0.41004387600E+02  0.00000000000E+00 0. -1.
         25    1    1    2    0    0 -0.10280698908E+03 -0.42555094135E+02  0.59696808183E+03  0.61998072854E+03  0.12500000000E+03 0.  0.
         25    1    1    2    0    0  0.10280698908E+03  0.42555094135E+02  0.20784982416E+03  0.26684595265E+03  0.12500000000E+03 0.  0.
</event>
<event>
 4    0  0.2202290E-002  0.1915265E+03  0.7546771E-02  0.1157092E+00
         21   -1    0    0  502  501  0.00000000000E+00  0.00000000000E+00  0.75158574482E+03  0.75158574482E+03  0.00000000000E+00 0. -1.
         21   -1    0    0  501  502 -0.00000000000E+00 -0.00000000000E+00 -0.48806687949E+02  0.48806687949E+02  0.00000000000E+00 0. -1.
         25    1    1    2    0    0  0.62299008180E+02  0.83234157743E+02  0.13986030728E+03  0.21446444224E+03  0.12500000000E+03 0.  0.
         25    1    1    2    0    0 -0.62299008180E+02 -0.83234157743E+02  0.56291874960E+03  0.58592799053E+03  0.12500000000E+03 0.  0.
</event>
<event>
 4    0  0.2202290E-002  0.1797054E+03  0.7546771E-02  0.1168088E+00
         21   -1    0    0  502  501  0.00000000000E+00  0.00000000000E+00  0.14224449963E+03  0.14224449963E+03  0.00000000000E+00 0.  1.
         21   -1    0    0  501  502 -0.00000000000E+00 -0.00000000000E+00 -0.22703178363E+03  0.22703178363E+03  0.00000000000E+00 0.  1.
         25    1    1    2    0    0  0.39775083242E+01 -0.12899472085E+03 -0.38609630936E+02  0.18376931784E+03  0.12500000000E+03 0.  0.
         25    1    1    2    0    0 -0.39775083242E+01  0.12899472085E+03 -0.46177653060E+02  0.18550696542E+03  0.12500000000E+03 0.  0.
</event>
<event>
 4    0  0.2202290E-002  0.1901756E+03  0.7546771E-02  0.1158303E+00
         21   -1    0    0  502  501  0.00000000000E+00  0.00000000000E+00  0.57163185780E+02  0.57163185780E+02  0.00000000000E+00 0.  1.
         21   -1    0    0  501  502 -0.00000000000E+00 -0.00000000000E+00 -0.63269339510E+03  0.63269339510E+03  0.00000000000E+00 0.  1.
         25    1    1    2    0    0 -0.78996107881E+02  0.11070660301E+03 -0.20573626082E+03  0.27649366363E+03  0.12500000000E+03 0.  0.
         25    1    1    2    0    0  0.78996107881E+02 -0.11070660301E+03 -0.36979394849E+03  0.41336291725E+03  0.12500000000E+03 0.  0.
</event>
<event>
 4    0  0.2202290E-002  0.1625588E+03  0.7546771E-02  0.1185838E+00
         21   -1    0    0  502  501  0.00000000000E+00  0.00000000000E+00  0.24907899359E+03  0.24907899359E+03  0.00000000000E+00 0. -1.
         21   -1    0    0  501  502 -0.00000000000E+00 -0.00000000000E+00 -0.10609228124E+03  0.10609228124E+03  0.00000000000E+00 0. -1.
         25    1    1    2    0    0  0.29224270316E+02 -0.30061645506E+02 -0.32389530367E+02  0.13576392077E+03  0.12500000000E+03 0.  0.
         25    1    1    2    0    0 -0.29224270316E+02  0.30061645506E+02  0.17537624271E+03  0.21940735406E+03  0.12500000000E+03 0.  0.
</event>
<event>
 4    0  0.2202290E-002  0.2920558E+03  0.7546771E-02  0.1089281E+00
         21   -1    0    0  502  501  0.00000000000E+00  0.00000000000E+00  0.25931456670E+03  0.25931456670E+03  0.00000000000E+00 0. -1.
         21   -1    0    0  501  502 -0.00000000000E+00 -0.00000000000E+00 -0.32893105421E+03  0.32893105421E+03  0.00000000000E+00 0. -1.
         25    1    1    2    0    0 -0.15972110965E+02 -0.24015284858E+03 -0.14394083444E+03  0.30703821070E+03  0.12500000000E+03 0.  0.
         25    1    1    2    0    0  0.15972110965E+02  0.24015284858E+03  0.74324346931E+02  0.28120741021E+03  0.12500000000E+03 0.  0.
</event>
<event>
 4    0  0.2202290E-002  0.1550930E+03  0.7546771E-02  0.1194351E+00
         21   -1    0    0  502  501  0.00000000000E+00  0.00000000000E+00  0.29046822775E+03  0.29046822775E+03  0.00000000000E+00 0. -1.
         21   -1    0    0  501  502 -0.00000000000E+00 -0.00000000000E+00 -0.82810524071E+02  0.82810524071E+02  0.00000000000E+00 0. -1.
         25    1    1    2    0    0 -0.19959821085E+02 -0.79869520371E+02  0.15273044996E+03  0.21384369312E+03  0.12500000000E+03 0.  0.
         25    1    1    2    0    0  0.19959821085E+02  0.79869520371E+02  0.54927253721E+02  0.15943505870E+03  0.12500000000E+03 0.  0.
</event>
<event>
 4    0  0.2202290E-002  0.1925063E+03  0.7546771E-02  0.1156220E+00
         21   -1    0    0  502  501  0.00000000000E+00  0.00000000000E+00  0.87435827635E+03  0.87435827635E+03  0.00000000000E+00 0. -1.
         21   -1    0    0  501  502 -0.00000000000E+00 -0.00000000000E+00 -0.42383862790E+02  0.42383862790E+02  0.00000000000E+00 0. -1.
         25    1    1    2    0    0 -0.32977840904E+02  0.13921913005E+03  0.34205211530E+03  0.39127248018E+03  0.12500000000E+03 0.  0.
         25    1    1    2    0    0  0.32977840904E+02 -0.13921913005E+03  0.48992229826E+03  0.52546965897E+03  0.12500000000E+03 0.  0.
</event>
<event>
 4    0  0.2202290E-002  0.2576465E+03  0.7546771E-02  0.1108566E+00
         21   -1    0    0  502  501  0.00000000000E+00  0.00000000000E+00  0.30301981025E+03  0.30301981025E+03  0.00000000000E+00 0. -1.
         21   -1    0    0  501  502 -0.00000000000E+00 -0.00000000000E+00 -0.21906726084E+03  0.21906726084E+03  0.00000000000E+00 0. -1.
         25    1    1    2    0    0 -0.20111931763E+03  0.67485242361E+02  0.11882807940E+03  0.27340144534E+03  0.12500000000E+03 0.  0.
         25    1    1    2    0    0  0.20111931763E+03 -0.67485242361E+02 -0.34875529984E+02  0.24868562575E+03  0.12500000000E+03 0.  0.
</event>
<event>
 4    0  0.2202290E-002  0.2648657E+03  0.7546771E-02  0.1104255E+00
         21   -1    0    0  502  501  0.00000000000E+00  0.00000000000E+00  0.71523528837E+03  0.71523528837E+03  0.00000000000E+00 0.  1.
         21   -1    0    0  501  502 -0.00000000000E+00 -0.00000000000E+00 -0.98084994595E+02  0.98084994595E+02  0.00000000000E+00 0.  1.
         25    1    1    2    0    0 -0.10950895880E+03  0.19935936084E+03  0.38970881117E+03  0.46822465155E+03  0.12500000000E+03 0.  0.
         25    1    1    2    0    0  0.10950895880E+03 -0.19935936084E+03  0.22744148260E+03  0.34509563141E+03  0.12500000000E+03 0.  0.
</event>
<event>
 4    0  0.2202290E-002  0.1742724E+03  0.7546771E-02  0.1173464E+00
         21   -1    0    0  502  501  0.00000000000E+00  0.00000000000E+00  0.17977231985E+02  0.17977231985E+02  0.00000000000E+00 0.  1.
         21   -1    0    0  501  502 -0.00000000000E+00 -0.00000000000E+00 -0.16894075302E+04  0.16894075302E+04  0.00000000000E+00 0. -1.
         25    1    1    2    0    0 -0.53153969505E+02 -0.14701732072E+02 -0.13656800328E+04  0.13724971539E+04  0.12500000000E+03 0.  0.
         25    1    1    2    0    0  0.53153969505E+02  0.14701732072E+02 -0.30575026543E+03  0.33488760832E+03  0.12500000000E+03 0.  0.
</event>
<event>
 4    0  0.2202290E-002  0.1491573E+03  0.7546771E-02  0.1201512E+00
         21   -1    0    0  502  501  0.00000000000E+00  0.00000000000E+00  0.21870674657E+03  0.21870674657E+03  0.00000000000E+00 0.  1.
         21   -1    0    0  501  502 -0.00000000000E+00 -0.00000000000E+00 -0.10172477668E+03  0.10172477668E+03  0.00000000000E+00 0.  1.
         25    1    1    2    0    0  0.72471124502E+02  0.10050396624E+02  0.96767462052E+02  0.17418959806E+03  0.12500000000E+03 0.  0.
         25    1    1    2    0    0 -0.72471124502E+02 -0.10050396624E+02  0.20214507835E+02  0.14624192520E+03  0.12500000000E+03 0.  0.
</event>
<event>
 4    0  0.2202290E-002  0.1783300E+03  0.7546771E-02  0.1169429E+00
         21   -1    0    0  502  501  0.00000000000E+00  0.00000000000E+00  0.10663145257E+03  0.10663145257E+03  0.00000000000E+00 0.  1.
         21   -1    0    0  501  502 -0.00000000000E+00 -0.00000000000E+00 -0.29823818899E+03  0.29823818899E+03  0.00000000000E+00 0.  1.
         25    1    1    2    0    0  0.32348151841E+02 -0.12184350367E+03 -0.11494467121E+03  0.21149354542E+03  0.12500000000E+03 0.  0.
         25    1    1    2    0    0 -0.32348151841E+02  0.12184350367E+03 -0.76662065211E+02  0.19337609614E+03  0.12500000000E+03 0.  0.
</event>
<event>
 4    0  0.2202290E-002  0.2144576E+03  0.7546771E-02  0.1138084E+00
         21   -1    0    0  502  501  0.00000000000E+00  0.00000000000E+00  0.16587806275E+02  0.16587806275E+02  0.00000000000E+00 0.  1.
         21   -1    0    0  501  502 -0.00000000000E+00 -0.00000000000E+00 -0.27726437498E+04  0.27726437498E+04  0.00000000000E+00 0.  1.
         25    1    1    2    0    0 -0.98160923870E+01  0.16699889792E+03 -0.16954171588E+04  0.17082298821E+04  0.12500000000E+03 0.  0.
         25    1    1    2    0    0  0.98160923870E+01 -0.16699889792E+03 -0.10606387847E+04  0.10810016740E+04  0.12500000000E+03 0.  0.
</event>
<event>
 4    0  0.2202290E-002  0.1956896E+03  0.7546771E-02  0.1153427E+00
         21   -1    0    0  502  501  0.00000000000E+00  0.00000000000E+00  0.97563983233E+02  0.97563983233E+02  0.00000000000E+00 0.  1.
         21   -1    0    0  501  502 -0.00000000000E+00 -0.00000000000E+00 -0.39250587226E+03  0.39250587226E+03  0.00000000000E+00 0.  1.
         25    1    1    2    0    0  0.33338785533E+02  0.12752887762E+03 -0.23858100986E+03  0.29986828360E+03  0.12500000000E+03 0.  0.
         25    1    1    2    0    0 -0.33338785533E+02 -0.12752887762E+03 -0.56360879163E+02  0.19020157188E+03  0.12500000000E+03 0.  0.
</event>
<event>
 4    0  0.2202290E-002  0.3310563E+03  0.7546771E-02  0.1070670E+00
         21   -1    0    0  502  501  0.00000000000E+00  0.00000000000E+00  0.71958871066E+03  0.71958871066E+03  0.00000000000E+00 0.  1.
         21   -1    0    0  501  502 -0.00000000000E+00 -0.00000000000E+00 -0.15230678669E+03  0.15230678669E+03  0.00000000000E+00 0.  1.
         25    1    1    2    0    0 -0.99247600306E+02 -0.13459566758E+03 -0.54679432712E+02  0.21582613433E+03  0.12500000000E+03 0.  0.
         25    1    1    2    0    0  0.99247600306E+02  0.13459566758E+03  0.62196135667E+03  0.65606936302E+03  0.12500000000E+03 0.  0.
</event>
<event>
 4    0  0.2202290E-002  0.1759864E+03  0.7546771E-02  0.1171745E+00
         21   -1    0    0  502  501  0.00000000000E+00  0.00000000000E+00  0.41580946685E+03  0.41580946685E+03  0.00000000000E+00 0.  1.
         21   -1    0    0  501  502 -0.00000000000E+00 -0.00000000000E+00 -0.74484126709E+02  0.74484126709E+02  0.00000000000E+00 0.  1.
         25    1    1    2    0    0 -0.96119495174E+02 -0.73653648545E+02  0.13427428577E+03  0.21981446976E+03  0.12500000000E+03 0.  0.
         25    1    1    2    0    0  0.96119495174E+02  0.73653648545E+02  0.20705105437E+03  0.27047912380E+03  0.12500000000E+03 0.  0.
</event>
<event>
 4    0  0.2202290E-002  0.1828634E+03  0.7546771E-02  0.1165060E+00
         21   -1    0    0  502  501  0.00000000000E+00  0.00000000000E+00  0.14053047803E+03  0.14053047803E+03  0.00000000000E+00 0. -1.
         21   -1    0    0  501  502 -0.00000000000E+00 -0.00000000000E+00 -0.23794857977E+03  0.23794857977E+03  0.00000000000E+00 0. -1.
         25    1    1    2    0    0  0.54047836791E+02 -0.77366246851E+02 -0.14637847673E+03  0.21437901778E+03  0.12500000000E+03 0.  0.
         25    1    1    2    0    0 -0.54047836791E+02  0.77366246851E+02  0.48960374991E+02  0.16410004001E+03  0.12500000000E+03 0.  0.
</event>
<event>
 4    0  0.2202290E-002  0.2363838E+03  0.7546771E-02  0.1122226E+00
         21   -1    0    0  502  501  0.00000000000E+00  0.00000000000E+00  0.61323407570E+03  0.61323407570E+03  0.00000000000E+00 0. -1.
         21   -1    0    0  501  502 -0.00000000000E+00 -0.00000000000E+00 -0.91119066565E+02  0.91119066565E+02  0.00000000000E+00 0. -1.
         25    1    1    2    0    0 -0.22353871132E+02  0.18967458766E+03  0.16950535144E+03  0.28431181637E+03  0.12500000000E+03 0.  0.
         25    1    1    2    0    0  0.22353871132E+02 -0.18967458766E+03  0.35260965769E+03  0.42004132589E+03  0.12500000000E+03 0.  0.
</event>
<event>
 4    0  0.2202290E-002  0.2712828E+03  0.7546771E-02  0.1100548E+00
         21   -1    0    0  502  501  0.00000000000E+00  0.00000000000E+00  0.18882803087E+04  0.18882803087E+04  0.00000000000E+00 0.  1.
         21   -1    0    0  501  502 -0.00000000000E+00 -0.00000000000E+00 -0.38974266931E+02  0.38974266931E+02  0.00000000000E+00 0.  1.
         25    1    1    2    0    0 -0.72113904596E+02  0.16978908112E+03  0.14742626541E+04  0.14910077533E+04  0.12500000000E+03 0.  0.
         25    1    1    2    0    0  0.72113904596E+02 -0.16978908112E+03  0.37504338765E+03  0.43624682225E+03  0.12500000000E+03 0.  0.
</event>
<event>
 4    0  0.2202290E-002  0.2269042E+03  0.7546771E-02  0.1128838E+00
         21   -1    0    0  502  501  0.00000000000E+00  0.00000000000E+00  0.17718427500E+03  0.17718427500E+03  0.00000000000E+00 0.  1.
         21   -1    0    0  501  502 -0.00000000000E+00 -0.00000000000E+00 -0.29057603902E+03  0.29057603902E+03  0.00000000000E+00 0.  1.
         25    1    1    2    0    0  0.10293018794E+03  0.27315238315E+01  0.10711923609E+03  0.19416903860E+03  0.12500000000E+03 0.  0.
         25    1    1    2    0    0 -0.10293018794E+03 -0.27315238315E+01 -0.22051100011E+03  0.27359127541E+03  0.12500000000E+03 0.  0.
</event>
<event>
 4    0  0.2202290E-002  0.3373074E+03  0.7546771E-02  0.1067949E+00
         21   -1    0    0  502  501  0.00000000000E+00  0.00000000000E+00  0.15840900440E+04  0.15840900440E+04  0.00000000000E+00 0.  1.
         21   -1    0    0  501  502 -0.00000000000E+00 -0.00000000000E+00 -0.71824366387E+02  0.71824366387E+02  0.00000000000E+00 0.  1.
         25    1    1    2    0    0  0.15750250671E+03 -0.23708891972E+03  0.43484104874E+03  0.53453712045E+03  0.12500000000E+03 0.  0.
         25    1    1    2    0    0 -0.15750250671E+03  0.23708891972E+03  0.10774246288E+04  0.11213772899E+04  0.12500000000E+03 0.  0.
</event>
<event>
 4    0  0.2202290E-002  0.1656065E+03  0.7546771E-02  0.1182509E+00
         21   -1    0    0  502  501  0.00000000000E+00  0.00000000000E+00  0.21695016557E+03  0.21695016557E+03  0.00000000000E+00 0. -1.
         21   -1    0    0  501  502 -0.00000000000E+00 -0.00000000000E+00 -0.12641388171E+03  0.12641388171E+03  0.00000000000E+00 0. -1.
         25    1    1    2    0    0  0.70727132731E+02  0.20523394610E+02  0.12805374612E+03  0.19351046206E+03  0.12500000000E+03 0.  0.
         25    1    1    2    0    0 -0.70727132731E+02 -0.20523394610E+02 -0.37517462259E+02  0.14985358523E+03  0.12500000000E+03 0.  0.
</event>
<event>
 4    0  0.2202290E-002  0.1904037E+03  0.7546771E-02  0.1158098E+00
         21   -1    0    0  502  501  0.00000000000E+00  0.00000000000E+00  0.11307622801E+03  0.11307622801E+03  0.00000000000E+00 0. -1.
         21   -1    0    0  501  502 -0.00000000000E+00 -0.00000000000E+00 -0.32061173541E+03  0.32061173541E+03  0.00000000000E+00 0. -1.
         25    1    1    2    0    0  0.77741613173E+02  0.10988514625E+03 -0.16082544909E+03  0.24414816989E+03  0.12500000000E+03 0.  0.
         25    1    1    2    0    0 -0.77741613173E+02 -0.10988514625E+03 -0.46710058316E+02  0.18953979354E+03  0.12500000000E+03 0.  0.
</event>
<event>
 4    0  0.2202290E-002  0.5235571E+03  0.7546771E-02  0.1007807E+00
         21   -1    0    0  502  501  0.00000000000E+00  0.00000000000E+00  0.44934569080E+03  0.44934569080E+03  0.00000000000E+00 0.  1.
         21   -1    0    0  501  502 -0.00000000000E+00 -0.00000000000E+00 -0.61002481905E+03  0.61002481905E+03  0.00000000000E+00 0.  1.
         25    1    1    2    0    0 -0.42994361975E+03  0.38057515853E+02  0.19148189376E+03  0.48845696465E+03  0.12500000000E+03 0.  0.
         25    1    1    2    0    0  0.42994361975E+03 -0.38057515853E+02 -0.35216102200E+03  0.57091354520E+03  0.12500000000E+03 0.  0.
</event>
<event>
 4    0  0.2202290E-002  0.1936151E+03  0.7546771E-02  0.1155241E+00
         21   -1    0    0  502  501  0.00000000000E+00  0.00000000000E+00  0.25050958257E+03  0.25050958257E+03  0.00000000000E+00 0.  1.
         21   -1    0    0  501  502 -0.00000000000E+00 -0.00000000000E+00 -0.14964225852E+03  0.14964225852E+03  0.00000000000E+00 0.  1.
         25    1    1    2    0    0  0.12952658806E+02  0.15616570124E+02 -0.10091232331E+03  0.16192574109E+03  0.12500000000E+03 0.  0.
         25    1    1    2    0    0 -0.12952658806E+02 -0.15616570124E+02  0.20177964736E+03  0.23822610000E+03  0.12500000000E+03 0.  0.
</event>
<event>
 4    0  0.2202290E-002  0.2330864E+03  0.7546771E-02  0.1124486E+00
         21   -1    0    0  502  501  0.00000000000E+00  0.00000000000E+00  0.24398708290E+02  0.24398708290E+02  0.00000000000E+00 0. -1.
         21   -1    0    0  501  502 -0.00000000000E+00 -0.00000000000E+00 -0.22267263606E+04  0.22267263606E+04  0.00000000000E+00 0. -1.
         25    1    1    2    0    0 -0.18679223767E+03 -0.22596017888E+02 -0.13786637146E+04  0.13970470851E+04  0.12500000000E+03 0.  0.
         25    1    1    2    0    0  0.18679223767E+03  0.22596017888E+02 -0.82366393770E+03  0.85407798377E+03  0.12500000000E+03 0.  0.
</event>
<event>
 4    0  0.2202290E-002  0.3148360E+03  0.7546771E-02  0.1078051E+00
         21   -1    0    0  502  501  0.00000000000E+00  0.00000000000E+00  0.87569810724E+03  0.87569810724E+03  0.00000000000E+00 0. -1.
         21   -1    0    0  501  502 -0.00000000000E+00 -0.00000000000E+00 -0.11319167050E+03  0.11319167050E+03  0.00000000000E+00 0. -1.
         25    1    1    2    0    0  0.11183816628E+03  0.25237301862E+03  0.51540614106E+03  0.59788661652E+03  0.12500000000E+03 0.  0.
         25    1    1    2    0    0 -0.11183816628E+03 -0.25237301862E+03  0.24710029567E+03  0.39100316122E+03  0.12500000000E+03 0.  0.
</event>
<event>
 4    0  0.2202290E-002  0.1896861E+03  0.7546771E-02  0.1158745E+00
         21   -1    0    0  502  501  0.00000000000E+00  0.00000000000E+00  0.57589706750E+02  0.57589706750E+02  0.00000000000E+00 0.  1.
         21   -1    0    0  501  502 -0.00000000000E+00 -0.00000000000E+00 -0.62477831036E+03  0.62477831036E+03  0.00000000000E+00 0.  1.
         25    1    1    2    0    0 -0.13692701043E+03 -0.35435571639E+02 -0.31729797103E+03  0.36919871119E+03  0.12500000000E+03 0.  0.
         25    1    1    2    0    0  0.13692701043E+03  0.35435571639E+02 -0.24989063258E+03  0.31316930593E+03  0.12500000000E+03 0.  0.
</event>
<event>
 4    0  0.2202290E-002  0.2411258E+03  0.7546771E-02  0.1119045E+00
         21   -1    0    0  502  501  0.00000000000E+00  0.00000000000E+00  0.52123798515E+03  0.52123798515E+03  0.00000000000E+00 0. -1.
         21   -1    0    0  501  502 -0.00000000000E+00 -0.00000000000E+00 -0.11154528349E+03  0.11154528349E+03  0.00000000000E+00 0. -1.
         25    1    1    2    0    0 -0.23213046206E+02 -0.12616822573E+03  0.41666457911E+03  0.45353240037E+03  0.12500000000E+03 0.  0.
         25    1    1    2    0    0  0.23213046206E+02  0.12616822573E+03 -0.69718774601E+01  0.17925086827E+03  0.12500000000E+03 0.  0.
</event>
<event>
 4    0  0.2202290E-002  0.1769101E+03  0.7546771E-02  0.1170827E+00
         21   -1    0    0  502  501  0.00000000000E+00  0.00000000000E+00  0.48867652368E+02  0.48867652368E+02  0.00000000000E+00 0.  1.
         21   -1    0    0  501  502 -0.00000000000E+00 -0.00000000000E+00 -0.64044814655E+03  0.64044814655E+03  0.00000000000E+00 0.  1.
         25    1    1    2    0    0 -0.50910168523E+02 -0.11346619175E+03 -0.32373706062E+03  0.36864224710E+03  0.12500000000E+03 0.  0.
         25    1    1    2    0    0  0.50910168523E+02  0.11346619175E+03 -0.26784343356E+03  0.32067355181E+03  0.12500000000E+03 0.  0.
</event>
<event>
 4    0  0.2202290E-002  0.2544130E+03  0.7546771E-02  0.1110547E+00
         21   -1    0    0  502  501  0.00000000000E+00  0.00000000000E+00  0.49509059343E+03  0.49509059343E+03  0.00000000000E+00 0.  1.
         21   -1    0    0  501  502 -0.00000000000E+00 -0.00000000000E+00 -0.13073562524E+03  0.13073562524E+03  0.00000000000E+00 0.  1.
         25    1    1    2    0    0  0.20195488839E+03  0.66481364380E+01  0.29403458314E+03  0.37803612360E+03  0.12500000000E+03 0.  0.
         25    1    1    2    0    0 -0.20195488839E+03 -0.66481364380E+01  0.70320385039E+02  0.24779009507E+03  0.12500000000E+03 0.  0.
</event>
<event>
 4    0  0.2202290E-002  0.2445397E+03  0.7546771E-02  0.1116805E+00
         21   -1    0    0  502  501  0.00000000000E+00  0.00000000000E+00  0.84472970656E+03  0.84472970656E+03  0.00000000000E+00 0.  1.
         21   -1    0    0  501  502 -0.00000000000E+00 -0.00000000000E+00 -0.70791496513E+02  0.70791496513E+02  0.00000000000E+00 0.  1.
         25    1    1    2    0    0  0.16336093014E+02 -0.72731240434E+02  0.19108101880E+02  0.14678835386E+03  0.12500000000E+03 0.  0.
         25    1    1    2    0    0 -0.16336093014E+02  0.72731240434E+02  0.75483010817E+03  0.76873284922E+03  0.12500000000E+03 0.  0.
</event>
<event>
 4    0  0.2202290E-002  0.2026699E+03  0.7546771E-02  0.1147506E+00
         21   -1    0    0  502  501  0.00000000000E+00  0.00000000000E+00  0.16442044433E+03  0.16442044433E+03  0.00000000000E+00 0.  1.
         21   -1    0    0  501  502 -0.00000000000E+00 -0.00000000000E+00 -0.24981735746E+03  0.24981735746E+03  0.00000000000E+00 0.  1.
         25    1    1    2    0    0 -0.60838204520E+02  0.14717853724E+03 -0.52245477722E+02  0.20908706057E+03  0.12500000000E+03 0.  0.
         25    1    1    2    0    0  0.60838204520E+02 -0.14717853724E+03 -0.33151435414E+02  0.20515074122E+03  0.12500000000E+03 0.  0.
</event>
<event>
 4    0  0.2202290E-002  0.2983037E+03  0.7546771E-02  0.1086092E+00
         21   -1    0    0  502  501  0.00000000000E+00  0.00000000000E+00  0.23296748026E+03  0.23296748026E+03  0.00000000000E+00 0. -1.
         21   -1    0    0  501  502 -0.00000000000E+00 -0.00000000000E+00 -0.38196370998E+03  0.38196370998E+03  0.00000000000E+00 0. -1.
         25    1    1    2    0    0 -0.53714696591E+02  0.20703509122E+03  0.96771945458E+02  0.26596730448E+03  0.12500000000E+03 0.  0.
         25    1    1    2    0    0  0.53714696591E+02 -0.20703509122E+03 -0.24576817518E+03  0.34896388575E+03  0.12500000000E+03 0.  0.
</event>
<event>
 4    0  0.2202290E-002  0.2413273E+03  0.7546771E-02  0.1118912E+00
         21   -1    0    0  502  501  0.00000000000E+00  0.00000000000E+00  0.22206634102E+03  0.22206634102E+03  0.00000000000E+00 0.  1.
         21   -1    0    0  501  502 -0.00000000000E+00 -0.00000000000E+00 -0.26225884169E+03  0.26225884169E+03  0.00000000000E+00 0.  1.
         25    1    1    2    0    0  0.12464561020E+03  0.16380892152E+03 -0.35769867755E+02  0.24346329159E+03  0.12500000000E+03 0.  0.
         25    1    1    2    0    0 -0.12464561020E+03 -0.16380892152E+03 -0.44226329062E+01  0.24086189112E+03  0.12500000000E+03 0.  0.
</event>
<event>
 4    0  0.2202290E-002  0.2466716E+03  0.7546771E-02  0.1115427E+00
         21   -1    0    0  502  501  0.00000000000E+00  0.00000000000E+00  0.26986652215E+03  0.26986652215E+03  0.00000000000E+00 0. -1.
         21   -1    0    0  501  502 -0.00000000000E+00 -0.00000000000E+00 -0.22547028548E+03  0.22547028548E+03  0.00000000000E+00 0. -1.
         25    1    1    2    0    0 -0.12935128166E+03  0.28201551839E+01  0.19164672917E+03  0.26285580865E+03  0.12500000000E+03 0.  0.
         25    1    1    2    0    0  0.12935128166E+03 -0.28201551839E+01 -0.14725049250E+03  0.23248099897E+03  0.12500000000E+03 0.  0.
</event>
<event>
 4    0  0.2202290E-002  0.1542751E+03  0.7546771E-02  0.1195316E+00
         21   -1    0    0  502  501  0.00000000000E+00  0.00000000000E+00  0.60598298126E+03  0.60598298126E+03  0.00000000000E+00 0.  1.
         21   -1    0    0  501  502 -0.00000000000E+00 -0.00000000000E+00 -0.39276356071E+02  0.39276356071E+02  0.00000000000E+00 0.  1.
         25    1    1    2    0    0 -0.54029810884E+02  0.20897350758E+02  0.42853999108E+03  0.45014158182E+03  0.12500000000E+03 0.  0.
         25    1    1    2    0    0  0.54029810884E+02 -0.20897350758E+02  0.13816663411E+03  0.19511775551E+03  0.12500000000E+03 0.  0.
</event>
<event>
 4    0  0.2202290E-002  0.1980364E+03  0.7546771E-02  0.1151406E+00
         21   -1    0    0  502  501  0.00000000000E+00  0.00000000000E+00  0.88976692900E+02  0.88976692900E+02  0.00000000000E+00 0.  1.
         21   -1    0    0  501  502 -0.00000000000E+00 -0.00000000000E+00 -0.44077187649E+03  0.44077187649E+03  0.00000000000E+00 0.  1.
         25    1    1    2    0    0  0.56663485394E+02 -0.14252280418E+03 -0.16471334774E+03  0.25744705711E+03  0.12500000000E+03 0.  0.
         25    1    1    2    0    0 -0.56663485394E+02  0.14252280418E+03 -0.18708183585E+03  0.27230151229E+03  0.12500000000E+03 0.  0.
</event>
<event>
 4    0  0.2202290E-002  0.1809797E+03  0.7546771E-02  0.1166858E+00
         21   -1    0    0  502  501  0.00000000000E+00  0.00000000000E+00  0.92550268006E+02  0.92550268006E+02  0.00000000000E+00 0.  1.
         21   -1    0    0  501  502 -0.00000000000E+00 -0.00000000000E+00 -0.35390130967E+03  0.35390130967E+03  0.00000000000E+00 0.  1.
         25    1    1    2    0    0  0.91010072681E+02 -0.20880013801E+02 -0.24378750925E+03  0.28944111314E+03  0.12500000000E+03 0.  0.
         25    1    1    2    0    0 -0.91010072681E+02  0.20880013801E+02 -0.17563532415E+02  0.15701046454E+03  0.12500000000E+03 0.  0.
</event>
<event>
 4    0  0.2202290E-002  0.2439850E+03  0.7546771E-02  0.1117166E+00
         21   -1    0    0  502  501  0.00000000000E+00  0.00000000000E+00  0.41574809534E+03  0.41574809534E+03  0.00000000000E+00 0. -1.
         21   -1    0    0  501  502 -0.00000000000E+00 -0.00000000000E+00 -0.14318450458E+03  0.14318450458E+03  0.00000000000E+00 0. -1.
         25    1    1    2    0    0  0.10992368418E+03 -0.14173992367E+03  0.12225110792E+02  0.21897003366E+03  0.12500000000E+03 0.  0.
         25    1    1    2    0    0 -0.10992368418E+03  0.14173992367E+03  0.26033847997E+03  0.33996256626E+03  0.12500000000E+03 0.  0.
</event>
<event>
 4    0  0.2202290E-002  0.1596618E+03  0.7546771E-02  0.1189079E+00
         21   -1    0    0  502  501  0.00000000000E+00  0.00000000000E+00  0.12533177121E+03  0.12533177121E+03  0.00000000000E+00 0.  1.
         21   -1    0    0  501  502 -0.00000000000E+00 -0.00000000000E+00 -0.20339520850E+03  0.20339520850E+03  0.00000000000E+00 0.  1.
         25    1    1    2    0    0  0.30005418789E+02 -0.81194758615E+02  0.11126466479E+02  0.15245232776E+03  0.12500000000E+03 0.  0.
         25    1    1    2    0    0 -0.30005418789E+02  0.81194758615E+02 -0.89189903774E+02  0.17627465195E+03  0.12500000000E+03 0.  0.
</event>
<event>
 4    0  0.2202290E-002  0.1912351E+03  0.7546771E-02  0.1157352E+00
         21   -1    0    0  502  501  0.00000000000E+00  0.00000000000E+00  0.62399714413E+03  0.62399714413E+03  0.00000000000E+00 0. -1.
         21   -1    0    0  501  502 -0.00000000000E+00 -0.00000000000E+00 -0.58607420946E+02  0.58607420946E+02  0.00000000000E+00 0. -1.
         25    1    1    2    0    0 -0.11627637916E+03 -0.39618072589E+01  0.12906351349E+03  0.21405205624E+03  0.12500000000E+03 0.  0.
         25    1    1    2    0    0  0.11627637916E+03  0.39618072589E+01  0.43632620969E+03  0.46855250883E+03  0.12500000000E+03 0.  0.
</event>
<event>
 4    0  0.2202290E-002  0.2735787E+03  0.7546771E-02  0.1099249E+00
         21   -1    0    0  502  501  0.00000000000E+00  0.00000000000E+00  0.72639906778E+03  0.72639906778E+03  0.00000000000E+00 0. -1.
         21   -1    0    0  501  502 -0.00000000000E+00 -0.00000000000E+00 -0.10303609610E+03  0.10303609610E+03  0.00000000000E+00 0. -1.
         25    1    1    2    0    0  0.21765933082E+03  0.61826653474E+02  0.44745560150E+03  0.51675877805E+03  0.12500000000E+03 0.  0.
         25    1    1    2    0    0 -0.21765933082E+03 -0.61826653474E+02  0.17590737018E+03  0.31267638583E+03  0.12500000000E+03 0.  0.
</event>
<event>
 4    0  0.2202290E-002  0.2406093E+03  0.7546771E-02  0.1119388E+00
         21   -1    0    0  502  501  0.00000000000E+00  0.00000000000E+00  0.50698823328E+03  0.50698823328E+03  0.00000000000E+00 0.  1.
         21   -1    0    0  501  502 -0.00000000000E+00 -0.00000000000E+00 -0.11418966859E+03  0.11418966859E+03  0.00000000000E+00 0.  1.
         25    1    1    2    0    0 -0.59220200869E+02  0.10862405098E+03  0.40835566543E+03  0.44461845005E+03  0.12500000000E+03 0.  0.
         25    1    1    2    0    0  0.59220200869E+02 -0.10862405098E+03 -0.15557100728E+02  0.17655945182E+03  0.12500000000E+03 0.  0.
</event>
<event>
 4    0  0.2202290E-002  0.2160013E+03  0.7546771E-02  0.1136900E+00
         21   -1    0    0  502  501  0.00000000000E+00  0.00000000000E+00  0.80390530944E+02  0.80390530944E+02  0.00000000000E+00 0.  1.
         21   -1    0    0  501  502 -0.00000000000E+00 -0.00000000000E+00 -0.58037386949E+03  0.58037386949E+03  0.00000000000E+00 0.  1.
         25    1    1    2    0    0 -0.83042884867E+02 -0.15099867976E+03 -0.19410926058E+03  0.28809742633E+03  0.12500000000E+03 0.  0.
         25    1    1    2    0    0  0.83042884867E+02  0.15099867976E+03 -0.30587407797E+03  0.37266697411E+03  0.12500000000E+03 0.  0.
</event>
<event>
 4    0  0.2202290E-002  0.3127134E+03  0.7546771E-02  0.1079053E+00
         21   -1    0    0  502  501  0.00000000000E+00  0.00000000000E+00  0.10351012019E+03  0.10351012019E+03  0.00000000000E+00 0. -1.
         21   -1    0    0  501  502 -0.00000000000E+00 -0.00000000000E+00 -0.94473534034E+03  0.94473534034E+03  0.00000000000E+00 0. -1.
         25    1    1    2    0    0  0.18817823760E+03  0.14123225773E+02 -0.58981547908E+02  0.23391096085E+03  0.12500000000E+03 0.  0.
         25    1    1    2    0    0 -0.18817823760E+03 -0.14123225773E+02 -0.78224367223E+03  0.81433449968E+03  0.12500000000E+03 0.  0.
</event>
<event>
 4    0  0.2202290E-002  0.2324394E+03  0.7546771E-02  0.1124934E+00
         21   -1    0    0  502  501  0.00000000000E+00  0.00000000000E+00  0.19955074481E+03  0.19955074481E+03  0.00000000000E+00 0. -1.
         21   -1    0    0  501  502 -0.00000000000E+00 -0.00000000000E+00 -0.27074865175E+03  0.27074865175E+03  0.00000000000E+00 0. -1.
         25    1    1    2    0    0  0.15907613999E+03 -0.63179771546E+02 -0.13213800544E+03  0.24976459783E+03  0.12500000000E+03 0.  0.
         25    1    1    2    0    0 -0.15907613999E+03  0.63179771546E+02  0.60940098499E+02  0.22053479873E+03  0.12500000000E+03 0.  0.
</event>
<event>
 4    0  0.2202290E-002  0.2942845E+03  0.7546771E-02  0.1088133E+00
         21   -1    0    0  502  501  0.00000000000E+00  0.00000000000E+00  0.32788697523E+03  0.32788697523E+03  0.00000000000E+00 0. -1.
         21   -1    0    0  501  502 -0.00000000000E+00 -0.00000000000E+00 -0.26412574396E+03  0.26412574396E+03  0.00000000000E+00 0. -1.
         25    1    1    2    0    0  0.11514571143E+03  0.22497621470E+03  0.11666829021E+03  0.30513820145E+03  0.12500000000E+03 0.  0.
         25    1    1    2    0    0 -0.11514571143E+03 -0.22497621470E+03 -0.52907058941E+02  0.28687451774E+03  0.12500000000E+03 0.  0.
</event>
<event>
 4    0  0.2202290E-002  0.1842805E+03  0.7546771E-02  0.1163723E+00
         21   -1    0    0  502  501  0.00000000000E+00  0.00000000000E+00  0.13245354315E+03  0.13245354315E+03  0.00000000000E+00 0. -1.
         21   -1    0    0  501  502 -0.00000000000E+00 -0.00000000000E+00 -0.25638654572E+03  0.25638654572E+03  0.00000000000E+00 0. -1.
         25    1    1    2    0    0  0.52931604870E+02 -0.12030230530E+03 -0.27618972158E+02  0.18347263305E+03  0.12500000000E+03 0.  0.
         25    1    1    2    0    0 -0.52931604870E+02  0.12030230530E+03 -0.96314030415E+02  0.20536745582E+03  0.12500000000E+03 0.  0.
</event>
<event>
 4    0  0.2202290E-002  0.1835064E+03  0.7546771E-02  0.1164452E+00
         21   -1    0    0  502  501  0.00000000000E+00  0.00000000000E+00  0.67622897791E+02  0.67622897791E+02  0.00000000000E+00 0. -1.
         21   -1    0    0  501  502 -0.00000000000E+00 -0.00000000000E+00 -0.49797617721E+03  0.49797617721E+03  0.00000000000E+00 0. -1.
         25    1    1    2    0    0  0.31565944494E+02  0.43510728138E+01 -0.41631228798E+03  0.43583972032E+03  0.12500000000E+03 0.  0.
         25    1    1    2    0    0 -0.31565944494E+02 -0.43510728138E+01 -0.14040991439E+02  0.12975935468E+03  0.12500000000E+03 0.  0.
</event>
<event>
 4    0  0.2202290E-002  0.2653028E+03  0.7546771E-02  0.1103998E+00
         21   -1    0    0  502  501  0.00000000000E+00  0.00000000000E+00  0.10802138401E+04  0.10802138401E+04  0.00000000000E+00 0.  1.
         21   -1    0    0  501  502 -0.00000000000E+00 -0.00000000000E+00 -0.65158933125E+02  0.65158933125E+02  0.00000000000E+00 0.  1.
         25    1    1    2    0    0  0.65303629741E+02 -0.72564126898E+02  0.48445169279E+02  0.16583742339E+03  0.12500000000E+03 0.  0.
         25    1    1    2    0    0 -0.65303629741E+02  0.72564126898E+02  0.96660973774E+03  0.97953534988E+03  0.12500000000E+03 0.  0.
</event>
<event>
 4    0  0.2202290E-002  0.2024248E+03  0.7546771E-02  0.1147709E+00
         21   -1    0    0  502  501  0.00000000000E+00  0.00000000000E+00  0.96270636503E+02  0.96270636503E+02  0.00000000000E+00 0.  1.
         21   -1    0    0  501  502 -0.00000000000E+00 -0.00000000000E+00 -0.42563126115E+03  0.42563126115E+03  0.00000000000E+00 0.  1.
         25    1    1    2    0    0 -0.11894029978E+03 -0.93353036374E+02 -0.22899731599E+03  0.30153997254E+03  0.12500000000E+03 0.  0.
         25    1    1    2    0    0  0.11894029978E+03  0.93353036374E+02 -0.10036330866E+03  0.22036192511E+03  0.12500000000E+03 0.  0.
</event>
<event>
 4    0  0.2202290E-002  0.1650152E+03  0.7546771E-02  0.1183148E+00
         21   -1    0    0  502  501  0.00000000000E+00  0.00000000000E+00  0.16272831280E+02  0.16272831280E+02  0.00000000000E+00 0.  1.
         21   -1    0    0  501  502 -0.00000000000E+00 -0.00000000000E+00 -0.16733431412E+04  0.16733431412E+04  0.00000000000E+00 0.  1.
         25    1    1    2    0    0  0.54295974626E+02 -0.54333804275E+02 -0.44185245154E+03  0.46557362906E+03  0.12500000000E+03 0.  0.
         25    1    1    2    0    0 -0.54295974626E+02  0.54333804275E+02 -0.12152178583E+04  0.12240423434E+04  0.12500000000E+03 0.  0.
</event>
<event>
 4    0  0.2202290E-002  0.2140359E+03  0.7546771E-02  0.1138409E+00
         21   -1    0    0  502  501  0.00000000000E+00  0.00000000000E+00  0.42719046170E+03  0.42719046170E+03  0.00000000000E+00 0. -1.
         21   -1    0    0  501  502 -0.00000000000E+00 -0.00000000000E+00 -0.10723874959E+03  0.10723874959E+03  0.00000000000E+00 0. -1.
         25    1    1    2    0    0 -0.49316574670E+02  0.91985861973E+01 -0.47694851727E+02  0.14288644935E+03  0.12500000000E+03 0.  0.
         25    1    1    2    0    0  0.49316574670E+02 -0.91985861973E+01  0.36764656384E+03  0.39154276194E+03  0.12500000000E+03 0.  0.
</event>
<event>
 4    0  0.2202290E-002  0.1554261E+03  0.7546771E-02  0.1193960E+00
         21   -1    0    0  502  501  0.00000000000E+00  0.00000000000E+00  0.23637077717E+03  0.23637077717E+03  0.00000000000E+00 0.  1.
         21   -1    0    0  501  502 -0.00000000000E+00 -0.00000000000E+00 -0.10220079191E+03  0.10220079191E+03  0.00000000000E+00 0.  1.
         25    1    1    2    0    0 -0.17982315781E+02  0.14669621981E+01 -0.31584402535E+02  0.13018483069E+03  0.12500000000E+03 0.  0.
         25    1    1    2    0    0  0.17982315781E+02 -0.14669621981E+01  0.16575438780E+03  0.20838673838E+03  0.12500000000E+03 0.  0.
</event>
<event>
 4    0  0.2202290E-002  0.2539386E+03  0.7546771E-02  0.1110841E+00
         21   -1    0    0  502  501  0.00000000000E+00  0.00000000000E+00  0.16845144500E+03  0.16845144500E+03  0.00000000000E+00 0.  1.
         21   -1    0    0  501  502 -0.00000000000E+00 -0.00000000000E+00 -0.38280958474E+03  0.38280958474E+03  0.00000000000E+00 0.  1.
         25    1    1    2    0    0  0.17498732181E+03 -0.25412077853E+02  0.36791770173E+02  0.21964737842E+03  0.12500000000E+03 0.  0.
         25    1    1    2    0    0 -0.17498732181E+03  0.25412077853E+02 -0.25114990991E+03  0.33161365133E+03  0.12500000000E+03 0.  0.
</event>
<event>
 4    0  0.2202290E-002  0.1611414E+03  0.7546771E-02  0.1187414E+00
         21   -1    0    0  502  501  0.00000000000E+00  0.00000000000E+00  0.17923355781E+02  0.17923355781E+02  0.00000000000E+00 0. -1.
         21   -1    0    0  501  502 -0.00000000000E+00 -0.00000000000E+00 -0.14487555156E+04  0.14487555156E+04  0.00000000000E+00 0. -1.
         25    1    1    2    0    0 -0.49351680996E+02  0.14015944106E+02 -0.11150033543E+04  0.11231605029E+04  0.12500000000E+03 0.  0.
         25    1    1    2    0    0  0.49351680996E+02 -0.14015944106E+02 -0.31582880547E+03  0.34351836846E+03  0.12500000000E+03 0.  0.
</event>
<event>
 4    0  0.2202290E-002  0.3147336E+03  0.7546771E-02  0.1078099E+00
         21   -1    0    0  502  501  0.00000000000E+00  0.00000000000E+00  0.16768143674E+03  0.16768143674E+03  0.00000000000E+00 0.  1.
         21   -1    0    0  501  502 -0.00000000000E+00 -0.00000000000E+00 -0.59074670239E+03  0.59074670239E+03  0.00000000000E+00 0.  1.
         25    1    1    2    0    0 -0.20745729632E+03  0.87383777492E+01 -0.45346132380E+03  0.51416637504E+03  0.12500000000E+03 0.  0.
         25    1    1    2    0    0  0.20745729632E+03 -0.87383777492E+01  0.30396058144E+02  0.24426176409E+03  0.12500000000E+03 0.  0.
</event>
<event>
 4    0  0.2202290E-002  0.1279239E+03  0.7546771E-02  0.1230569E+00
         21   -1    0    0  502  501  0.00000000000E+00  0.00000000000E+00  0.30965885403E+02  0.30965885403E+02  0.00000000000E+00 0.  1.
         21   -1    0    0  501  502 -0.00000000000E+00 -0.00000000000E+00 -0.52846955287E+03  0.52846955287E+03  0.00000000000E+00 0.  1.
         25    1    1    2    0    0 -0.21721945156E+01 -0.17851953909E+01 -0.30789597050E+03  0.33231436021E+03  0.12500000000E+03 0.  0.
         25    1    1    2    0    0  0.21721945156E+01  0.17851953909E+01 -0.18960769697E+03  0.22712107807E+03  0.12500000000E+03 0.  0.
</event>
<event>
 4    0  0.2202290E-002  0.2288223E+03  0.7546771E-02  0.1127471E+00
         21   -1    0    0  502  501  0.00000000000E+00  0.00000000000E+00  0.10613880131E+04  0.10613880131E+04  0.00000000000E+00 0.  1.
         21   -1    0    0  501  502 -0.00000000000E+00 -0.00000000000E+00 -0.49331304634E+02  0.49331304634E+02  0.00000000000E+00 0.  1.
         25    1    1    2    0    0 -0.15842251574E+02  0.52784216129E+02  0.60500549461E+02  0.14940705101E+03  0.12500000000E+03 0.  0.
         25    1    1    2    0    0  0.15842251574E+02 -0.52784216129E+02  0.95155615904E+03  0.96131226676E+03  0.12500000000E+03 0.  0.
</event>
<event>
 4    0  0.2202290E-002  0.2524306E+03  0.7546771E-02  0.1111778E+00
         21   -1    0    0  502  501  0.00000000000E+00  0.00000000000E+00  0.24072446993E+03  0.24072446993E+03  0.00000000000E+00 0. -1.
         21   -1    0    0  501  502 -0.00000000000E+00 -0.00000000000E+00 -0.26470597295E+03  0.26470597295E+03  0.00000000000E+00 0. -1.
         25    1    1    2    0    0  0.53861317272E+02 -0.17581507129E+03 -0.13164213939E+03  0.25839240247E+03  0.12500000000E+03 0.  0.
         25    1    1    2    0    0 -0.53861317272E+02  0.17581507129E+03  0.10766063637E+03  0.24703804042E+03  0.12500000000E+03 0.  0.
</event>
<event>
 4    0  0.2202290E-002  0.1528641E+03  0.7546771E-02  0.1196997E+00
         21   -1    0    0  502  501  0.00000000000E+00  0.00000000000E+00  0.52819144365E+02  0.52819144365E+02  0.00000000000E+00 0.  1.
         21   -1    0    0  501  502 -0.00000000000E+00 -0.00000000000E+00 -0.44240448174E+03  0.44240448174E+03  0.00000000000E+00 0.  1.
         25    1    1    2    0    0 -0.85812537363E+02  0.12090967243E+02 -0.17009680162E+03  0.22818392796E+03  0.12500000000E+03 0.  0.
         25    1    1    2    0    0  0.85812537363E+02 -0.12090967243E+02 -0.21948853576E+03  0.26703969815E+03  0.12500000000E+03 0.  0.
</event>
<event>
 4    0  0.2202290E-002  0.2326041E+03  0.7546771E-02  0.1124820E+00
         21   -1    0    0  502  501  0.00000000000E+00  0.00000000000E+00  0.27865469648E+03  0.27865469648E+03  0.00000000000E+00 0.  1.
         21   -1    0    0  501  502 -0.00000000000E+00 -0.00000000000E+00 -0.19416391181E+03  0.19416391181E+03  0.00000000000E+00 0.  1.
         25    1    1    2    0    0 -0.17171118823E+03 -0.20120496673E+02  0.13644448590E+03  0.25324230350E+03  0.12500000000E+03 0.  0.
         25    1    1    2    0    0  0.17171118823E+03  0.20120496673E+02 -0.51953701231E+02  0.21957630478E+03  0.12500000000E+03 0.  0.
</event>
<event>
 4    0  0.2202290E-002  0.1805122E+03  0.7546771E-02  0.1167308E+00
         21   -1    0    0  502  501  0.00000000000E+00  0.00000000000E+00  0.74865406054E+03  0.74865406054E+03  0.00000000000E+00 0.  1.
         21   -1    0    0  501  502 -0.00000000000E+00 -0.00000000000E+00 -0.43524305096E+02  0.43524305096E+02  0.00000000000E+00 0.  1.
         25    1    1    2    0    0 -0.82767037718E+02  0.70012449932E+02  0.51090902886E+03  0.53703366882E+03  0.12500000000E+03 0.  0.
         25    1    1    2    0    0  0.82767037718E+02 -0.70012449932E+02  0.19422072659E+03  0.25514469682E+03  0.12500000000E+03 0.  0.
</event>
<event>
 4    0  0.2202290E-002  0.1580123E+03  0.7546771E-02  0.1190959E+00
         21   -1    0    0  502  501  0.00000000000E+00  0.00000000000E+00  0.18362189840E+03  0.18362189840E+03  0.00000000000E+00 0.  1.
         21   -1    0    0  501  502 -0.00000000000E+00 -0.00000000000E+00 -0.13597441844E+03  0.13597441844E+03  0.00000000000E+00 0.  1.
         25    1    1    2    0    0  0.11187817945E+02 -0.89513363615E+02  0.58930221240E+02  0.16503205904E+03  0.12500000000E+03 0.  0.
         25    1    1    2    0    0 -0.11187817945E+02  0.89513363615E+02 -0.11282741278E+02  0.15456425779E+03  0.12500000000E+03 0.  0.
</event>
<event>
 4    0  0.2202290E-002  0.1720905E+03  0.7546771E-02  0.1175685E+00
         21   -1    0    0  502  501  0.00000000000E+00  0.00000000000E+00  0.65487743171E+03  0.65487743171E+03  0.00000000000E+00 0. -1.
         21   -1    0    0  501  502 -0.00000000000E+00 -0.00000000000E+00 -0.45222418165E+02  0.45222418165E+02  0.00000000000E+00 0. -1.
         25    1    1    2    0    0  0.11568476602E+03  0.14638486828E+02  0.34514643217E+03  0.38516010960E+03  0.12500000000E+03 0.  0.
         25    1    1    2    0    0 -0.11568476602E+03 -0.14638486828E+02  0.26450858137E+03  0.31493974028E+03  0.12500000000E+03 0.  0.
</event>
<event>
 4    0  0.2202290E-002  0.2302235E+03  0.7546771E-02  0.1126483E+00
         21   -1    0    0  502  501  0.00000000000E+00  0.00000000000E+00  0.22110456726E+03  0.22110456726E+03  0.00000000000E+00 0.  1.
         21   -1    0    0  501  502 -0.00000000000E+00 -0.00000000000E+00 -0.23971851894E+03  0.23971851894E+03  0.00000000000E+00 0.  1.
         25    1    1    2    0    0  0.11043500759E+02  0.19264227192E+03 -0.21352401830E+02  0.23089809203E+03  0.12500000000E+03 0.  0.
         25    1    1    2    0    0 -0.11043500759E+02 -0.19264227192E+03  0.27384501529E+01  0.22992499418E+03  0.12500000000E+03 0.  0.
</event>
<event>
 4    0  0.2202290E-002  0.3328556E+03  0.7546771E-02  0.1069880E+00
         21   -1    0    0  502  501  0.00000000000E+00  0.00000000000E+00  0.41597001848E+03  0.41597001848E+03  0.00000000000E+00 0. -1.
         21   -1    0    0  501  502 -0.00000000000E+00 -0.00000000000E+00 -0.26634820408E+03  0.26634820408E+03  0.00000000000E+00 0. -1.
         25    1    1    2    0    0 -0.16782021606E+01 -0.26961830522E+03  0.22845379849E+03  0.37485061680E+03  0.12500000000E+03 0.  0.
         25    1    1    2    0    0  0.16782021606E+01  0.26961830522E+03 -0.78831984091E+02  0.30746760576E+03  0.12500000000E+03 0.  0.
</event>
<event>
 4    0  0.2202290E-002  0.1803608E+03  0.7546771E-02  0.1167454E+00
         21   -1    0    0  502  501  0.00000000000E+00  0.00000000000E+00  0.11577260357E+03  0.11577260357E+03  0.00000000000E+00 0.  1.
         21   -1    0    0  501  502 -0.00000000000E+00 -0.00000000000E+00 -0.28098192053E+03  0.28098192053E+03  0.00000000000E+00 0.  1.
         25    1    1    2    0    0 -0.61892246174E+02 -0.11058045766E+03 -0.11460225047E+03  0.21170111848E+03  0.12500000000E+03 0.  0.
         25    1    1    2    0    0  0.61892246174E+02  0.11058045766E+03 -0.50607066499E+02  0.18505340562E+03  0.12500000000E+03 0.  0.
</event>
<event>
 4    0  0.2202290E-002  0.2570968E+03  0.7546771E-02  0.1108900E+00
         21   -1    0    0  502  501  0.00000000000E+00  0.00000000000E+00  0.35039405240E+03  0.35039405240E+03  0.00000000000E+00 0. -1.
         21   -1    0    0  501  502 -0.00000000000E+00 -0.00000000000E+00 -0.18864125507E+03  0.18864125507E+03  0.00000000000E+00 0. -1.
         25    1    1    2    0    0  0.60845521301E+02 -0.11291952882E+03  0.27423461260E+03  0.32754025737E+03  0.12500000000E+03 0.  0.
         25    1    1    2    0    0 -0.60845521301E+02  0.11291952882E+03 -0.11248181527E+03  0.21149505010E+03  0.12500000000E+03 0.  0.
</event>
<event>
 4    0  0.2202290E-002  0.2225028E+03  0.7546771E-02  0.1132031E+00
         21   -1    0    0  502  501  0.00000000000E+00  0.00000000000E+00  0.98394264839E+02  0.98394264839E+02  0.00000000000E+00 0. -1.
         21   -1    0    0  501  502 -0.00000000000E+00 -0.00000000000E+00 -0.50315411566E+03  0.50315411566E+03  0.00000000000E+00 0. -1.
         25    1    1    2    0    0 -0.82609467352E+02  0.30706003415E+02  0.16070371830E+02  0.15378699422E+03  0.12500000000E+03 0.  0.
         25    1    1    2    0    0  0.82609467352E+02 -0.30706003415E+02 -0.42083022266E+03  0.44776138628E+03  0.12500000000E+03 0.  0.
</event>
<event>
 4    0  0.2202290E-002  0.2268783E+03  0.7546771E-02  0.1128856E+00
         21   -1    0    0  502  501  0.00000000000E+00  0.00000000000E+00  0.27136428291E+03  0.27136428291E+03  0.00000000000E+00 0.  1.
         21   -1    0    0  501  502 -0.00000000000E+00 -0.00000000000E+00 -0.18968511293E+03  0.18968511293E+03  0.00000000000E+00 0.  1.
         25    1    1    2    0    0  0.13379600554E+03 -0.71206667180E+02  0.15614027660E+03  0.25095128317E+03  0.12500000000E+03 0.  0.
         25    1    1    2    0    0 -0.13379600554E+03  0.71206667180E+02 -0.74461106619E+02  0.21009811267E+03  0.12500000000E+03 0.  0.
</event>
<event>
 4    0  0.2202290E-002  0.2141649E+03  0.7546771E-02  0.1138310E+00
         21   -1    0    0  502  501  0.00000000000E+00  0.00000000000E+00  0.17633605826E+03  0.17633605826E+03  0.00000000000E+00 0.  1.
         21   -1    0    0  501  502 -0.00000000000E+00 -0.00000000000E+00 -0.26010899952E+03  0.26010899952E+03  0.00000000000E+00 0.  1.
         25    1    1    2    0    0 -0.12460638234E+03 -0.87334489942E+00  0.81713373546E+02  0.19449829991E+03  0.12500000000E+03 0.  0.
         25    1    1    2    0    0  0.12460638234E+03  0.87334489942E+00 -0.16548631481E+03  0.24194675787E+03  0.12500000000E+03 0.  0.
</event>
<event>
 4    0  0.2202290E-002  0.3957010E+03  0.7546771E-02  0.1045278E+00
         21   -1    0    0  502  501  0.00000000000E+00  0.00000000000E+00  0.40126964729E+03  0.40126964729E+03  0.00000000000E+00 0. -1.
         21   -1    0    0  501  502 -0.00000000000E+00 -0.00000000000E+00 -0.39020972924E+03  0.39020972924E+03  0.00000000000E+00 0. -1.
         25    1    1    2    0    0 -0.27586279991E+03  0.60381305551E+02  0.25295689396E+03  0.39919716512E+03  0.12500000000E+03 0.  0.
         25    1    1    2    0    0  0.27586279991E+03 -0.60381305551E+02 -0.24189697591E+03  0.39228221141E+03  0.12500000000E+03 0.  0.
</event>
<event>
 4    0  0.2202290E-002  0.1678462E+03  0.7546771E-02  0.1180113E+00
         21   -1    0    0  502  501  0.00000000000E+00  0.00000000000E+00  0.20296915913E+02  0.20296915913E+02  0.00000000000E+00 0.  1.
         21   -1    0    0  501  502 -0.00000000000E+00 -0.00000000000E+00 -0.13880117555E+04  0.13880117555E+04  0.00000000000E+00 0.  1.
         25    1    1    2    0    0  0.82690558120E+02 -0.55319080282E+02 -0.46791777174E+03  0.49443904594E+03  0.12500000000E+03 0.  0.
         25    1    1    2    0    0 -0.82690558120E+02  0.55319080282E+02 -0.89979706785E+03  0.91386962548E+03  0.12500000000E+03 0.  0.
</event>
<event>
 4    0  0.2202290E-002  0.1894129E+03  0.7546771E-02  0.1158992E+00
         21   -1    0    0  502  501  0.00000000000E+00  0.00000000000E+00  0.77630302045E+02  0.77630302045E+02  0.00000000000E+00 0.  1.
         21   -1    0    0  501  502 -0.00000000000E+00 -0.00000000000E+00 -0.46215529615E+03  0.46215529615E+03  0.00000000000E+00 0.  1.
         25    1    1    2    0    0 -0.11771701355E+03  0.39221774504E+02 -0.29156230594E+03  0.34063062270E+03  0.12500000000E+03 0.  0.
         25    1    1    2    0    0  0.11771701355E+03 -0.39221774504E+02 -0.92962688164E+02  0.19915497550E+03  0.12500000000E+03 0.  0.
</event>
<event>
 4    0  0.2202290E-002  0.2695706E+03  0.7546771E-02  0.1101526E+00
         21   -1    0    0  502  501  0.00000000000E+00  0.00000000000E+00  0.17994714446E+04  0.17994714446E+04  0.00000000000E+00 0. -1.
         21   -1    0    0  501  502 -0.00000000000E+00 -0.00000000000E+00 -0.40383142202E+02  0.40383142202E+02  0.00000000000E+00 0. -1.
         25    1    1    2    0    0 -0.13812080713E+02 -0.22753676889E+03  0.11227611171E+04  0.11524674750E+04  0.12500000000E+03 0.  0.
         25    1    1    2    0    0  0.13812080713E+02  0.22753676889E+03  0.63632718524E+03  0.68738711178E+03  0.12500000000E+03 0.  0.
</event>
<event>
 4    0  0.2202290E-002  0.1609303E+03  0.7546771E-02  0.1187650E+00
         21   -1    0    0  502  501  0.00000000000E+00  0.00000000000E+00  0.27527073102E+03  0.27527073102E+03  0.00000000000E+00 0. -1.
         21   -1    0    0  501  502 -0.00000000000E+00 -0.00000000000E+00 -0.94084007099E+02  0.94084007099E+02  0.00000000000E+00 0. -1.
         25    1    1    2    0    0 -0.61162707331E+02 -0.72461020222E+02  0.13168337056E+03  0.20483404576E+03  0.12500000000E+03 0.  0.
         25    1    1    2    0    0  0.61162707331E+02  0.72461020222E+02  0.49503353352E+02  0.16452069235E+03  0.12500000000E+03 0.  0.
</event>
<event>
 4    0  0.2202290E-002  0.2136354E+03  0.7546771E-02  0.1138719E+00
         21   -1    0    0  502  501  0.00000000000E+00  0.00000000000E+00  0.78588383748E+03  0.78588383748E+03  0.00000000000E+00 0.  1.
         21   -1    0    0  501  502 -0.00000000000E+00 -0.00000000000E+00 -0.58074868086E+02  0.58074868086E+02  0.00000000000E+00 0.  1.
         25    1    1    2    0    0 -0.82842339749E+02  0.10024881898E+02  0.66379991291E+03  0.68060170136E+03  0.12500000000E+03 0.  0.
         25    1    1    2    0    0  0.82842339749E+02 -0.10024881898E+02  0.64009056487E+02  0.16335700421E+03  0.12500000000E+03 0.  0.
</event>
<event>
 4    0  0.2202290E-002  0.2161943E+03  0.7546771E-02  0.1136753E+00
         21   -1    0    0  502  501  0.00000000000E+00  0.00000000000E+00  0.16994763191E+03  0.16994763191E+03  0.00000000000E+00 0.  1.
         21   -1    0    0  501  502 -0.00000000000E+00 -0.00000000000E+00 -0.27502587352E+03  0.27502587352E+03  0.00000000000E+00 0.  1.
         25    1    1    2    0    0 -0.45175812861E+02 -0.15592918083E+03 -0.12354166341E+03  0.23925364386E+03  0.12500000000E+03 0.  0.
         25    1    1    2    0    0  0.45175812861E+02  0.15592918083E+03  0.18463421799E+02  0.20571986158E+03  0.12500000000E+03 0.  0.
</event>
<event>
 4    0  0.2202290E-002  0.1746519E+03  0.7546771E-02  0.1173082E+00
         21   -1    0    0  502  501  0.00000000000E+00  0.00000000000E+00  0.10113220318E+04  0.10113220318E+04  0.00000000000E+00 0.  1.
         21   -1    0    0  501  502 -0.00000000000E+00 -0.00000000000E+00 -0.30161804105E+02  0.30161804105E+02  0.00000000000E+00 0.  1.
         25    1    1    2    0    0  0.61689568049E+02 -0.10435316991E+03  0.53092656483E+03  0.55875146900E+03  0.12500000000E+03 0.  0.
         25    1    1    2    0    0 -0.61689568049E+02  0.10435316991E+03  0.45023366290E+03  0.48273236693E+03  0.12500000000E+03 0.  0.
</event>
<event>
 4    0  0.2202290E-002  0.2437015E+03  0.7546771E-02  0.1117351E+00
         21   -1    0    0  502  501  0.00000000000E+00  0.00000000000E+00  0.39360149439E+03  0.39360149439E+03  0.00000000000E+00 0. -1.
         21   -1    0    0  501  502 -0.00000000000E+00 -0.00000000000E+00 -0.15088971630E+03  0.15088971630E+03  0.00000000000E+00 0. -1.
         25    1    1    2    0    0 -0.57613350882E+02 -0.19145798005E+03  0.52582553758E+02  0.24158928222E+03  0.12500000000E+03 0.  0.
         25    1    1    2    0    0  0.57613350882E+02  0.19145798005E+03  0.19012922433E+03  0.30290192847E+03  0.12500000000E+03 0.  0.
</event>
<event>
 4    0  0.2202290E-002  0.3351567E+03  0.7546771E-02  0.1068878E+00
         21   -1    0    0  502  501  0.00000000000E+00  0.00000000000E+00  0.35833340403E+03  0.35833340403E+03  0.00000000000E+00 0. -1.
         21   -1    0    0  501  502 -0.00000000000E+00 -0.00000000000E+00 -0.31347897215E+03  0.31347897215E+03  0.00000000000E+00 0. -1.
         25    1    1    2    0    0 -0.14117328374E+03  0.10965629877E+03  0.27745764746E+03  0.35293362837E+03  0.12500000000E+03 0.  0.
         25    1    1    2    0    0  0.14117328374E+03 -0.10965629877E+03 -0.23260321558E+03  0.31887874780E+03  0.12500000000E+03 0.  0.
</event>
<event>
 4    0  0.2202290E-002  0.2941004E+03  0.7546771E-02  0.1088228E+00
         21   -1    0    0  502  501  0.00000000000E+00  0.00000000000E+00  0.47808886722E+02  0.47808886722E+02  0.00000000000E+00 0.  1.
         21   -1    0    0  501  502 -0.00000000000E+00 -0.00000000000E+00 -0.18091834228E+04  0.18091834228E+04  0.00000000000E+00 0.  1.
         25    1    1    2    0    0 -0.40157610011E+02  0.19473782251E+02 -0.52124647660E+02  0.14259677672E+03  0.12500000000E+03 0.  0.
         25    1    1    2    0    0  0.40157610011E+02 -0.19473782251E+02 -0.17092498884E+04  0.17143955328E+04  0.12500000000E+03 0.  0.
</event>
<event>
 4    0  0.2202290E-002  0.1844989E+03  0.7546771E-02  0.1163519E+00
         21   -1    0    0  502  501  0.00000000000E+00  0.00000000000E+00  0.27348686604E+02  0.27348686604E+02  0.00000000000E+00 0. -1.
         21   -1    0    0  501  502 -0.00000000000E+00 -0.00000000000E+00 -0.12446616558E+04  0.12446616558E+04  0.00000000000E+00 0. -1.
         25    1    1    2    0    0  0.13423947424E+03  0.11047757314E+02 -0.66556896388E+03  0.69047037233E+03  0.12500000000E+03 0.  0.
         25    1    1    2    0    0 -0.13423947424E+03 -0.11047757314E+02 -0.55174400528E+03  0.58153997003E+03  0.12500000000E+03 0.  0.
</event>
<event>
 4    0  0.2202290E-002  0.2153909E+03  0.7546771E-02  0.1137367E+00
         21   -1    0    0  502  501  0.00000000000E+00  0.00000000000E+00  0.10444187179E+04  0.10444187179E+04  0.00000000000E+00 0. -1.
         21   -1    0    0  501  502 -0.00000000000E+00 -0.00000000000E+00 -0.44420159961E+02  0.44420159961E+02  0.00000000000E+00 0. -1.
         25    1    1    2    0    0  0.14731815238E+03  0.79185210622E+02  0.63363461239E+03  0.66715122545E+03  0.12500000000E+03 0.  0.
         25    1    1    2    0    0 -0.14731815238E+03 -0.79185210622E+02  0.36636394558E+03  0.42168765244E+03  0.12500000000E+03 0.  0.
</event>
<event>
 4    0  0.2202290E-002  0.1884101E+03  0.7546771E-02  0.1159903E+00
         21   -1    0    0  502  501  0.00000000000E+00  0.00000000000E+00  0.20260554713E+04  0.20260554713E+04  0.00000000000E+00 0.  1.
         21   -1    0    0  501  502 -0.00000000000E+00 -0.00000000000E+00 -0.17520921046E+02  0.17520921046E+02  0.00000000000E+00 0.  1.
         25    1    1    2    0    0 -0.11188792587E+03 -0.69091868561E+02  0.72876139710E+03  0.75100650341E+03  0.12500000000E+03 0.  0.
         25    1    1    2    0    0  0.11188792587E+03  0.69091868561E+02  0.12797731531E+04  0.12925698889E+04  0.12500000000E+03 0.  0.
</event>
<event>
 4    0  0.2202290E-002  0.3318606E+03  0.7546771E-02  0.1070317E+00
         21   -1    0    0  502  501  0.00000000000E+00  0.00000000000E+00  0.55603426484E+03  0.55603426484E+03  0.00000000000E+00 0.  1.
         21   -1    0    0  501  502 -0.00000000000E+00 -0.00000000000E+00 -0.19806595606E+03  0.19806595606E+03  0.00000000000E+00 0.  1.
         25    1    1    2    0    0  0.99782118923E+01  0.27647326360E+03  0.26680436596E+02  0.30475215486E+03  0.12500000000E+03 0.  0.
         25    1    1    2    0    0 -0.99782118923E+01 -0.27647326360E+03  0.33128787218E+03  0.44934806604E+03  0.12500000000E+03 0.  0.
</event>
<event>
 4    0  0.2202290E-002  0.3592950E+03  0.7546771E-02  0.1058863E+00
         21   -1    0    0  502  501  0.00000000000E+00  0.00000000000E+00  0.28198277929E+03  0.28198277929E+03  0.00000000000E+00 0. -1.
         21   -1    0    0  501  502 -0.00000000000E+00 -0.00000000000E+00 -0.45780416218E+03  0.45780416218E+03  0.00000000000E+00 0. -1.
         25    1    1    2    0    0  0.40211373474E+02  0.33443131205E+03 -0.90562121521E+02  0.37052362258E+03  0.12500000000E+03 0.  0.
         25    1    1    2    0    0 -0.40211373474E+02 -0.33443131205E+03 -0.85259261365E+02  0.36926331890E+03  0.12500000000E+03 0.  0.
</event>
<event>
 4    0  0.2202290E-002  0.1903055E+03  0.7546771E-02  0.1158186E+00
         21   -1    0    0  502  501  0.00000000000E+00  0.00000000000E+00  0.97876182949E+02  0.97876182949E+02  0.00000000000E+00 0. -1.
         21   -1    0    0  501  502 -0.00000000000E+00 -0.00000000000E+00 -0.37002051377E+03  0.37002051377E+03  0.00000000000E+00 0. -1.
         25    1    1    2    0    0 -0.68388748131E+02  0.11146943307E+03 -0.63461088096E+02  0.19171532303E+03  0.12500000000E+03 0.  0.
         25    1    1    2    0    0  0.68388748131E+02 -0.11146943307E+03 -0.20868324272E+03  0.27618137369E+03  0.12500000000E+03 0.  0.
</event>
<event>
 4    0  0.2202290E-002  0.1824506E+03  0.7546771E-02  0.1165452E+00
         21   -1    0    0  502  501  0.00000000000E+00  0.00000000000E+00  0.38275678416E+02  0.38275678416E+02  0.00000000000E+00 0. -1.
         21   -1    0    0  501  502 -0.00000000000E+00 -0.00000000000E+00 -0.86969619270E+03  0.86969619270E+03  0.00000000000E+00 0. -1.
         25    1    1    2    0    0 -0.19864879974E+02 -0.65313489494E+02 -0.69944643377E+03  0.71380023752E+03  0.12500000000E+03 0.  0.
         25    1    1    2    0    0  0.19864879974E+02  0.65313489494E+02 -0.13197408051E+03  0.19417163359E+03  0.12500000000E+03 0.  0.
</event>
<event>
 4    0  0.2202290E-002  0.2347063E+03  0.7546771E-02  0.1123370E+00
         21   -1    0    0  502  501  0.00000000000E+00  0.00000000000E+00  0.85142587635E+02  0.85142587635E+02  0.00000000000E+00 0. -1.
         21   -1    0    0  501  502 -0.00000000000E+00 -0.00000000000E+00 -0.64699758779E+03  0.64699758779E+03  0.00000000000E+00 0. -1.
         25    1    1    2    0    0 -0.17523581548E+03  0.39730809209E+02 -0.41305046231E+03  0.46746316715E+03  0.12500000000E+03 0.  0.
         25    1    1    2    0    0  0.17523581548E+03 -0.39730809209E+02 -0.14880453784E+03  0.26467700828E+03  0.12500000000E+03 0.  0.
</event>
<event>
 4    0  0.2202290E-002  0.2867896E+03  0.7546771E-02  0.1092037E+00
         21   -1    0    0  502  501  0.00000000000E+00  0.00000000000E+00  0.45872155403E+03  0.45872155403E+03  0.00000000000E+00 0. -1.
         21   -1    0    0  501  502 -0.00000000000E+00 -0.00000000000E+00 -0.17929896199E+03  0.17929896199E+03  0.00000000000E+00 0. -1.
         25    1    1    2    0    0 -0.66058154502E+02 -0.29234660247E+02 -0.13592911580E+03  0.19829288857E+03  0.12500000000E+03 0.  0.
         25    1    1    2    0    0  0.66058154502E+02  0.29234660247E+02  0.41535170784E+03  0.43972762745E+03  0.12500000000E+03 0.  0.
</event>
<event>
 4    0  0.2202290E-002  0.1914023E+03  0.7546771E-02  0.1157203E+00
         21   -1    0    0  502  501  0.00000000000E+00  0.00000000000E+00  0.17712874189E+03  0.17712874189E+03  0.00000000000E+00 0. -1.
         21   -1    0    0  501  502 -0.00000000000E+00 -0.00000000000E+00 -0.20682615680E+03  0.20682615680E+03  0.00000000000E+00 0. -1.
         25    1    1    2    0    0  0.10865964772E+03 -0.95881010955E+02 -0.17983741331E+02  0.19221993200E+03  0.12500000000E+03 0.  0.
         25    1    1    2    0    0 -0.10865964772E+03  0.95881010955E+02 -0.11713673585E+02  0.19173496669E+03  0.12500000000E+03 0.  0.
</event>
<event>
 4    0  0.2202290E-002  0.1941138E+03  0.7546771E-02  0.1154802E+00
         21   -1    0    0  502  501  0.00000000000E+00  0.00000000000E+00  0.16127552810E+03  0.16127552810E+03  0.00000000000E+00 0. -1.
         21   -1    0    0  501  502 -0.00000000000E+00 -0.00000000000E+00 -0.23363849160E+03  0.23363849160E+03  0.00000000000E+00 0. -1.
         25    1    1    2    0    0  0.13719860996E+03  0.55236921950E+02 -0.22511467102E+02  0.19495215380E+03  0.12500000000E+03 0.  0.
         25    1    1    2    0    0 -0.13719860996E+03 -0.55236921950E+02 -0.49851496396E+02  0.19996186590E+03  0.12500000000E+03 0.  0.
</event>
<event>
 4    0  0.2202290E-002  0.2668737E+03  0.7546771E-02  0.1103082E+00
         21   -1    0    0  502  501  0.00000000000E+00  0.00000000000E+00  0.22405599192E+03  0.22405599192E+03  0.00000000000E+00 0. -1.
         21   -1    0    0  501  502 -0.00000000000E+00 -0.00000000000E+00 -0.31787403127E+03  0.31787403127E+03  0.00000000000E+00 0. -1.
         25    1    1    2    0    0  0.18156806437E+03 -0.14670761132E+03 -0.80683009324E+02  0.27681190945E+03  0.12500000000E+03 0.  0.
         25    1    1    2    0    0 -0.18156806437E+03  0.14670761132E+03 -0.13135030029E+02  0.26511811374E+03  0.12500000000E+03 0.  0.
</event>
<event>
 4    0  0.2202290E-002  0.2464621E+03  0.7546771E-02  0.1115561E+00
         21   -1    0    0  502  501  0.00000000000E+00  0.00000000000E+00  0.13771156794E+04  0.13771156794E+04  0.00000000000E+00 0.  1.
         21   -1    0    0  501  502 -0.00000000000E+00 -0.00000000000E+00 -0.44109252538E+02  0.44109252538E+02  0.00000000000E+00 0.  1.
         25    1    1    2    0    0  0.28580963060E+02 -0.21047940363E+03  0.66562642400E+03  0.70979010076E+03  0.12500000000E+03 0.  0.
         25    1    1    2    0    0 -0.28580963060E+02  0.21047940363E+03  0.66738000286E+03  0.71143483118E+03  0.12500000000E+03 0.  0.
</event>
<event>
 4    0  0.2202290E-002  0.2218323E+03  0.7546771E-02  0.1132524E+00
         21   -1    0    0  502  501  0.00000000000E+00  0.00000000000E+00  0.31684660858E+02  0.31684660858E+02  0.00000000000E+00 0. -1.
         21   -1    0    0  501  502 -0.00000000000E+00 -0.00000000000E+00 -0.15531044758E+04  0.15531044758E+04  0.00000000000E+00 0. -1.
         25    1    1    2    0    0  0.15297172290E+03  0.29155834382E+02 -0.41560219911E+03  0.46108632444E+03  0.12500000000E+03 0.  0.
         25    1    1    2    0    0 -0.15297172290E+03 -0.29155834382E+02 -0.11058176158E+04  0.11237028122E+04  0.12500000000E+03 0.  0.
</event>
<event>
 4    0  0.2202290E-002  0.2072664E+03  0.7546771E-02  0.1143749E+00
         21   -1    0    0  502  501  0.00000000000E+00  0.00000000000E+00  0.46864682691E+02  0.46864682691E+02  0.00000000000E+00 0.  1.
         21   -1    0    0  501  502 -0.00000000000E+00 -0.00000000000E+00 -0.91666800213E+03  0.91666800213E+03  0.00000000000E+00 0.  1.
         25    1    1    2    0    0  0.15943010886E+03 -0.41068640318E+02 -0.47013443819E+03  0.51357178934E+03  0.12500000000E+03 0.  0.
         25    1    1    2    0    0 -0.15943010886E+03  0.41068640318E+02 -0.39966888125E+03  0.44996089548E+03  0.12500000000E+03 0.  0.
</event>
<event>
 4    0  0.2202290E-002  0.2981802E+03  0.7546771E-02  0.1086154E+00
         21   -1    0    0  502  501  0.00000000000E+00  0.00000000000E+00  0.87012088731E+03  0.87012088731E+03  0.00000000000E+00 0.  1.
         21   -1    0    0  501  502 -0.00000000000E+00 -0.00000000000E+00 -0.10218286140E+03  0.10218286140E+03  0.00000000000E+00 0.  1.
         25    1    1    2    0    0  0.25949881953E+03  0.77098859042E+02  0.38658305484E+03  0.48821647831E+03  0.12500000000E+03 0.  0.
         25    1    1    2    0    0 -0.25949881953E+03 -0.77098859042E+02  0.38135497107E+03  0.48408727040E+03  0.12500000000E+03 0.  0.
</event>
<event>
 4    0  0.2202290E-002  0.3934378E+03  0.7546771E-02  0.1046076E+00
         21   -1    0    0  502  501  0.00000000000E+00  0.00000000000E+00  0.10644521070E+03  0.10644521070E+03  0.00000000000E+00 0. -1.
         21   -1    0    0  501  502 -0.00000000000E+00 -0.00000000000E+00 -0.14542062690E+04  0.14542062690E+04  0.00000000000E+00 0. -1.
         25    1    1    2    0    0  0.32860908766E+03 -0.83672835320E+02 -0.36545032692E+03  0.51396888749E+03  0.12500000000E+03 0.  0.
         25    1    1    2    0    0 -0.32860908766E+03  0.83672835320E+02 -0.98231073141E+03  0.10466825922E+04  0.12500000000E+03 0.  0.
</event>
<event>
 4    0  0.2202290E-002  0.2688487E+03  0.7546771E-02  0.1101940E+00
         21   -1    0    0  502  501  0.00000000000E+00  0.00000000000E+00  0.53195639200E+02  0.53195639200E+02  0.00000000000E+00 0.  1.
         21   -1    0    0  501  502 -0.00000000000E+00 -0.00000000000E+00 -0.13587510501E+04  0.13587510501E+04  0.00000000000E+00 0.  1.
         25    1    1    2    0    0  0.33021106849E+02 -0.21373510341E+03 -0.39174632669E+03  0.46461088278E+03  0.12500000000E+03 0.  0.
         25    1    1    2    0    0 -0.33021106849E+02  0.21373510341E+03 -0.91380908425E+03  0.94733580655E+03  0.12500000000E+03 0.  0.
</event>
<event>
 4    0  0.2202290E-002  0.3552872E+03  0.7546771E-02  0.1060466E+00
         21   -1    0    0  502  501  0.00000000000E+00  0.00000000000E+00  0.18884136930E+03  0.18884136930E+03  0.00000000000E+00 0. -1.
         21   -1    0    0  501  502 -0.00000000000E+00 -0.00000000000E+00 -0.66843946099E+03  0.66843946099E+03  0.00000000000E+00 0.  1.
         25    1    1    2    0    0  0.31754281919E+03 -0.98823740466E+02 -0.24234390978E+03  0.43006411651E+03  0.12500000000E+03 0.  0.
         25    1    1    2    0    0 -0.31754281919E+03  0.98823740466E+02 -0.23725418191E+03  0.42721671378E+03  0.12500000000E+03 0.  0.
</event>
<event>
 4    0  0.2202290E-002  0.1976309E+03  0.7546771E-02  0.1151753E+00
         21   -1    0    0  502  501  0.00000000000E+00  0.00000000000E+00  0.79681563894E+02  0.79681563894E+02  0.00000000000E+00 0.  1.
         21   -1    0    0  501  502 -0.00000000000E+00 -0.00000000000E+00 -0.49017556135E+03  0.49017556135E+03  0.00000000000E+00 0.  1.
         25    1    1    2    0    0 -0.11668539047E+03 -0.56297762764E+02 -0.87695561107E+02  0.20025091730E+03  0.12500000000E+03 0.  0.
         25    1    1    2    0    0  0.11668539047E+03  0.56297762764E+02 -0.32279843635E+03  0.36960620794E+03  0.12500000000E+03 0.  0.
</event>
<event>
 4    0  0.2202290E-002  0.3415139E+03  0.7546771E-02  0.1066153E+00
         21   -1    0    0  502  501  0.00000000000E+00  0.00000000000E+00  0.30993588599E+04  0.30993588599E+04  0.00000000000E+00 0. -1.
         21   -1    0    0  501  502 -0.00000000000E+00 -0.00000000000E+00 -0.37630924426E+02  0.37630924426E+02  0.00000000000E+00 0. -1.
         25    1    1    2    0    0  0.17327226109E+03  0.23923307020E+03  0.20694336290E+04  0.20941433292E+04  0.12500000000E+03 0.  0.
         25    1    1    2    0    0 -0.17327226109E+03 -0.23923307020E+03  0.99229430647E+03  0.10428464551E+04  0.12500000000E+03 0.  0.
</event>
<event>
 4    0  0.2202290E-002  0.1847300E+03  0.7546771E-02  0.1163302E+00
         21   -1    0    0  502  501  0.00000000000E+00  0.00000000000E+00  0.10384373805E+04  0.10384373805E+04  0.00000000000E+00 0. -1.
         21   -1    0    0  501  502 -0.00000000000E+00 -0.00000000000E+00 -0.32862045308E+02  0.32862045308E+02  0.00000000000E+00 0. -1.
         25    1    1    2    0    0 -0.79932737616E+02 -0.47108245048E+02  0.79117748619E+03  0.80634685090E+03  0.12500000000E+03 0.  0.
         25    1    1    2    0    0  0.79932737616E+02  0.47108245048E+02  0.21439784898E+03  0.26495257489E+03  0.12500000000E+03 0.  0.
</event>
<event>
 4    0  0.2202290E-002  0.2301594E+03  0.7546771E-02  0.1126528E+00
         21   -1    0    0  502  501  0.00000000000E+00  0.00000000000E+00  0.19899972618E+03  0.19899972618E+03  0.00000000000E+00 0. -1.
         21   -1    0    0  501  502 -0.00000000000E+00 -0.00000000000E+00 -0.26619802595E+03  0.26619802595E+03  0.00000000000E+00 0. -1.
         25    1    1    2    0    0 -0.34371089170E+02  0.18978617564E+03 -0.21297619159E+02  0.23082190714E+03  0.12500000000E+03 0.  0.
         25    1    1    2    0    0  0.34371089170E+02 -0.18978617564E+03 -0.45900680608E+02  0.23437584499E+03  0.12500000000E+03 0.  0.
</event>
<event>
 4    0  0.2202290E-002  0.2326544E+03  0.7546771E-02  0.1124785E+00
         21   -1    0    0  502  501  0.00000000000E+00  0.00000000000E+00  0.10877474824E+03  0.10877474824E+03  0.00000000000E+00 0.  1.
         21   -1    0    0  501  502 -0.00000000000E+00 -0.00000000000E+00 -0.49761594713E+03  0.49761594713E+03  0.00000000000E+00 0.  1.
         25    1    1    2    0    0  0.13752908734E+03  0.13953398400E+03 -0.20864083231E+03  0.31231391173E+03  0.12500000000E+03 0.  0.
         25    1    1    2    0    0 -0.13752908734E+03 -0.13953398400E+03 -0.18020036658E+03  0.29407678363E+03  0.12500000000E+03 0.  0.
</event>
<event>
 4    0  0.2202290E-002  0.1764035E+03  0.7546771E-02  0.1171330E+00
         21   -1    0    0  502  501  0.00000000000E+00  0.00000000000E+00  0.81115018599E+02  0.81115018599E+02  0.00000000000E+00 0.  1.
         21   -1    0    0  501  502 -0.00000000000E+00 -0.00000000000E+00 -0.38363046027E+03  0.38363046027E+03  0.00000000000E+00 0.  1.
         25    1    1    2    0    0  0.87267640440E+02 -0.86702397261E+02 -0.12625558683E+03  0.21609817205E+03  0.12500000000E+03 0.  0.
         25    1    1    2    0    0 -0.87267640440E+02  0.86702397261E+02 -0.17625985484E+03  0.24864730681E+03  0.12500000000E+03 0.  0.
</event>
<event>
 4    0  0.2202290E-002  0.2302150E+03  0.7546771E-02  0.1126489E+00
         21   -1    0    0  502  501  0.00000000000E+00  0.00000000000E+00  0.40679461107E+03  0.40679461107E+03  0.00000000000E+00 0.  1.
         21   -1    0    0  501  502 -0.00000000000E+00 -0.00000000000E+00 -0.13028423911E+03  0.13028423911E+03  0.00000000000E+00 0.  1.
         25    1    1    2    0    0 -0.13236090912E+03 -0.11399085821E+03  0.41637734067E+02  0.21879677081E+03  0.12500000000E+03 0.  0.
         25    1    1    2    0    0  0.13236090912E+03  0.11399085821E+03  0.23487263789E+03  0.31828207937E+03  0.12500000000E+03 0.  0.
</event>
<event>
 4    0  0.2202290E-002  0.2007268E+03  0.7546771E-02  0.1149127E+00
         21   -1    0    0  502  501  0.00000000000E+00  0.00000000000E+00  0.28589378633E+03  0.28589378633E+03  0.00000000000E+00 0.  1.
         21   -1    0    0  501  502 -0.00000000000E+00 -0.00000000000E+00 -0.14093079110E+03  0.14093079110E+03  0.00000000000E+00 0.  1.
         25    1    1    2    0    0  0.27055329488E+02  0.13327365401E+03  0.15601110497E+03  0.24178155964E+03  0.12500000000E+03 0.  0.
         25    1    1    2    0    0 -0.27055329488E+02 -0.13327365401E+03 -0.11048109735E+02  0.18504301779E+03  0.12500000000E+03 0.  0.
</event>
<event>
 4    0  0.2202290E-002  0.2147754E+03  0.7546771E-02  0.1137839E+00
         21   -1    0    0  502  501  0.00000000000E+00  0.00000000000E+00  0.80717985400E+03  0.80717985400E+03  0.00000000000E+00 0.  1.
         21   -1    0    0  501  502 -0.00000000000E+00 -0.00000000000E+00 -0.57147677398E+02  0.57147677398E+02  0.00000000000E+00 0.  1.
         25    1    1    2    0    0 -0.23844569882E+02  0.17300745546E+03  0.37135486248E+03  0.42898668633E+03  0.12500000000E+03 0.  0.
         25    1    1    2    0    0  0.23844569882E+02 -0.17300745546E+03  0.37867731412E+03  0.43534084507E+03  0.12500000000E+03 0.  0.
</event>
<event>
 4    0  0.2202290E-002  0.2320462E+03  0.7546771E-02  0.1125208E+00
         21   -1    0    0  502  501  0.00000000000E+00  0.00000000000E+00  0.60616880922E+02  0.60616880922E+02  0.00000000000E+00 0.  1.
         21   -1    0    0  501  502 -0.00000000000E+00 -0.00000000000E+00 -0.88829144276E+03  0.88829144276E+03  0.00000000000E+00 0.  1.
         25    1    1    2    0    0 -0.16619733063E+03 -0.12300651431E+02 -0.62282845834E+03  0.65674435456E+03  0.12500000000E+03 0.  0.
         25    1    1    2    0    0  0.16619733063E+03  0.12300651431E+02 -0.20484610350E+03  0.29216396912E+03  0.12500000000E+03 0.  0.
</event>
<event>
 4    0  0.2202290E-002  0.2406114E+03  0.7546771E-02  0.1119386E+00
         21   -1    0    0  502  501  0.00000000000E+00  0.00000000000E+00  0.16544630132E+03  0.16544630132E+03  0.00000000000E+00 0.  1.
         21   -1    0    0  501  502 -0.00000000000E+00 -0.00000000000E+00 -0.34992538799E+03  0.34992538799E+03  0.00000000000E+00 0.  1.
         25    1    1    2    0    0  0.16426907730E+03  0.11796872894E+03 -0.52629699271E+02  0.24350736336E+03  0.12500000000E+03 0.  0.
         25    1    1    2    0    0 -0.16426907730E+03 -0.11796872894E+03 -0.13184938739E+03  0.27186432594E+03  0.12500000000E+03 0.  0.
</event>
<event>
 4    0  0.2202290E-002  0.2491831E+03  0.7546771E-02  0.1113822E+00
         21   -1    0    0  502  501  0.00000000000E+00  0.00000000000E+00  0.12019241243E+03  0.12019241243E+03  0.00000000000E+00 0.  1.
         21   -1    0    0  501  502 -0.00000000000E+00 -0.00000000000E+00 -0.51660682917E+03  0.51660682917E+03  0.00000000000E+00 0.  1.
         25    1    1    2    0    0  0.18604898339E+03 -0.10860052697E+03 -0.20801551765E+03  0.32450539943E+03  0.12500000000E+03 0.  0.
         25    1    1    2    0    0 -0.18604898339E+03  0.10860052697E+03 -0.18839889909E+03  0.31229384217E+03  0.12500000000E+03 0.  0.
</event>
<event>
 4    0  0.2202290E-002  0.2370847E+03  0.7546771E-02  0.1121750E+00
         21   -1    0    0  502  501  0.00000000000E+00  0.00000000000E+00  0.15477992014E+04  0.15477992014E+04  0.00000000000E+00 0. -1.
         21   -1    0    0  501  502 -0.00000000000E+00 -0.00000000000E+00 -0.36315524880E+02  0.36315524880E+02  0.00000000000E+00 0. -1.
         25    1    1    2    0    0 -0.19851817846E+03  0.34260110230E+02  0.75894288790E+03  0.79511164588E+03  0.12500000000E+03 0.  0.
         25    1    1    2    0    0  0.19851817846E+03 -0.34260110230E+02  0.75254078865E+03  0.78900308043E+03  0.12500000000E+03 0.  0.
</event>
